 Gaussian 09, Revision D.01,
 Gaussian 09:  ES64L-G09RevD.01 24-Apr-2013

 -----------------------------
 # b3lyp 6-31G(2df,p) opt Freq
 -----------------------------

 -----
 titel
 -----
 Symbolic Z-matrix:
 Charge =  0 Multiplicity = 1

 SCF Done:  E(RB3LYP) =  -423.227554226     A.U. after   14 cycles
 Optimization completed.
    -- Stationary point found.
 Normal termination of Gaussian 09 at Tue Jan 28 14:11:58 2020.

 ----------------------------------------------------------------------
 #N Geom=AllCheck Guess=TCheck SCRF=Check GenChk RB3LYP/6-31G(2df,p) Fr
 eq
 ----------------------------------------------------------------------

 Structure from the checkpoint file:  "/scratch/puck/g09_c530f366-f54f-4f1d-a703-87c36fbd900a/Gau-11033.chk"
 -----
 titel
 -----
 Charge =  0 Multiplicity = 1

                         Standard orientation:
 ---------------------------------------------------------------------
 Center     Atomic      Atomic             Coordinates (Angstroms)
 Number     Number       Type             X           Y           Z
 ---------------------------------------------------------------------
      1          6           0        3.070000    0.773692   -0.320541
      2          6           0        2.296613   -0.485837    0.084789
      3          6           0        0.824773   -0.413554   -0.266547
      4          6           0       -0.181020   -1.214424    0.498228
      5          6           0       -1.506801   -1.466839   -0.201687
      6          8           0       -2.034998   -0.178098   -0.555083
      7          6           0       -1.363602    0.836194    0.079379
      8          8           0       -1.769808    1.961690    0.080924
      9          6           0       -0.123674    0.282740    0.702400
     10          1           0        4.129169    0.685055   -0.061322
     11          1           0        3.003499    0.946100   -1.399974
     12          1           0        2.671029    1.661064    0.180967
     13          1           0        2.735108   -1.363295   -0.407856
     14          1           0        2.402554   -0.656918    1.163618
     15          1           0        0.618464   -0.258685   -1.324693
     16          1           0        0.146387   -1.907823    1.263699
     17          1           0       -1.410221   -2.053474   -1.120811
     18          1           0       -2.223379   -1.966234    0.460447
     19          1           0        0.268098    0.773637    1.583068
 ---------------------------------------------------------------------

 SCF Done:  E(RB3LYP) =  -423.227554226     A.U. after    1 cycles

 The electronic state is 1-A.
 Alpha  occ. eigenvalues --  -19.17585 -19.11724 -10.30036 -10.25231 -10.21459
 Alpha  occ. eigenvalues --  -10.21423 -10.21065 -10.19936 -10.18293  -1.09409
 Alpha  occ. eigenvalues --   -1.01624  -0.89065  -0.77532  -0.73340  -0.66627
 Alpha  occ. eigenvalues --   -0.61396  -0.59611  -0.57144  -0.51240  -0.48677
 Alpha  occ. eigenvalues --   -0.47592  -0.44776  -0.44338  -0.41831  -0.41587
 Alpha  occ. eigenvalues --   -0.40513  -0.38517  -0.36894  -0.35437  -0.34337
 Alpha  occ. eigenvalues --   -0.31636  -0.29650  -0.28997  -0.25943
 Alpha virt. eigenvalues --    0.01281   0.08421   0.09103   0.10057   0.11355
 Alpha virt. eigenvalues --    0.12523   0.13230   0.14852   0.14989   0.15607
 Alpha virt. eigenvalues --    0.17398   0.17956   0.19137   0.20171   0.21179

 Mulliken charges:
               1
     1  C   -0.375480
     2  C   -0.219186
     3  C    0.001605
     4  C   -0.101313
     5  C   -0.105519
     6  O   -0.233061
     7  C    0.447767
     8  O   -0.347856
     9  C   -0.199735
    10  H    0.116443
    11  H    0.121288
    12  H    0.127328
    13  H    0.105319
    14  H    0.099010
    15  H    0.102224
    16  H    0.102975
    17  H    0.121868
    18  H    0.120535
    19  H    0.115785
 Sum of Mulliken charges =   0.00000

 Dipole moment (field-independent basis, Debye):
    X=              2.8264    Y=             -3.6014    Z=              0.8107  Tot=              4.6493
 Quadrupole moment (field-independent basis, Debye-Ang):
   XX=            -57.3307   YY=            -56.6889   ZZ=            -51.2813
   XY=              6.6386   XZ=             -1.2824   YZ=              0.0279

  Exact polarizability:  85.679   0.398  80.327  -0.097   1.288  61.775
 Approx polarizability: 108.727  -4.777 125.897   0.290   4.178  96.813

                      1                      2                      3
                      A                      A                      A
 Frequencies --     86.4274               123.5045               164.3617
 Red. masses --      2.6494                 3.7052                 3.6737
 Frc consts  --      0.0117                 0.0333                 0.0585
 IR Inten    --      0.4163                 1.6966                 0.4530

                      4                      5                      6
                      A                      A                      A
 Frequencies --    189.1036               240.9046               285.0371
 Red. masses --      1.8261                 1.8876                 1.7261
 Frc consts  --      0.0385                 0.0645                 0.0826
 IR Inten    --      0.9743                 2.7038                 0.6017

                      7                      8                      9
                      A                      A                      A
 Frequencies --    370.1531               412.7463               499.2749
 Red. masses --      3.2203                 2.6525                 4.8995
 Frc consts  --      0.2600                 0.2662                 0.7196
 IR Inten    --      0.2267                 0.4199                 3.6295

                     10                     11                     12
                      A                      A                      A
 Frequencies --    632.6230               715.1720               749.0766
 Red. masses --      7.0713                 5.3369                 3.3291
 Frc consts  --      1.6674                 1.6083                 1.1006
 IR Inten    --      4.8009                 2.5377                 6.2117

                     13                     14                     15
                      A                      A                      A
 Frequencies --    781.4237               853.7665               859.2622
 Red. masses --      1.6331                 1.8872                 2.2391
 Frc consts  --      0.5875                 0.8105                 0.9740
 IR Inten    --      0.3917                 3.1439                 2.9183

                     16                     17                     18
                      A                      A                      A
 Frequencies --    875.5631               903.9401               969.6104
 Red. masses --      2.9843                 2.3080                 1.8348
 Frc consts  --      1.3479                 1.1111                 1.0163
 IR Inten    --     17.5005                10.3474                 9.7337

                     19                     20                     21
                      A                      A                      A
 Frequencies --    991.2782              1020.7635              1050.8107
 Red. masses --      2.2603                 1.8586                 1.7099
 Frc consts  --      1.3086                 1.1410                 1.1124
 IR Inten    --     17.1972                19.5804                12.7816

                     22                     23                     24
                      A                      A                      A
 Frequencies --   1067.3254              1083.7105              1093.1512
 Red. masses --      3.9865                 1.3163                 2.0905
 Frc consts  --      2.6757                 0.9108                 1.4719
 IR Inten    --     61.0960                20.2130                16.1109

                     25                     26                     27
                      A                      A                      A
 Frequencies --   1137.5297              1152.5680              1176.0483
 Red. masses --      1.6034                 1.6965                 2.2850
 Frc consts  --      1.2224                 1.3278                 1.8620
 IR Inten    --      1.2156                11.6157                99.1259

                     28                     29                     30
                      A                      A                      A
 Frequencies --   1206.4546              1235.6827              1286.2778
 Red. masses --      1.9807                 1.1346                 1.3441
 Frc consts  --      1.6986                 1.0208                 1.3102
 IR Inten    --      2.3571                 8.6496                 3.0474

                     31                     32                     33
                      A                      A                      A
 Frequencies --   1303.1879              1316.1786              1363.2124
 Red. masses --      1.7435                 1.2905                 1.5526
 Frc consts  --      1.7445                 1.3172                 1.6999
 IR Inten    --     19.2943                 3.3703                17.7713

                     34                     35                     36
                      A                      A                      A
 Frequencies --   1396.5705              1414.7064              1450.6345
 Red. masses --      1.5065                 1.2426                 2.3612
 Frc consts  --      1.7312                 1.4653                 2.9275
 IR Inten    --     25.1542                 2.8091                 0.4521

                     37                     38                     39
                      A                      A                      A
 Frequencies --   1484.8356              1498.5818              1507.0875
 Red. masses --      1.0639                 1.0400                 1.0757
 Frc consts  --      1.3819                 1.3761                 1.4395
 IR Inten    --      1.2686                 5.9995                 2.6488

                     40                     41                     42
                      A                      A                      A
 Frequencies --   1519.7068              1880.3971              3019.1694
 Red. masses --      1.0887                12.6700                 1.0596
 Frc consts  --      1.4814                26.3953                 5.6906
 IR Inten    --      1.5596               404.3314                25.2457

                     43                     44                     45
                      A                      A                      A
 Frequencies --   3036.2147              3037.5130              3051.2855
 Red. masses --      1.0581                 1.0357                 1.1015
 Frc consts  --      5.7472                 5.6301                 6.0425
 IR Inten    --     65.0530                13.6064                13.5266

                     46                     47                     48
                      A                      A                      A
 Frequencies --   3081.3877              3105.7892              3111.8105
 Red. masses --      1.1076                 1.1012                 1.1019
 Frc consts  --      6.1959                 6.2585                 6.2865
 IR Inten    --     23.8054                23.7600                30.8323

                     49                     50                     51
                      A                      A                      A
 Frequencies --   3119.3834              3183.9693              3211.5817
 Red. masses --      1.0888                 1.0906                 1.0924
 Frc consts  --      6.2421                 6.5141                 6.6385
 IR Inten    --     19.2979                 7.8555                 1.8530

 - Thermochemistry -
 -------------------
 Temperature   298.150 Kelvin.  Pressure   1.00000 Atm.
 Atom     1 has atomic number  6 and mass  12.00000

 Molecular mass:   126.06808 amu.
 Principal axes and moments of inertia in atomic units:
                           1         2         3
     Eigenvalues --   617.435841543.470121963.92693
           X            0.99903   0.04368  -0.00523
           Y           -0.04372   0.99902  -0.00664
           Z            0.00494   0.00686   0.99996
 This molecule is an asymmetric top.
 Rotational symmetry number  1.
 Warning -- assumption of classical behavior for rotation
           may cause significant error
 Rotational temperatures (Kelvin)      0.14028     0.05612     0.04410
 Rotational constants (GHZ):           2.92296     1.16928     0.91895
 Zero-point vibrational energy     420527.8 (Joules/Mol)
                                  100.50855 (Kcal/Mol)
 Warning -- explicit consideration of   9 degrees of freedom as
           vibrations may cause significant error
 Vibrational temperatures:    124.35   177.70   236.48   272.08   346.61
          (Kelvin)            410.10   532.57   593.85   718.34   910.20
                             1028.97  1077.75  1124.29  1228.38  1236.29
                             1259.74  1300.57  1395.05  1426.23  1468.65
                             1511.88  1535.64  1559.22  1572.80  1636.65
                             1658.29  1692.07  1735.82  1777.87  1850.66
                             1874.99  1893.69  1961.36  2009.35  2035.44
                             2087.14  2136.34  2156.12  2168.36  2186.52
                             2705.47  4343.91  4368.43  4370.30  4390.11
                             4433.42  4468.53  4477.20  4488.09  4581.02
                             4620.74

 Zero-point correction=                           0.160171 (Hartree/Particle)
 Thermal correction to Energy=                    0.168517
 Thermal correction to Enthalpy=                  0.169461
 Thermal correction to Gibbs Free Energy=         0.126853
 Sum of electronic and zero-point Energies=           -423.067384
 Sum of electronic and thermal Energies=              -423.059037
 Sum of electronic and thermal Enthalpies=            -423.058093
 Sum of electronic and thermal Free Energies=         -423.100702

                     E (Thermal)             CV                S
                      KCal/Mol        Cal/Mol-Kelvin    Cal/Mol-Kelvin
 Total                  105.746             31.270             89.678
 Electronic               0.000              0.000              0.000
 Translational            0.889              2.981             40.409
 Rotational               0.889              2.981             29.016
 Vibrational            103.969             25.308             20.253
 Vibration     1          0.601              1.959              3.739
 Vibration     2          0.610              1.929              3.045
 Vibration     3          0.623              1.886              2.499
 Vibration     4          0.633              1.855              2.237
 Vibration     5          0.658              1.778              1.796
 Vibration     6          0.683              1.701              1.503
 Vibration     7          0.742              1.534              1.079
 Vibration     8          0.777              1.443              0.917
 Vibration     9          0.855              1.252              0.660

 Normal termination of Gaussian 09 at Tue Jan 28 14:56:11 2020.
