 Gaussian 09, Revision D.01,
 Gaussian 09:  ES64L-G09RevD.01 24-Apr-2013

 -----------------------------
 # b3lyp 6-31G(2df,p) opt Freq
 -----------------------------

 -----
 titel
 -----
 Symbolic Z-matrix:
 Charge =  0 Multiplicity = 1

 SCF Done:  E(RB3LYP) =  -423.128031050     A.U. after   13 cycles
 Optimization completed.
    -- Stationary point found.
 Normal termination of Gaussian 09 at Tue Jan 28 02:51:48 2020.

 ----------------------------------------------------------------------
 #N Geom=AllCheck Guess=TCheck SCRF=Check GenChk RB3LYP/6-31G(2df,p) Fr
 eq
 ----------------------------------------------------------------------

 Structure from the checkpoint file:  "/scratch/puck/g09_167fc17d-d666-461c-8f81-b1c55f3100be/Gau-190056.chk"
 -----
 titel
 -----
 Charge =  0 Multiplicity = 1

                         Standard orientation:
 ---------------------------------------------------------------------
 Center     Atomic      Atomic             Coordinates (Angstroms)
 Number     Number       Type             X           Y           Z
 ---------------------------------------------------------------------
      1          6           0        2.656614    0.516128   -0.092912
      2          6           0        1.207328    0.364851   -0.497643
      3          8           0        0.839049   -1.015019   -0.846528
      4          6           0       -0.309140   -0.926408    0.013287
      5          6           0        0.058449   -0.784431    1.461996
      6          6           0        0.075727    0.419573    0.544697
      7          8           0       -1.009107    1.285208    0.520501
      8          6           0       -1.949815    0.760172   -0.446151
      9          6           0       -1.726591   -0.787585   -0.501691
     10          1           0        2.893445   -0.101528    0.777408
     11          1           0        3.314969    0.217428   -0.914862
     12          1           0        2.866939    1.562210    0.153389
     13          1           0        0.968046    1.026561   -1.340451
     14          1           0       -0.766622   -0.790469    2.165232
     15          1           0        0.984421   -1.222219    1.821198
     16          1           0       -2.952983    1.052085   -0.123201
     17          1           0       -1.759568    1.210813   -1.429881
     18          1           0       -2.445558   -1.317169    0.129156
     19          1           0       -1.818065   -1.173027   -1.519263
 ---------------------------------------------------------------------

 SCF Done:  E(RB3LYP) =  -423.128031050     A.U. after    1 cycles

 The electronic state is 1-A.
 Alpha  occ. eigenvalues --  -19.14984 -19.13891 -10.24291 -10.23560 -10.23209
 Alpha  occ. eigenvalues --  -10.22692 -10.20082 -10.19841 -10.17841  -1.06656
 Alpha  occ. eigenvalues --   -1.02534  -0.83097  -0.77331  -0.74500  -0.65359
 Alpha  occ. eigenvalues --   -0.63774  -0.57951  -0.52358  -0.51003  -0.50009
 Alpha  occ. eigenvalues --   -0.46388  -0.44149  -0.42357  -0.41725  -0.40870
 Alpha  occ. eigenvalues --   -0.40321  -0.37946  -0.36701  -0.35892  -0.33819
 Alpha  occ. eigenvalues --   -0.32431  -0.27478  -0.24638  -0.22550
 Alpha virt. eigenvalues --    0.05605   0.08223   0.09981   0.10685   0.12602
 Alpha virt. eigenvalues --    0.13150   0.14196   0.15867   0.16095   0.16480
 Alpha virt. eigenvalues --    0.17546   0.18121   0.18896   0.20486   0.22661

 Mulliken charges:
               1
     1  C   -0.404902
     2  C    0.077472
     3  O   -0.342697
     4  C    0.337875
     5  C   -0.378375
     6  C    0.244223
     7  O   -0.297155
     8  C   -0.087314
     9  C   -0.325511
    10  H    0.122823
    11  H    0.127272
    12  H    0.125163
    13  H    0.087536
    14  H    0.128015
    15  H    0.121421
    16  H    0.113028
    17  H    0.106604
    18  H    0.117168
    19  H    0.127355
 Sum of Mulliken charges =   0.00000

 Dipole moment (field-independent basis, Debye):
    X=             -0.7208    Y=              0.0758    Z=             -0.1026  Tot=              0.7320
 Quadrupole moment (field-independent basis, Debye-Ang):
   XX=            -48.3731   YY=            -57.0229   ZZ=            -52.6427
   XY=              3.1163   XZ=              1.9330   YZ=             -4.0315

  Exact polarizability:  86.661   2.017  65.880   1.588  -4.810  69.407
 Approx polarizability: 111.107   1.730 106.841   0.827  -1.315 106.595

                      1                      2                      3
                      A                      A                      A
 Frequencies --    130.7466               151.2665               213.6606
 Red. masses --      2.2702                 2.6541                 1.0892
 Frc consts  --      0.0229                 0.0358                 0.0293
 IR Inten    --      0.6472                 1.8384                 0.5334

                      4                      5                      6
                      A                      A                      A
 Frequencies --    238.9176               309.5889               370.5382
 Red. masses --      2.4238                 2.7635                 4.4070
 Frc consts  --      0.0815                 0.1561                 0.3565
 IR Inten    --      2.0228                 3.5744                 8.6673

                      7                      8                      9
                      A                      A                      A
 Frequencies --    439.1395               481.2355               566.1326
 Red. masses --      2.2444                 3.5012                 4.1233
 Frc consts  --      0.2550                 0.4777                 0.7786
 IR Inten    --      1.6189                10.0656                21.7657

                     10                     11                     12
                      A                      A                      A
 Frequencies --    613.9391               662.1236               749.0347
 Red. masses --      3.0584                 3.0422                 2.7712
 Frc consts  --      0.6792                 0.7858                 0.9161
 IR Inten    --      1.7667                 0.0485                 1.4941

                     13                     14                     15
                      A                      A                      A
 Frequencies --    806.9037               837.2725               848.6626
 Red. masses --      3.7423                 2.5824                 4.1965
 Frc consts  --      1.4356                 1.0666                 1.7807
 IR Inten    --      7.2750                11.3856                21.6224

                     16                     17                     18
                      A                      A                      A
 Frequencies --    883.1864               889.4610               915.9451
 Red. masses --      2.9341                 2.2199                 2.2818
 Frc consts  --      1.3484                 1.0347                 1.1279
 IR Inten    --      3.1810                 4.7638                 4.4138

                     19                     20                     21
                      A                      A                      A
 Frequencies --    942.6151               984.9155              1000.4352
 Red. masses --      1.8753                 3.4022                 1.5485
 Frc consts  --      0.9817                 1.9445                 0.9132
 IR Inten    --     11.1343                26.3969                16.4997

                     22                     23                     24
                      A                      A                      A
 Frequencies --   1047.3161              1060.4961              1082.3825
 Red. masses --      1.9013                 1.3924                 1.9024
 Frc consts  --      1.2287                 0.9226                 1.3132
 IR Inten    --      7.4125                14.3064                25.6956

                     25                     26                     27
                      A                      A                      A
 Frequencies --   1130.7836              1160.4676              1185.1347
 Red. masses --      2.7030                 2.2944                 2.3467
 Frc consts  --      2.0364                 1.8205                 1.9419
 IR Inten    --     39.8229                 7.9846                17.6233

                     28                     29                     30
                      A                      A                      A
 Frequencies --   1208.0154              1225.7613              1269.8973
 Red. masses --      1.5956                 1.1861                 2.3515
 Frc consts  --      1.3719                 1.0500                 2.2343
 IR Inten    --      8.5792                 2.5105                69.5735

                     31                     32                     33
                      A                      A                      A
 Frequencies --   1288.3551              1309.3649              1351.4668
 Red. masses --      1.4367                 1.6735                 2.4054
 Frc consts  --      1.4050                 1.6904                 2.5885
 IR Inten    --      1.9241                 1.0298                15.8240

                     34                     35                     36
                      A                      A                      A
 Frequencies --   1375.3700              1393.3941              1412.2258
 Red. masses --      1.3614                 1.3983                 1.4790
 Frc consts  --      1.5173                 1.5996                 1.7379
 IR Inten    --      0.7748                 8.6534                15.0095

                     37                     38                     39
                      A                      A                      A
 Frequencies --   1464.6590              1475.6531              1480.9534
 Red. masses --      1.3799                 1.1393                 1.0594
 Frc consts  --      1.7441                 1.4617                 1.3689
 IR Inten    --     11.2465                 6.2186                 5.0572

                     40                     41                     42
                      A                      A                      A
 Frequencies --   1492.3825              1517.0358              3010.7319
 Red. masses --      1.0495                 1.0985                 1.0690
 Frc consts  --      1.3772                 1.4895                 5.7091
 IR Inten    --      4.8593                 0.6139                29.7904

                     43                     44                     45
                      A                      A                      A
 Frequencies --   3020.6950              3038.7687              3066.0644
 Red. masses --      1.0832                 1.0356                 1.0638
 Frc consts  --      5.8232                 5.6344                 5.8920
 IR Inten    --     57.9197                14.7944                19.1025

                     46                     47                     48
                      A                      A                      A
 Frequencies --   3092.6093              3109.1765              3120.1030
 Red. masses --      1.0954                 1.1011                 1.1006
 Frc consts  --      6.1729                 6.2716                 6.3127
 IR Inten    --     36.9009                15.1690                18.2267

                     49                     50                     51
                      A                      A                      A
 Frequencies --   3124.3020              3130.1460              3229.6037
 Red. masses --      1.1039                 1.0566                 1.1167
 Frc consts  --      6.3487                 6.0992                 6.8627
 IR Inten    --     14.1027                14.4689                 4.2661

 - Thermochemistry -
 -------------------
 Temperature   298.150 Kelvin.  Pressure   1.00000 Atm.
 Atom     1 has atomic number  6 and mass  12.00000

 Molecular mass:   126.06808 amu.
 Principal axes and moments of inertia in atomic units:
                           1         2         3
     Eigenvalues --   579.665941186.334631280.24950
           X            0.99928   0.03563   0.01305
           Y           -0.03206   0.97682  -0.21165
           Z           -0.02028   0.21108   0.97726
 This molecule is an asymmetric top.
 Rotational symmetry number  1.
 Warning -- assumption of classical behavior for rotation
           may cause significant error
 Rotational temperatures (Kelvin)      0.14942     0.07301     0.06765
 Rotational constants (GHZ):           3.11342     1.52127     1.40968
 Zero-point vibrational energy     418148.9 (Joules/Mol)
                                   99.93998 (Kcal/Mol)
 Warning -- explicit consideration of  10 degrees of freedom as
           vibrations may cause significant error
 Vibrational temperatures:    188.11   217.64   307.41   343.75   445.43
          (Kelvin)            533.12   631.82   692.39   814.54   883.32
                              952.65  1077.69  1160.95  1204.65  1221.03
                             1270.71  1279.73  1317.84  1356.21  1417.07
                             1439.40  1506.85  1525.82  1557.30  1626.94
                             1669.65  1705.14  1738.06  1763.59  1827.10
                             1853.65  1883.88  1944.46  1978.85  2004.78
                             2031.88  2107.31  2123.13  2130.76  2147.20
                             2182.67  4331.77  4346.10  4372.10  4411.38
                             4449.57  4473.41  4489.13  4495.17  4503.58
                             4646.67

 Zero-point correction=                           0.159265 (Hartree/Particle)
 Thermal correction to Energy=                    0.167039
 Thermal correction to Enthalpy=                  0.167983
 Thermal correction to Gibbs Free Energy=         0.127326
 Sum of electronic and zero-point Energies=           -422.968767
 Sum of electronic and thermal Energies=              -422.960992
 Sum of electronic and thermal Enthalpies=            -422.960048
 Sum of electronic and thermal Free Energies=         -423.000705

                     E (Thermal)             CV                S
                      KCal/Mol        Cal/Mol-Kelvin    Cal/Mol-Kelvin
 Total                  104.819             30.871             85.570
 Electronic               0.000              0.000              0.000
 Translational            0.889              2.981             40.409
 Rotational               0.889              2.981             28.267
 Vibrational            103.041             24.909             16.895
 Vibration     1          0.612              1.923              2.935
 Vibration     2          0.619              1.901              2.656
 Vibration     3          0.644              1.820              2.012
 Vibration     4          0.657              1.781              1.811
 Vibration     5          0.699              1.655              1.365
 Vibration     6          0.743              1.533              1.078
 Vibration     7          0.799              1.385              0.829
 Vibration     8          0.838              1.292              0.707
 Vibration     9          0.922              1.105              0.512
 Vibration    10          0.973              1.002              0.426

 Optimization completed.
    -- Stationary point found.
 Normal termination of Gaussian 09 at Tue Jan 28 03:39:46 2020.
 Normal termination of Gaussian 09 at Tue Jan 28 03:02:28 2020.
