 Gaussian 09, Revision D.01,
 Gaussian 09:  ES64L-G09RevD.01 24-Apr-2013

 -----------------------------
 # b3lyp 6-31G(2df,p) opt Freq
 -----------------------------

 -----
 titel
 -----
 Symbolic Z-matrix:
 Charge =  0 Multiplicity = 1

 SCF Done:  E(RB3LYP) =  -423.212782172     A.U. after   14 cycles
 Optimization completed.
    -- Stationary point found.
 Normal termination of Gaussian 09 at Mon Jan 27 17:59:35 2020.

 ----------------------------------------------------------------------
 #N Geom=AllCheck Guess=TCheck SCRF=Check GenChk RB3LYP/6-31G(2df,p) Fr
 eq
 ----------------------------------------------------------------------

 Structure from the checkpoint file:  "/scratch/puck/g09_cdd2ef11-c63a-46ab-a4c8-7b1bdb2e3a90/Gau-61678.chk"
 -----
 titel
 -----
 Charge =  0 Multiplicity = 1

                         Standard orientation:
 ---------------------------------------------------------------------
 Center     Atomic      Atomic             Coordinates (Angstroms)
 Number     Number       Type             X           Y           Z
 ---------------------------------------------------------------------
      1          8           0       -2.034348   -0.683235   -0.618748
      2          6           0       -0.817301   -0.446544    0.000137
      3          6           0       -0.364689   -1.434695    1.063981
      4          6           0        0.343976   -1.398612   -0.263510
      5          6           0        1.777774   -0.868395   -0.346869
      6          6           0        1.869740    0.663177   -0.444978
      7          6           0        0.911694    1.363795    0.542388
      8          6           0       -0.509365    0.999004    0.172194
      9          8           0       -1.373110    1.820907   -0.078006
     10          1           0       -2.445332    0.195405   -0.675819
     11          1           0        0.156890   -1.071060    1.943806
     12          1           0       -1.068060   -2.239466    1.244593
     13          1           0        0.083640   -2.201251   -0.945908
     14          1           0        2.335106   -1.208876    0.535331
     15          1           0        2.277083   -1.312377   -1.213679
     16          1           0        2.898134    0.991909   -0.263182
     17          1           0        1.613229    0.983681   -1.462041
     18          1           0        1.133768    1.042943    1.568117
     19          1           0        1.004228    2.451338    0.502747
 ---------------------------------------------------------------------

 SCF Done:  E(RB3LYP) =  -423.212782172     A.U. after    1 cycles

 The electronic state is 1-A.
 Alpha  occ. eigenvalues --  -19.13579 -19.13578 -10.27070 -10.24672 -10.20380
 Alpha  occ. eigenvalues --  -10.20013 -10.19855 -10.19725 -10.19596  -1.05621
 Alpha  occ. eigenvalues --   -1.01669  -0.87324  -0.79749  -0.73314  -0.64436
 Alpha  occ. eigenvalues --   -0.62284  -0.59255  -0.54106  -0.51009  -0.48533
 Alpha  occ. eigenvalues --   -0.46170  -0.44834  -0.44122  -0.42748  -0.40772
 Alpha  occ. eigenvalues --   -0.39925  -0.36778  -0.36180  -0.35435  -0.34513
 Alpha  occ. eigenvalues --   -0.33110  -0.30369  -0.25312  -0.24090
 Alpha virt. eigenvalues --   -0.01948   0.07687   0.08474   0.10738   0.12297
 Alpha virt. eigenvalues --    0.13342   0.14626   0.15268   0.16432   0.16793
 Alpha virt. eigenvalues --    0.18056   0.18794   0.20392   0.21261   0.24006

 Mulliken charges:
               1
     1  O   -0.478842
     2  C    0.354630
     3  C   -0.344145
     4  C   -0.094946
     5  C   -0.224723
     6  C   -0.206124
     7  C   -0.316960
     8  C    0.335857
     9  O   -0.358672
    10  H    0.292077
    11  H    0.114876
    12  H    0.133274
    13  H    0.110191
    14  H    0.105401
    15  H    0.110260
    16  H    0.105542
    17  H    0.116517
    18  H    0.119946
    19  H    0.125839
 Sum of Mulliken charges =   0.00000

 Dipole moment (field-independent basis, Debye):
    X=              2.8659    Y=             -0.8249    Z=              0.7659  Tot=              3.0790
 Quadrupole moment (field-independent basis, Debye-Ang):
   XX=            -54.6783   YY=            -56.2922   ZZ=            -51.7157
   XY=              1.7555   XZ=             -0.8796   YZ=             -0.2681

  Exact polarizability:  82.143  -2.315  81.600   1.029  -1.513  63.672
 Approx polarizability: 117.875 -11.511 122.833   5.481  -3.999 100.118

                      1                      2                      3
                      A                      A                      A
 Frequencies --     96.5606               182.1547               205.0164
 Red. masses --      5.3322                 2.2204                 2.6425
 Frc consts  --      0.0293                 0.0434                 0.0654
 IR Inten    --      0.2576                 0.9666                 0.9303

                      4                      5                      6
                      A                      A                      A
 Frequencies --    325.9964               348.5444               372.0132
 Red. masses --      3.6758                 3.8542                 3.3160
 Frc consts  --      0.2302                 0.2759                 0.2704
 IR Inten    --     12.0757                10.9801                 1.9819

                      7                      8                      9
                      A                      A                      A
 Frequencies --    426.0181               455.4967               476.8739
 Red. masses --      1.2957                 2.9573                 2.5020
 Frc consts  --      0.1386                 0.3615                 0.3352
 IR Inten    --     43.7246                 5.8534                 1.8860

                     10                     11                     12
                      A                      A                      A
 Frequencies --    501.9845               562.8221               661.3031
 Red. masses --      2.8749                 2.5002                 3.8074
 Frc consts  --      0.4268                 0.4666                 0.9810
 IR Inten    --     13.2731                 8.4148                 6.0750

                     13                     14                     15
                      A                      A                      A
 Frequencies --    726.8676               785.2129               853.2213
 Red. masses --      2.6428                 2.0480                 2.0422
 Frc consts  --      0.8227                 0.7440                 0.8759
 IR Inten    --      5.9658                 3.3280                14.2508

                     16                     17                     18
                      A                      A                      A
 Frequencies --    862.5085               887.1538               902.7033
 Red. masses --      2.0821                 2.0618                 2.4955
 Frc consts  --      0.9126                 0.9561                 1.1981
 IR Inten    --      2.1039                 1.2237                 8.6953

                     19                     20                     21
                      A                      A                      A
 Frequencies --    928.3338               968.2490              1013.8860
 Red. masses --      2.5501                 1.5381                 1.9328
 Frc consts  --      1.2948                 0.8496                 1.1706
 IR Inten    --     29.6444                 0.8480                 4.7082

                     22                     23                     24
                      A                      A                      A
 Frequencies --   1045.1486              1071.3173              1091.5938
 Red. masses --      1.3513                 2.1872                 1.4498
 Frc consts  --      0.8696                 1.4790                 1.0178
 IR Inten    --      5.0771                 0.2318                 4.3361

                     25                     26                     27
                      A                      A                      A
 Frequencies --   1102.7882              1148.0178              1184.1960
 Red. masses --      1.6574                 2.4375                 1.4380
 Frc consts  --      1.1875                 1.8927                 1.1881
 IR Inten    --     25.2912                42.2929                 0.5253

                     28                     29                     30
                      A                      A                      A
 Frequencies --   1206.6799              1244.8707              1284.3903
 Red. masses --      1.6204                 1.6329                 1.2422
 Frc consts  --      1.3901                 1.4909                 1.2073
 IR Inten    --      4.9986               133.9248                 6.1766

                     31                     32                     33
                      A                      A                      A
 Frequencies --   1311.3787              1341.8486              1362.9160
 Red. masses --      1.7743                 1.4202                 1.4167
 Frc consts  --      1.7977                 1.5066                 1.5504
 IR Inten    --     14.3538                13.6126                 6.2707

                     34                     35                     36
                      A                      A                      A
 Frequencies --   1377.7782              1397.7822              1444.0474
 Red. masses --      1.5107                 2.1025                 1.4912
 Frc consts  --      1.6896                 2.4203                 1.8321
 IR Inten    --     12.0873                17.9295                62.9517

                     37                     38                     39
                      A                      A                      A
 Frequencies --   1472.7551              1482.3828              1495.1025
 Red. masses --      1.2038                 1.2334                 1.2077
 Frc consts  --      1.5384                 1.5968                 1.5905
 IR Inten    --     15.7894                 4.5291                 6.6985

                     40                     41                     42
                      A                      A                      A
 Frequencies --   1500.6683              1769.6582              3022.0712
 Red. masses --      1.0977                11.1752                 1.0679
 Frc consts  --      1.4564                20.6197                 5.7465
 IR Inten    --      1.1768               216.9365                28.7077

                     43                     44                     45
                      A                      A                      A
 Frequencies --   3030.9012              3037.3963              3073.8733
 Red. masses --      1.0651                 1.0618                 1.0937
 Frc consts  --      5.7648                 5.7718                 6.0888
 IR Inten    --      8.6154                23.3836                27.2637

                     46                     47                     48
                      A                      A                      A
 Frequencies --   3083.0420              3112.1265              3129.6517
 Red. masses --      1.1032                 1.0973                 1.0543
 Frc consts  --      6.1781                 6.2616                 6.0845
 IR Inten    --     33.1048                14.5496                 9.1783

                     49                     50                     51
                      A                      A                      A
 Frequencies --   3165.4491              3225.9281              3674.8629
 Red. masses --      1.0891                 1.1162                 1.0643
 Frc consts  --      6.4297                 6.8440                 8.4681
 IR Inten    --      6.3278                 4.5608                70.8056

 - Thermochemistry -
 -------------------
 Temperature   298.150 Kelvin.  Pressure   1.00000 Atm.
 Atom     1 has atomic number  8 and mass  15.99491

 Molecular mass:   126.06808 amu.
 Principal axes and moments of inertia in atomic units:
                           1         2         3
     Eigenvalues --   802.08842 975.791071479.52397
           X            0.99710   0.07553  -0.00912
           Y           -0.07558   0.99712  -0.00604
           Z            0.00864   0.00671   0.99994
 This molecule is an asymmetric top.
 Rotational symmetry number  1.
 Warning -- assumption of classical behavior for rotation
           may cause significant error
 Rotational temperatures (Kelvin)      0.10799     0.08876     0.05854
 Rotational constants (GHZ):           2.25005     1.84952     1.21981
 Zero-point vibrational energy     421286.1 (Joules/Mol)
                                  100.68980 (Kcal/Mol)
 Warning -- explicit consideration of  11 degrees of freedom as
           vibrations may cause significant error
 Vibrational temperatures:    138.93   262.08   294.97   469.04   501.48
          (Kelvin)            535.24   612.94   655.36   686.11   722.24
                              809.77   951.47  1045.80  1129.74  1227.59
                             1240.96  1276.41  1298.79  1335.66  1393.09
                             1458.75  1503.73  1541.38  1570.56  1586.66
                             1651.74  1703.79  1736.14  1791.09  1847.95
                             1886.78  1930.62  1960.93  1982.31  2011.09
                             2077.66  2118.96  2132.82  2151.12  2159.12
                             2546.14  4348.08  4360.79  4370.13  4422.61
                             4435.80  4477.65  4502.87  4554.37  4641.39
                             5287.30

 Zero-point correction=                           0.160459 (Hartree/Particle)
 Thermal correction to Energy=                    0.168394
 Thermal correction to Enthalpy=                  0.169338
 Thermal correction to Gibbs Free Energy=         0.128303
 Sum of electronic and zero-point Energies=           -423.052323
 Sum of electronic and thermal Energies=              -423.044389
 Sum of electronic and thermal Enthalpies=            -423.043444
 Sum of electronic and thermal Free Energies=         -423.084479

                     E (Thermal)             CV                S
                      KCal/Mol        Cal/Mol-Kelvin    Cal/Mol-Kelvin
 Total                  105.669             31.731             86.364
 Electronic               0.000              0.000              0.000
 Translational            0.889              2.981             40.409
 Rotational               0.889              2.981             28.539
 Vibrational            103.891             25.769             17.417
 Vibration     1          0.603              1.952              3.523
 Vibration     2          0.630              1.864              2.306
 Vibration     3          0.640              1.833              2.088
 Vibration     4          0.710              1.624              1.280
 Vibration     5          0.726              1.578              1.173
 Vibration     6          0.744              1.530              1.071
 Vibration     7          0.788              1.414              0.872
 Vibration     8          0.814              1.349              0.779
 Vibration     9          0.833              1.301              0.719
 Vibration    10          0.857              1.246              0.653
 Vibration    11          0.919              1.112              0.518

 Optimization completed.
    -- Stationary point found.
 Normal termination of Gaussian 09 at Mon Jan 27 18:44:13 2020.
