 Gaussian 09, Revision D.01,
 Gaussian 09:  ES64L-G09RevD.01 24-Apr-2013

 -----------------------------
 # b3lyp 6-31G(2df,p) opt Freq
 -----------------------------

 -----
 titel
 -----
 Symbolic Z-matrix:
 Charge =  0 Multiplicity = 1

 SCF Done:  E(RB3LYP) =  -423.120498096     A.U. after   14 cycles
 Optimization completed.
    -- Stationary point found.
 Normal termination of Gaussian 09 at Tue Jan 28 12:08:05 2020.

 ----------------------------------------------------------------------
 #N Geom=AllCheck Guess=TCheck SCRF=Check GenChk RB3LYP/6-31G(2df,p) Fr
 eq
 ----------------------------------------------------------------------

 Structure from the checkpoint file:  "/scratch/puck/g09_2f22ed90-ad5f-4544-8193-64173760cb14/Gau-138091.chk"
 -----
 titel
 -----
 Charge =  0 Multiplicity = 1

                         Standard orientation:
 ---------------------------------------------------------------------
 Center     Atomic      Atomic             Coordinates (Angstroms)
 Number     Number       Type             X           Y           Z
 ---------------------------------------------------------------------
      1          8           0        3.250739   -0.357024    0.059637
      2          6           0        1.956955    0.042509   -0.367858
      3          6           0        0.869509   -0.360145    0.633037
      4          6           0       -0.541485    0.027013    0.183425
      5          6           0       -1.712469   -0.654079    0.955435
      6          6           0       -2.044937   -1.311873   -0.395533
      7          8           0       -0.911826   -0.688057   -1.036251
      8          6           0       -0.689830    1.471792    0.021866
      9          6           0       -0.823522    2.661150   -0.093038
     10          1           0        3.288509   -1.317909    0.023091
     11          1           0        1.993670    1.131724   -0.459429
     12          1           0        1.711831   -0.364048   -1.358855
     13          1           0        0.885136   -1.449445    0.768128
     14          1           0        1.079405    0.097464    1.606669
     15          1           0       -1.382295   -1.334528    1.741939
     16          1           0       -2.462220    0.029550    1.351630
     17          1           0       -1.980726   -2.405296   -0.431021
     18          1           0       -2.991869   -0.996421   -0.848900
     19          1           0       -0.938066    3.711346   -0.204343
 ---------------------------------------------------------------------

 SCF Done:  E(RB3LYP) =  -423.120498096     A.U. after    1 cycles

 The electronic state is 1-A.
 Alpha  occ. eigenvalues --  -19.13843 -19.13036 -10.26572 -10.23611 -10.22084
 Alpha  occ. eigenvalues --  -10.19764 -10.18670 -10.18455 -10.18108  -1.04342
 Alpha  occ. eigenvalues --   -1.01068  -0.80018  -0.74612  -0.74110  -0.68097
 Alpha  occ. eigenvalues --   -0.61809  -0.58974  -0.52156  -0.50586  -0.49975
 Alpha  occ. eigenvalues --   -0.48813  -0.45769  -0.44114  -0.42849  -0.38872
 Alpha  occ. eigenvalues --   -0.38089  -0.37137  -0.35454  -0.32075  -0.31585
 Alpha  occ. eigenvalues --   -0.27977  -0.27337  -0.26308  -0.25219
 Alpha virt. eigenvalues --    0.02231   0.04664   0.08121   0.08746   0.11281
 Alpha virt. eigenvalues --    0.11789   0.12653   0.13068   0.14304   0.16097
 Alpha virt. eigenvalues --    0.17032   0.17407   0.19972   0.21226   0.21999

 Mulliken charges:
               1
     1  O   -0.418543
     2  C   -0.073020
     3  C   -0.256434
     4  C    0.213905
     5  C   -0.333828
     6  C   -0.065342
     7  O   -0.308052
     8  C    0.345435
     9  C   -0.478859
    10  H    0.280440
    11  H    0.124365
    12  H    0.110142
    13  H    0.086698
    14  H    0.114472
    15  H    0.115502
    16  H    0.124734
    17  H    0.105883
    18  H    0.110842
    19  H    0.201661
 Sum of Mulliken charges =   0.00000

 Dipole moment (field-independent basis, Debye):
    X=             -1.7246    Y=             -1.1564    Z=              1.2185  Tot=              2.4075
 Quadrupole moment (field-independent basis, Debye-Ang):
   XX=            -56.4895   YY=            -44.6842   ZZ=            -55.5138
   XY=             -2.9649   XZ=             -1.8522   YZ=             -1.3357

  Exact polarizability:  78.319  -0.198  93.990   1.075  -2.064  59.826
 Approx polarizability:  99.371  -2.279 144.582   1.966  -2.831  90.667

                      1                      2                      3
                      A                      A                      A
 Frequencies --     59.5714                87.0095               102.1216
 Red. masses --      2.4418                 4.1899                 1.8863
 Frc consts  --      0.0051                 0.0187                 0.0116
 IR Inten    --      0.1612                 2.9183                 3.7402

                      4                      5                      6
                      A                      A                      A
 Frequencies --    135.2890               189.9281               202.4918
 Red. masses --      4.3857                 3.9946                 2.6673
 Frc consts  --      0.0473                 0.0849                 0.0644
 IR Inten    --      0.7411                 3.0972                 1.8424

                      7                      8                      9
                      A                      A                      A
 Frequencies --    299.2808               339.7713               371.9987
 Red. masses --      1.1160                 4.2973                 3.5933
 Frc consts  --      0.0589                 0.2923                 0.2930
 IR Inten    --    101.2652                 2.8686                12.9398

                     10                     11                     12
                      A                      A                      A
 Frequencies --    412.3774               521.2738               548.1884
 Red. masses --      3.7515                 5.9378                 5.9857
 Frc consts  --      0.3759                 0.9506                 1.0598
 IR Inten    --      1.8770                 3.4908                 1.8417

                     13                     14                     15
                      A                      A                      A
 Frequencies --    626.3065               664.8015               706.3310
 Red. masses --      1.2368                 1.2576                 4.0945
 Frc consts  --      0.2858                 0.3275                 1.2035
 IR Inten    --     40.0026                34.5168                12.1515

                     16                     17                     18
                      A                      A                      A
 Frequencies --    773.7125               788.9878               860.5947
 Red. masses --      1.2355                 1.1311                 4.7173
 Frc consts  --      0.4358                 0.4148                 2.0584
 IR Inten    --      0.4116                 0.6855                10.4303

                     19                     20                     21
                      A                      A                      A
 Frequencies --    908.6288               972.4411               986.7817
 Red. masses --      2.0072                 2.1571                 3.0644
 Frc consts  --      0.9764                 1.2019                 1.7581
 IR Inten    --     25.0386                 7.7944                 8.5949

                     22                     23                     24
                      A                      A                      A
 Frequencies --   1002.3528              1024.0739              1071.7803
 Red. masses --      3.3365                 5.3230                 3.8100
 Frc consts  --      1.9751                 3.2890                 2.5786
 IR Inten    --     62.3538                76.2970               119.5358

                     25                     26                     27
                      A                      A                      A
 Frequencies --   1099.2841              1117.9661              1158.9563
 Red. masses --      2.9114                 1.6978                 1.4650
 Frc consts  --      2.0729                 1.2503                 1.1594
 IR Inten    --     16.3568                14.1067                 6.1067

                     28                     29                     30
                      A                      A                      A
 Frequencies --   1174.9532              1210.4461              1256.4240
 Red. masses --      1.5777                 1.2959                 1.5511
 Frc consts  --      1.2833                 1.1187                 1.4426
 IR Inten    --     15.5858                 1.9998                 5.4798

                     31                     32                     33
                      A                      A                      A
 Frequencies --   1265.3643              1298.7318              1335.3667
 Red. masses --      1.9184                 1.4387                 1.2306
 Frc consts  --      1.8098                 1.4297                 1.2929
 IR Inten    --     21.6623                 9.4831                12.6053

                     34                     35                     36
                      A                      A                      A
 Frequencies --   1350.5033              1400.7883              1420.2327
 Red. masses --      1.3920                 1.2707                 1.2855
 Frc consts  --      1.4959                 1.4690                 1.5278
 IR Inten    --      1.2845                11.4735                27.9136

                     37                     38                     39
                      A                      A                      A
 Frequencies --   1469.4756              1486.8329              1514.5242
 Red. masses --      1.0870                 1.1003                 1.0886
 Frc consts  --      1.3829                 1.4331                 1.4712
 IR Inten    --      1.9199                 4.4341                 1.0460

                     40                     41                     42
                      A                      A                      A
 Frequencies --   1531.8972              2229.1088              3013.2316
 Red. masses --      1.1025                 5.9213                 1.0667
 Frc consts  --      1.5243                17.3352                 5.7063
 IR Inten    --      1.4084                 1.8839                24.1490

                     43                     44                     45
                      A                      A                      A
 Frequencies --   3021.8229              3025.1528              3065.4047
 Red. masses --      1.0624                 1.0556                 1.1110
 Frc consts  --      5.7157                 5.6918                 6.1509
 IR Inten    --     27.2085                83.3622                29.7450

                     46                     47                     48
                      A                      A                      A
 Frequencies --   3072.9921              3088.2021              3099.6798
 Red. masses --      1.0962                 1.0606                 1.0996
 Frc consts  --      6.0990                 5.9595                 6.2246
 IR Inten    --     10.0542                21.6600                32.9326

                     49                     50                     51
                      A                      A                      A
 Frequencies --   3151.0925              3499.3387              3817.3144
 Red. masses --      1.1083                 1.1620                 1.0662
 Frc consts  --      6.4840                 8.3838                 9.1539
 IR Inten    --     16.1870                64.5816                17.0105

 - Thermochemistry -
 -------------------
 Temperature   298.150 Kelvin.  Pressure   1.00000 Atm.
 Atom     1 has atomic number  8 and mass  15.99491

 Molecular mass:   126.06808 amu.
 Principal axes and moments of inertia in atomic units:
                           1         2         3
     Eigenvalues --   799.042671535.150161991.12368
           X            0.99991   0.01021  -0.00876
           Y           -0.01036   0.99980  -0.01739
           Z            0.00858   0.01748   0.99981
 This molecule is an asymmetric top.
 Rotational symmetry number  1.
 Warning -- assumption of classical behavior for rotation
           may cause significant error
 Rotational temperatures (Kelvin)      0.10840     0.05642     0.04350
 Rotational constants (GHZ):           2.25863     1.17561     0.90639
 Zero-point vibrational energy     411701.9 (Joules/Mol)
                                   98.39911 (Kcal/Mol)
 Warning -- explicit consideration of  12 degrees of freedom as
           vibrations may cause significant error
 Vibrational temperatures:     85.71   125.19   146.93   194.65   273.26
          (Kelvin)            291.34   430.60   488.85   535.22   593.32
                              750.00   788.72   901.11   956.50  1016.25
                             1113.20  1135.18  1238.20  1307.31  1399.12
                             1419.76  1442.16  1473.41  1542.05  1581.62
                             1608.50  1667.48  1690.49  1741.56  1807.71
                             1820.57  1868.58  1921.29  1943.07  2015.42
                             2043.40  2114.24  2139.22  2179.06  2204.06
                             3207.19  4335.36  4347.72  4352.51  4410.43
                             4421.34  4443.23  4459.74  4533.71  5034.76
                             5492.26

 Zero-point correction=                           0.156809 (Hartree/Particle)
 Thermal correction to Energy=                    0.166616
 Thermal correction to Enthalpy=                  0.167560
 Thermal correction to Gibbs Free Energy=         0.121466
 Sum of electronic and zero-point Energies=           -422.963689
 Sum of electronic and thermal Energies=              -422.953882
 Sum of electronic and thermal Enthalpies=            -422.952938
 Sum of electronic and thermal Free Energies=         -422.999032

                     E (Thermal)             CV                S
                      KCal/Mol        Cal/Mol-Kelvin    Cal/Mol-Kelvin
 Total                  104.553             35.423             97.013
 Electronic               0.000              0.000              0.000
 Translational            0.889              2.981             40.409
 Rotational               0.889              2.981             29.281
 Vibrational            102.775             29.461             27.324
 Vibration     1          0.597              1.974              4.471
 Vibration     2          0.601              1.958              3.726
 Vibration     3          0.604              1.947              3.413
 Vibration     4          0.613              1.918              2.869
 Vibration     5          0.633              1.854              2.229
 Vibration     6          0.639              1.836              2.110
 Vibration     7          0.692              1.675              1.421
 Vibration     8          0.720              1.596              1.213
 Vibration     9          0.744              1.530              1.072
 Vibration    10          0.776              1.443              0.918
 Vibration    11          0.876              1.203              0.607
 Vibration    12          0.903              1.144              0.548

 Normal termination of Gaussian 09 at Tue Jan 28 12:50:46 2020.
