 Gaussian 09, Revision D.01,
 Gaussian 09:  ES64L-G09RevD.01 24-Apr-2013

 -----------------------------
 # b3lyp 6-31G(2df,p) opt Freq
 -----------------------------

 -----
 titel
 -----
 Symbolic Z-matrix:
 Charge =  0 Multiplicity = 1

 SCF Done:  E(RB3LYP) =  -423.154534663     A.U. after   14 cycles
 SCF Done:  E(RB3LYP) =  -423.154534492     A.U. after    7 cycles
 SCF Done:  E(RB3LYP) =  -423.154534757     A.U. after    7 cycles
 Optimization completed.
    -- Stationary point found.
 Normal termination of Gaussian 09 at Tue Jan 28 08:23:18 2020.

 ----------------------------------------------------------------------
 #N Geom=AllCheck Guess=TCheck SCRF=Check GenChk RB3LYP/6-31G(2df,p) Fr
 eq
 ----------------------------------------------------------------------

 Structure from the checkpoint file:  "/scratch/puck/g09_d51e679d-15f7-4a11-9ea4-9b887682ff1e/Gau-14388.chk"
 -----
 titel
 -----
 Charge =  0 Multiplicity = 1

                         Standard orientation:
 ---------------------------------------------------------------------
 Center     Atomic      Atomic             Coordinates (Angstroms)
 Number     Number       Type             X           Y           Z
 ---------------------------------------------------------------------
      1          6           0        0.374010    2.185271    0.146550
      2          6           0        0.744602    0.744879    0.440008
      3          8           0        1.624817    0.260710   -0.568718
      4          6           0        1.423849   -1.134138   -0.693338
      5          8           0        0.369129   -1.502012    0.170380
      6          6           0       -0.391727   -0.314045    0.432044
      7          6           0       -1.090565   -0.486019    1.778465
      8          6           0       -1.366353   -0.081991   -0.644833
      9          6           0       -2.171642    0.089117   -1.520767
     10          1           0       -0.295182    2.572795    0.921316
     11          1           0        1.274822    2.804448    0.134237
     12          1           0       -0.122339    2.266332   -0.822582
     13          1           0        1.231957    0.675593    1.426038
     14          1           0        1.181697   -1.355027   -1.743556
     15          1           0        2.314725   -1.698280   -0.385819
     16          1           0       -1.806217   -1.309352    1.729048
     17          1           0       -0.350421   -0.706915    2.551610
     18          1           0       -1.631864    0.425887    2.044597
     19          1           0       -2.881773    0.236496   -2.296952
 ---------------------------------------------------------------------

 SCF Done:  E(RB3LYP) =  -423.154534757     A.U. after    1 cycles

 The electronic state is 1-A.
 Alpha  occ. eigenvalues --  -19.15140 -19.14395 -10.27251 -10.26588 -10.24145
 Alpha  occ. eigenvalues --  -10.18757 -10.18457 -10.18092 -10.17893  -1.08975
 Alpha  occ. eigenvalues --   -0.99641  -0.81926  -0.74862  -0.73006  -0.67738
 Alpha  occ. eigenvalues --   -0.62891  -0.60572  -0.54259  -0.51203  -0.49955
 Alpha  occ. eigenvalues --   -0.47760  -0.44848  -0.43859  -0.41156  -0.39857
 Alpha  occ. eigenvalues --   -0.39095  -0.38719  -0.37098  -0.33948  -0.33408
 Alpha  occ. eigenvalues --   -0.28711  -0.27877  -0.27196  -0.24912
 Alpha virt. eigenvalues --    0.03586   0.04693   0.09041   0.11993   0.12160
 Alpha virt. eigenvalues --    0.12568   0.13475   0.14478   0.14718   0.17191
 Alpha virt. eigenvalues --    0.17465   0.18540   0.19094   0.20803   0.21379

 Mulliken charges:
               1
     1  C   -0.417214
     2  C    0.119309
     3  O   -0.276467
     4  C    0.016958
     5  O   -0.270727
     6  C    0.136801
     7  C   -0.440857
     8  C    0.372081
     9  C   -0.508253
    10  H    0.118142
    11  H    0.129124
    12  H    0.139423
    13  H    0.071262
    14  H    0.104419
    15  H    0.106368
    16  H    0.140838
    17  H    0.127113
    18  H    0.130111
    19  H    0.201566
 Sum of Mulliken charges =   0.00000

 Dipole moment (field-independent basis, Debye):
    X=             -0.6983    Y=              0.6889    Z=              0.5649  Tot=              1.1319
 Quadrupole moment (field-independent basis, Debye-Ang):
   XX=            -51.8283   YY=            -54.2922   ZZ=            -49.7291
   XY=             -2.1171   XZ=              2.3879   YZ=              1.4530

  Exact polarizability:  81.364  -4.295  70.280   8.129   0.691  78.339
 Approx polarizability: 117.848  -7.428  98.365  18.696  -2.566 118.284

                      1                      2                      3
                      A                      A                      A
 Frequencies --     71.8196               103.7116               148.4467
 Red. masses --      2.4666                 3.5223                 3.7037
 Frc consts  --      0.0075                 0.0223                 0.0481
 IR Inten    --      8.7864                 0.0387                 0.1789

                      4                      5                      6
                      A                      A                      A
 Frequencies --    195.5037               210.9413               222.5049
 Red. masses --      1.5370                 1.6976                 1.1877
 Frc consts  --      0.0346                 0.0445                 0.0346
 IR Inten    --      1.7336                 1.2904                 0.7062

                      7                      8                      9
                      A                      A                      A
 Frequencies --    258.5513               319.8860               374.9628
 Red. masses --      2.0880                 3.3360                 3.0752
 Frc consts  --      0.0822                 0.2011                 0.2547
 IR Inten    --      0.1006                 1.9860                 2.9361

                     10                     11                     12
                      A                      A                      A
 Frequencies --    463.8715               498.7093               583.1539
 Red. masses --      4.3394                 4.7767                 4.8822
 Frc consts  --      0.5501                 0.7000                 0.9782
 IR Inten    --      0.4173                 6.4208                 3.8310

                     13                     14                     15
                      A                      A                      A
 Frequencies --    635.0450               639.0352               663.5603
 Red. masses --      1.8093                 2.0784                 1.2659
 Frc consts  --      0.4299                 0.5001                 0.3284
 IR Inten    --     16.8210                29.8752                34.3831

                     16                     17                     18
                      A                      A                      A
 Frequencies --    706.6546               752.1061               875.3455
 Red. masses --      3.7336                 8.3654                 2.3594
 Frc consts  --      1.0985                 2.7880                 1.0652
 IR Inten    --      3.4227                 3.0778                10.9141

                     19                     20                     21
                      A                      A                      A
 Frequencies --    890.6680               911.6539              1015.9842
 Red. masses --      2.3300                 1.8681                 5.3750
 Frc consts  --      1.0890                 0.9148                 3.2689
 IR Inten    --     11.5318                 7.9861                51.7931

                     22                     23                     24
                      A                      A                      A
 Frequencies --   1043.5776              1087.8313              1133.6359
 Red. masses --      1.5839                 2.4614                 2.4509
 Frc consts  --      1.0163                 1.7161                 1.8558
 IR Inten    --     24.5823                13.0434                90.2122

                     25                     26                     27
                      A                      A                      A
 Frequencies --   1142.7459              1153.3129              1161.1695
 Red. masses --      2.9662                 1.7831                 3.0387
 Frc consts  --      2.2822                 1.3974                 2.4139
 IR Inten    --     44.7403                57.6730                93.6729

                     28                     29                     30
                      A                      A                      A
 Frequencies --   1195.4103              1211.4727              1241.2182
 Red. masses --      2.0132                 1.6393                 2.3925
 Frc consts  --      1.6950                 1.4176                 2.1717
 IR Inten    --      7.4361                33.6130                11.5019

                     31                     32                     33
                      A                      A                      A
 Frequencies --   1352.1991              1379.7758              1405.4077
 Red. masses --      1.2453                 1.3700                 1.2499
 Frc consts  --      1.3415                 1.5367                 1.4545
 IR Inten    --     13.4060                 8.8075                 4.3530

                     34                     35                     36
                      A                      A                      A
 Frequencies --   1413.6955              1430.9745              1478.9357
 Red. masses --      1.3528                 1.2482                 1.0501
 Frc consts  --      1.5929                 1.5059                 1.3532
 IR Inten    --     14.2891                12.0684                 2.5619

                     37                     38                     39
                      A                      A                      A
 Frequencies --   1483.9173              1493.2295              1496.8624
 Red. masses --      1.0526                 1.0523                 1.0482
 Frc consts  --      1.3656                 1.3824                 1.3838
 IR Inten    --      2.1328                 3.1677                 2.5501

                     40                     41                     42
                      A                      A                      A
 Frequencies --   1549.9178              2228.8038              2968.9648
 Red. masses --      1.0971                 5.8958                 1.0827
 Frc consts  --      1.5528                17.2557                 5.6229
 IR Inten    --      3.7972                 1.3006                55.1348

                     43                     44                     45
                      A                      A                      A
 Frequencies --   2988.5265              3031.5595              3047.9413
 Red. masses --      1.0567                 1.1101                 1.0361
 Frc consts  --      5.5605                 6.0109                 5.6710
 IR Inten    --     98.5606                61.2810                12.0420

                     46                     47                     48
                      A                      A                      A
 Frequencies --   3051.5405              3117.2144              3130.0422
 Red. masses --      1.0344                 1.1005                 1.1025
 Frc consts  --      5.6749                 6.3002                 6.3638
 IR Inten    --     13.1997                17.4221                14.7727

                     49                     50                     51
                      A                      A                      A
 Frequencies --   3137.2518              3139.8675              3498.6593
 Red. masses --      1.1025                 1.1018                 1.1624
 Frc consts  --      6.3932                 6.3998                 8.3832
 IR Inten    --      8.3921                17.3843                62.6072

 - Thermochemistry -
 -------------------
 Temperature   298.150 Kelvin.  Pressure   1.00000 Atm.
 Atom     1 has atomic number  6 and mass  12.00000

 Molecular mass:   126.06808 amu.
 Principal axes and moments of inertia in atomic units:
                           1         2         3
     Eigenvalues --   931.314841105.005161231.67850
           X            0.99956  -0.01815  -0.02358
           Y            0.01897   0.99921   0.03506
           Z            0.02293  -0.03549   0.99911
 This molecule is an asymmetric top.
 Rotational symmetry number  1.
 Warning -- assumption of classical behavior for rotation
           may cause significant error
 Rotational temperatures (Kelvin)      0.09300     0.07838     0.07032
 Rotational constants (GHZ):           1.93784     1.63324     1.46527
 Zero-point vibrational energy     411143.2 (Joules/Mol)
                                   98.26558 (Kcal/Mol)
 Warning -- explicit consideration of  12 degrees of freedom as
           vibrations may cause significant error
 Vibrational temperatures:    103.33   149.22   213.58   281.29   303.50
          (Kelvin)            320.13   372.00   460.24   539.49   667.41
                              717.53   839.03   913.69   919.43   954.71
                             1016.72  1082.11  1259.43  1281.47  1311.66
                             1461.77  1501.47  1565.14  1631.05  1644.15
                             1659.36  1670.66  1719.93  1743.04  1785.83
                             1945.51  1985.19  2022.07  2033.99  2058.85
                             2127.86  2135.02  2148.42  2153.65  2229.98
                             3206.75  4271.67  4299.82  4361.73  4385.30
                             4390.48  4484.97  4503.43  4513.80  4517.56
                             5033.78

 Zero-point correction=                           0.156596 (Hartree/Particle)
 Thermal correction to Energy=                    0.166146
 Thermal correction to Enthalpy=                  0.167091
 Thermal correction to Gibbs Free Energy=         0.122371
 Sum of electronic and zero-point Energies=           -422.997939
 Sum of electronic and thermal Energies=              -422.988388
 Sum of electronic and thermal Enthalpies=            -422.987444
 Sum of electronic and thermal Free Energies=         -423.032164

                     E (Thermal)             CV                S
                      KCal/Mol        Cal/Mol-Kelvin    Cal/Mol-Kelvin
 Total                  104.258             35.159             94.121
 Electronic               0.000              0.000              0.000
 Translational            0.889              2.981             40.409
 Rotational               0.889              2.981             28.629
 Vibrational            102.481             29.197             25.083
 Vibration     1          0.598              1.967              4.103
 Vibration     2          0.605              1.946              3.383
 Vibration     3          0.618              1.904              2.692
 Vibration     4          0.636              1.846              2.175
 Vibration     5          0.643              1.824              2.036
 Vibration     6          0.648              1.807              1.939
 Vibration     7          0.667              1.748              1.672
 Vibration     8          0.706              1.636              1.311
 Vibration     9          0.746              1.523              1.059
 Vibration    10          0.821              1.330              0.755
 Vibration    11          0.854              1.253              0.661
 Vibration    12          0.940              1.068              0.480

 Optimization completed.
    -- Stationary point found.
 Normal termination of Gaussian 09 at Tue Jan 28 09:06:05 2020.
