 Gaussian 09, Revision D.01,
 Gaussian 09:  ES64L-G09RevD.01 24-Apr-2013

 -----------------------------
 # b3lyp 6-31G(2df,p) opt Freq
 -----------------------------

 -----
 titel
 -----
 Symbolic Z-matrix:
 Charge =  0 Multiplicity = 1

 SCF Done:  E(RB3LYP) =  -423.177517199     A.U. after   14 cycles
 Optimization completed.
    -- Stationary point found.
 Normal termination of Gaussian 09 at Tue Jan 28 14:05:49 2020.

 ----------------------------------------------------------------------
 #N Geom=AllCheck Guess=TCheck SCRF=Check GenChk RB3LYP/6-31G(2df,p) Fr
 eq
 ----------------------------------------------------------------------

 Structure from the checkpoint file:  "/scratch/puck/g09_847b6f8d-9d27-4fe7-a2a6-ae6c79bdee49/Gau-43836.chk"
 -----
 titel
 -----
 Charge =  0 Multiplicity = 1

                         Standard orientation:
 ---------------------------------------------------------------------
 Center     Atomic      Atomic             Coordinates (Angstroms)
 Number     Number       Type             X           Y           Z
 ---------------------------------------------------------------------
      1          6           0       -3.152316   -0.427856   -0.288858
      2          6           0       -1.944560    0.513329   -0.252844
      3          6           0       -0.745526   -0.071744    0.491658
      4          6           0        0.121306   -1.108014   -0.240764
      5          6           0        1.250913   -1.531684    0.638693
      6          6           0        1.434768   -0.205868   -0.034677
      7          8           0        2.541053    0.034797   -0.798111
      8          6           0        0.504932    0.849093    0.432065
      9          8           0        0.607026    2.048798    0.343777
     10          1           0       -2.913068   -1.371071   -0.791775
     11          1           0       -3.493696   -0.671228    0.723221
     12          1           0       -3.990788    0.029812   -0.822730
     13          1           0       -1.641983    0.775674   -1.274458
     14          1           0       -2.216416    1.457663    0.231456
     15          1           0       -1.038636   -0.388951    1.500191
     16          1           0       -0.157378   -1.624696   -1.149466
     17          1           0        1.113154   -1.602445    1.715843
     18          1           0        1.913214   -2.286461    0.224052
     19          1           0        2.423862    0.909418   -1.193302
 ---------------------------------------------------------------------

 SCF Done:  E(RB3LYP) =  -423.177517199     A.U. after    1 cycles

 The electronic state is 1-A.
 Alpha  occ. eigenvalues --  -19.16737 -19.12832 -10.26464 -10.25733 -10.21475
 Alpha  occ. eigenvalues --  -10.20905 -10.20130 -10.18880 -10.17993  -1.06181
 Alpha  occ. eigenvalues --   -1.03255  -0.90220  -0.78745  -0.71519  -0.64995
 Alpha  occ. eigenvalues --   -0.61722  -0.58945  -0.56067  -0.50035  -0.48464
 Alpha  occ. eigenvalues --   -0.46562  -0.44564  -0.43452  -0.41205  -0.40691
 Alpha  occ. eigenvalues --   -0.39074  -0.37223  -0.36267  -0.35718  -0.35088
 Alpha  occ. eigenvalues --   -0.33523  -0.31567  -0.24363  -0.24148
 Alpha virt. eigenvalues --   -0.00685   0.07702   0.09144   0.10034   0.10616
 Alpha virt. eigenvalues --    0.11423   0.14506   0.14876   0.15600   0.16023
 Alpha virt. eigenvalues --    0.17467   0.18801   0.19478   0.21172   0.21986

 Mulliken charges:
               1
     1  C   -0.389997
     2  C   -0.186031
     3  C   -0.109064
     4  C   -0.141680
     5  C   -0.335272
     6  C    0.328223
     7  O   -0.443723
     8  C    0.298077
     9  O   -0.351738
    10  H    0.115954
    11  H    0.117708
    12  H    0.117766
    13  H    0.099505
    14  H    0.119201
    15  H    0.085228
    16  H    0.116606
    17  H    0.120633
    18  H    0.136141
    19  H    0.302465
 Sum of Mulliken charges =   0.00000

 Dipole moment (field-independent basis, Debye):
    X=             -1.1071    Y=             -2.1607    Z=             -0.4901  Tot=              2.4768
 Quadrupole moment (field-independent basis, Debye-Ang):
   XX=            -54.8868   YY=            -57.4955   ZZ=            -50.6260
   XY=             -0.6585   XZ=             -0.5080   YZ=             -2.5194

  Exact polarizability:  88.101  -0.868  80.800  -1.277  -1.676  62.867
 Approx polarizability: 115.825   3.415 133.679  -3.234   0.733  98.360

                      1                      2                      3
                      A                      A                      A
 Frequencies --     76.3664                97.2169               141.3717
 Red. masses --      3.6599                 2.4869                 3.9258
 Frc consts  --      0.0126                 0.0138                 0.0462
 IR Inten    --      0.8844                 2.8842                 4.0179

                      4                      5                      6
                      A                      A                      A
 Frequencies --    184.3022               238.4329               285.3315
 Red. masses --      1.7946                 1.8627                 2.1340
 Frc consts  --      0.0359                 0.0624                 0.1024
 IR Inten    --      7.5742                10.3426                 2.8556

                      7                      8                      9
                      A                      A                      A
 Frequencies --    331.9994               365.1586               404.1628
 Red. masses --      2.5555                 3.3216                 1.3636
 Frc consts  --      0.1660                 0.2610                 0.1312
 IR Inten    --      8.4467                 5.5914                63.9287

                     10                     11                     12
                      A                      A                      A
 Frequencies --    462.5153               525.7442               567.9631
 Red. masses --      2.6387                 4.6361                 4.1369
 Frc consts  --      0.3326                 0.7550                 0.7863
 IR Inten    --      3.8754                 2.2222                 4.8400

                     13                     14                     15
                      A                      A                      A
 Frequencies --    691.4072               725.3182               771.2646
 Red. masses --      6.0964                 2.9590                 1.6815
 Frc consts  --      1.7171                 0.9172                 0.5893
 IR Inten    --     17.3483                 3.6641                 1.6032

                     16                     17                     18
                      A                      A                      A
 Frequencies --    822.6751               842.6234               914.0420
 Red. masses --      3.5031                 1.5385                 1.5913
 Frc consts  --      1.3969                 0.6436                 0.7833
 IR Inten    --     30.3739                 5.5258                 5.4550

                     19                     20                     21
                      A                      A                      A
 Frequencies --    934.3644               942.5347               998.7497
 Red. masses --      1.9629                 2.4029                 1.5433
 Frc consts  --      1.0097                 1.2577                 0.9070
 IR Inten    --     27.8161                 3.4583                 1.9138

                     22                     23                     24
                      A                      A                      A
 Frequencies --   1018.2838              1043.8156              1076.0198
 Red. masses --      1.5319                 3.0001                 1.9388
 Frc consts  --      0.9359                 1.9259                 1.3226
 IR Inten    --      3.3875                33.4791                 6.3005

                     25                     26                     27
                      A                      A                      A
 Frequencies --   1116.8537              1118.9935              1161.3808
 Red. masses --      1.3775                 1.5164                 2.2323
 Frc consts  --      1.0124                 1.1187                 1.7740
 IR Inten    --      1.4675                 4.9480                33.6752

                     28                     29                     30
                      A                      A                      A
 Frequencies --   1202.0925              1215.7051              1258.8399
 Red. masses --      1.8097                 1.6063                 1.5445
 Frc consts  --      1.5408                 1.3987                 1.4421
 IR Inten    --     32.3403                47.4931                 0.4251

                     31                     32                     33
                      A                      A                      A
 Frequencies --   1287.7401              1340.4994              1381.8021
 Red. masses --      1.4176                 1.3915                 2.1146
 Frc consts  --      1.3850                 1.4732                 2.3789
 IR Inten    --      0.3512                 2.6583                57.6243

                     34                     35                     36
                      A                      A                      A
 Frequencies --   1389.8010              1413.5446              1422.0747
 Red. masses --      1.9659                 1.2508                 1.7738
 Frc consts  --      2.2373                 1.4725                 2.1135
 IR Inten    --     92.2747                 1.9041                 0.2996

                     37                     38                     39
                      A                      A                      A
 Frequencies --   1484.3252              1497.2765              1499.4022
 Red. masses --      1.0649                 1.4188                 1.0479
 Frc consts  --      1.3823                 1.8741                 1.3880
 IR Inten    --      1.3224                 9.3402                 7.5937

                     40                     41                     42
                      A                      A                      A
 Frequencies --   1505.7637              1826.0088              3021.4368
 Red. masses --      1.0673                12.7488                 1.0791
 Frc consts  --      1.4258                25.0453                 5.8041
 IR Inten    --      3.6529               325.3423                 9.5277

                     43                     44                     45
                      A                      A                      A
 Frequencies --   3031.3544              3034.5601              3069.7190
 Red. masses --      1.0442                 1.0577                 1.0986
 Frc consts  --      5.6532                 5.7387                 6.0995
 IR Inten    --     13.2497                44.2853                 4.7778

                     46                     47                     48
                      A                      A                      A
 Frequencies --   3099.7896              3101.0546              3104.9042
 Red. masses --      1.0577                 1.1021                 1.1010
 Frc consts  --      5.9881                 6.2446                 6.2537
 IR Inten    --     21.1641                44.2778                32.3636

                     49                     50                     51
                      A                      A                      A
 Frequencies --   3192.4951              3213.7981              3761.0502
 Red. masses --      1.1117                 1.0937                 1.0653
 Frc consts  --      6.6757                 6.6556                 8.8789
 IR Inten    --      3.6705                 2.3825                38.4668

 - Thermochemistry -
 -------------------
 Temperature   298.150 Kelvin.  Pressure   1.00000 Atm.
 Atom     1 has atomic number  6 and mass  12.00000

 Molecular mass:   126.06808 amu.
 Principal axes and moments of inertia in atomic units:
                           1         2         3
     Eigenvalues --   632.768521496.389191871.61342
           X            0.99996  -0.00458   0.00802
           Y            0.00481   0.99956  -0.02941
           Z           -0.00788   0.02945   0.99954
 This molecule is an asymmetric top.
 Rotational symmetry number  1.
 Warning -- assumption of classical behavior for rotation
           may cause significant error
 Rotational temperatures (Kelvin)      0.13688     0.05788     0.04628
 Rotational constants (GHZ):           2.85213     1.20606     0.96427
 Zero-point vibrational energy     413991.2 (Joules/Mol)
                                   98.94628 (Kcal/Mol)
 Warning -- explicit consideration of  12 degrees of freedom as
           vibrations may cause significant error
 Vibrational temperatures:    109.87   139.87   203.40   265.17   343.05
          (Kelvin)            410.53   477.67   525.38   581.50   665.46
                              756.43   817.17   994.78  1043.57  1109.68
                             1183.64  1212.35  1315.10  1344.34  1356.10
                             1436.98  1465.08  1501.82  1548.15  1606.90
                             1609.98  1670.97  1729.54  1749.13  1811.19
                             1852.77  1928.68  1988.10  1999.61  2033.77
                             2046.05  2135.61  2154.24  2157.30  2166.46
                             2627.22  4347.17  4361.44  4366.05  4416.64
                             4459.90  4461.72  4467.26  4593.28  4623.93
                             5411.31

 Zero-point correction=                           0.157681 (Hartree/Particle)
 Thermal correction to Energy=                    0.166793
 Thermal correction to Enthalpy=                  0.167737
 Thermal correction to Gibbs Free Energy=         0.123668
 Sum of electronic and zero-point Energies=           -423.019836
 Sum of electronic and thermal Energies=              -423.010724
 Sum of electronic and thermal Enthalpies=            -423.009780
 Sum of electronic and thermal Free Energies=         -423.053849

                     E (Thermal)             CV                S
                      KCal/Mol        Cal/Mol-Kelvin    Cal/Mol-Kelvin
 Total                  104.664             34.012             92.751
 Electronic               0.000              0.000              0.000
 Translational            0.889              2.981             40.409
 Rotational               0.889              2.981             28.962
 Vibrational            102.887             28.050             23.380
 Vibration     1          0.599              1.965              3.982
 Vibration     2          0.603              1.951              3.509
 Vibration     3          0.615              1.912              2.785
 Vibration     4          0.631              1.861              2.284
 Vibration     5          0.656              1.782              1.815
 Vibration     6          0.683              1.701              1.502
 Vibration     7          0.714              1.612              1.250
 Vibration     8          0.738              1.544              1.100
 Vibration     9          0.769              1.461              0.947
 Vibration    10          0.820              1.333              0.759
 Vibration    11          0.881              1.193              0.597
 Vibration    12          0.924              1.101              0.508

 Normal termination of Gaussian 09 at Tue Jan 28 14:51:26 2020.
