 Gaussian 09, Revision D.01,
 Gaussian 09:  ES64L-G09RevD.01 24-Apr-2013

 -----------------------------
 # b3lyp 6-31G(2df,p) opt Freq
 -----------------------------

 -----
 titel
 -----
 Symbolic Z-matrix:
 Charge =  0 Multiplicity = 1

 SCF Done:  E(RB3LYP) =  -423.212097499     A.U. after   14 cycles
 Optimization completed.
    -- Stationary point found.
 Normal termination of Gaussian 09 at Mon Jan 27 23:05:34 2020.

 ----------------------------------------------------------------------
 #N Geom=AllCheck Guess=TCheck SCRF=Check GenChk RB3LYP/6-31G(2df,p) Fr
 eq
 ----------------------------------------------------------------------

 Structure from the checkpoint file:  "/scratch/puck/g09_984db016-7353-408f-8bf1-2f4ca83c6037/Gau-185883.chk"
 -----
 titel
 -----
 Charge =  0 Multiplicity = 1

                         Standard orientation:
 ---------------------------------------------------------------------
 Center     Atomic      Atomic             Coordinates (Angstroms)
 Number     Number       Type             X           Y           Z
 ---------------------------------------------------------------------
      1          6           0       -1.868883   -1.441211   -0.715302
      2          6           0       -1.044248   -0.696977    0.346097
      3          6           0        0.427580   -1.044398    0.339419
      4          8           0        1.180179   -0.304748    1.310761
      5          6           0        1.254690    0.112272   -0.065228
      6          6           0        2.602481    0.007328   -0.722886
      7          6           0        0.349330    1.300019   -0.322593
      8          6           0       -1.056818    0.824597    0.080083
      9          8           0       -2.035048    1.520949    0.138374
     10          1           0       -1.446642   -1.306754   -1.717183
     11          1           0       -1.898208   -2.514341   -0.503934
     12          1           0       -2.893036   -1.060767   -0.725032
     13          1           0       -1.481197   -0.872553    1.335518
     14          1           0        0.752876   -2.070403    0.177660
     15          1           0        3.249104    0.836876   -0.416834
     16          1           0        3.093481   -0.927903   -0.442077
     17          1           0        2.507953    0.041086   -1.813434
     18          1           0        0.630754    2.185298    0.255463
     19          1           0        0.339075    1.590080   -1.380761
 ---------------------------------------------------------------------

 SCF Done:  E(RB3LYP) =  -423.212097499     A.U. after    1 cycles

 The electronic state is 1-A.
 Alpha  occ. eigenvalues --  -19.15344 -19.13371 -10.27180 -10.24938 -10.23942
 Alpha  occ. eigenvalues --  -10.20056 -10.19641 -10.19181 -10.19098  -1.07773
 Alpha  occ. eigenvalues --   -1.04439  -0.81438  -0.77645  -0.72858  -0.67414
 Alpha  occ. eigenvalues --   -0.62329  -0.57323  -0.53927  -0.49423  -0.47206
 Alpha  occ. eigenvalues --   -0.46174  -0.44444  -0.43570  -0.42079  -0.41289
 Alpha  occ. eigenvalues --   -0.40166  -0.39084  -0.38260  -0.36216  -0.35410
 Alpha  occ. eigenvalues --   -0.35127  -0.29266  -0.27126  -0.24363
 Alpha virt. eigenvalues --   -0.01955   0.08385   0.09038   0.10724   0.11769
 Alpha virt. eigenvalues --    0.12656   0.14011   0.14802   0.16174   0.16732
 Alpha virt. eigenvalues --    0.17513   0.17792   0.18731   0.19494   0.21259

 Mulliken charges:
               1
     1  C   -0.410527
     2  C   -0.126745
     3  C   -0.022144
     4  O   -0.303802
     5  C    0.403054
     6  C   -0.483780
     7  C   -0.393278
     8  C    0.394423
     9  O   -0.311448
    10  H    0.118372
    11  H    0.122884
    12  H    0.145327
    13  H    0.116273
    14  H    0.093330
    15  H    0.132076
    16  H    0.132302
    17  H    0.123265
    18  H    0.141194
    19  H    0.129224
 Sum of Mulliken charges =   0.00000

 Dipole moment (field-independent basis, Debye):
    X=              1.6065    Y=             -1.6840    Z=             -1.9424  Tot=              3.0314
 Quadrupole moment (field-independent basis, Debye-Ang):
   XX=            -56.7228   YY=            -52.8443   ZZ=            -54.4893
   XY=              5.9362   XZ=             -2.4604   YZ=             -0.3507

  Exact polarizability:  85.453   2.827  77.314  -2.786  -1.594  62.031
 Approx polarizability: 114.934  -0.367 113.447  -2.039  -2.861 100.251

                      1                      2                      3
                      A                      A                      A
 Frequencies --     56.5594               135.7696               196.0820
 Red. masses --      3.6527                 2.8253                 1.0579
 Frc consts  --      0.0069                 0.0307                 0.0240
 IR Inten    --      5.3691                 0.4994                 0.1450

                      4                      5                      6
                      A                      A                      A
 Frequencies --    223.8043               238.0522               275.9173
 Red. masses --      1.4995                 1.5529                 2.8611
 Frc consts  --      0.0443                 0.0518                 0.1283
 IR Inten    --      0.5293                 0.6264                 0.7214

                      7                      8                      9
                      A                      A                      A
 Frequencies --    336.1920               374.5119               458.8261
 Red. masses --      3.2718                 2.2635                 5.5366
 Frc consts  --      0.2179                 0.1871                 0.6867
 IR Inten    --      2.1228                 5.8813                 5.1181

                     10                     11                     12
                      A                      A                      A
 Frequencies --    476.1084               545.1968               606.1563
 Red. masses --      3.9956                 3.6693                 3.1582
 Frc consts  --      0.5336                 0.6426                 0.6837
 IR Inten    --     10.1737                 5.8404                 3.2582

                     13                     14                     15
                      A                      A                      A
 Frequencies --    646.6814               738.3951               748.8473
 Red. masses --      4.2655                 3.3866                 4.2081
 Frc consts  --      1.0510                 1.0879                 1.3903
 IR Inten    --      3.6371                 6.5159                 4.5446

                     16                     17                     18
                      A                      A                      A
 Frequencies --    839.2971               893.6321               923.9775
 Red. masses --      3.3475                 2.0751                 1.6679
 Frc consts  --      1.3893                 0.9764                 0.8390
 IR Inten    --     19.3414                 1.4996                15.4432

                     19                     20                     21
                      A                      A                      A
 Frequencies --    938.0968               998.4593              1021.9717
 Red. masses --      2.1497                 1.4634                 1.8133
 Frc consts  --      1.1146                 0.8595                 1.1159
 IR Inten    --      5.7473                 2.6726                 2.7238

                     22                     23                     24
                      A                      A                      A
 Frequencies --   1035.0292              1058.8291              1114.1879
 Red. masses --      1.7144                 1.8845                 2.2632
 Frc consts  --      1.0821                 1.2448                 1.6554
 IR Inten    --     15.3581                 8.2040                 7.7398

                     25                     26                     27
                      A                      A                      A
 Frequencies --   1144.3737              1159.6205              1198.1946
 Red. masses --      1.8773                 2.5321                 1.4919
 Frc consts  --      1.4485                 2.0061                 1.2620
 IR Inten    --      5.3473                50.9232                 1.6785

                     28                     29                     30
                      A                      A                      A
 Frequencies --   1213.4337              1272.4471              1289.3683
 Red. masses --      1.6006                 1.4872                 1.5045
 Frc consts  --      1.3886                 1.4187                 1.4736
 IR Inten    --      4.7441                 3.9667                17.6321

                     31                     32                     33
                      A                      A                      A
 Frequencies --   1317.6549              1330.2622              1401.7733
 Red. masses --      2.7574                 1.7579                 1.2515
 Frc consts  --      2.8206                 1.8328                 1.4489
 IR Inten    --     15.3598                10.5171                 1.9248

                     34                     35                     36
                      A                      A                      A
 Frequencies --   1411.8204              1432.8014              1456.2145
 Red. masses --      1.2976                 1.3596                 1.8498
 Frc consts  --      1.5239                 1.6445                 2.3112
 IR Inten    --      5.5128                14.2484                 4.9288

                     37                     38                     39
                      A                      A                      A
 Frequencies --   1485.4629              1495.7525              1498.9176
 Red. masses --      1.1167                 1.1326                 1.0506
 Frc consts  --      1.4518                 1.4929                 1.3907
 IR Inten    --      7.6635                 1.8037                 6.7673

                     40                     41                     42
                      A                      A                      A
 Frequencies --   1500.6343              1848.6935              3034.9349
 Red. masses --      1.0532                12.7322                 1.0380
 Frc consts  --      1.3974                25.6380                 5.6328
 IR Inten    --      4.3993               193.9936                17.3224

                     43                     44                     45
                      A                      A                      A
 Frequencies --   3036.9013              3042.2794              3052.8224
 Red. masses --      1.0371                 1.0611                 1.0822
 Frc consts  --      5.6354                 5.7865                 5.9422
 IR Inten    --     18.7572                11.1120                 8.1421

                     46                     47                     48
                      A                      A                      A
 Frequencies --   3094.4268              3098.9141              3104.3101
 Red. masses --      1.0981                 1.1004                 1.1010
 Frc consts  --      6.1954                 6.2261                 6.2514
 IR Inten    --      1.1742                18.9303                23.6030

                     49                     50                     51
                      A                      A                      A
 Frequencies --   3121.8595              3127.9268              3131.6822
 Red. masses --      1.1013                 1.1010                 1.0909
 Frc consts  --      6.3239                 6.3466                 6.3038
 IR Inten    --     12.5456                 7.2528                29.7389

 - Thermochemistry -
 -------------------
 Temperature   298.150 Kelvin.  Pressure   1.00000 Atm.
 Atom     1 has atomic number  6 and mass  12.00000

 Molecular mass:   126.06808 amu.
 Principal axes and moments of inertia in atomic units:
                           1         2         3
     Eigenvalues --   673.839981288.908371567.33176
           X            0.99776   0.06511  -0.01527
           Y           -0.06490   0.99780   0.01377
           Z            0.01613  -0.01275   0.99979
 This molecule is an asymmetric top.
 Rotational symmetry number  1.
 Warning -- assumption of classical behavior for rotation
           may cause significant error
 Rotational temperatures (Kelvin)      0.12854     0.06720     0.05526
 Rotational constants (GHZ):           2.67829     1.40021     1.15147
 Zero-point vibrational energy     413812.6 (Joules/Mol)
                                   98.90358 (Kcal/Mol)
 Warning -- explicit consideration of  12 degrees of freedom as
           vibrations may cause significant error
 Vibrational temperatures:     81.38   195.34   282.12   322.00   342.50
          (Kelvin)            396.98   483.70   538.84   660.15   685.01
                              784.42   872.12   930.43  1062.38  1077.42
                             1207.56  1285.74  1329.40  1349.71  1436.56
                             1470.39  1489.17  1523.42  1603.07  1646.50
                             1668.43  1723.93  1745.86  1830.77  1855.11
                             1895.81  1913.95  2016.84  2031.29  2061.48
                             2095.17  2137.25  2152.05  2156.61  2159.08
                             2659.85  4366.59  4369.42  4377.16  4392.33
                             4452.18  4458.64  4466.40  4491.65  4500.38
                             4505.79

 Zero-point correction=                           0.157613 (Hartree/Particle)
 Thermal correction to Energy=                    0.166411
 Thermal correction to Enthalpy=                  0.167355
 Thermal correction to Gibbs Free Energy=         0.124092
 Sum of electronic and zero-point Energies=           -423.054485
 Sum of electronic and thermal Energies=              -423.045687
 Sum of electronic and thermal Enthalpies=            -423.044743
 Sum of electronic and thermal Free Energies=         -423.088005

                     E (Thermal)             CV                S
                      KCal/Mol        Cal/Mol-Kelvin    Cal/Mol-Kelvin
 Total                  104.424             33.234             91.054
 Electronic               0.000              0.000              0.000
 Translational            0.889              2.981             40.409
 Rotational               0.889              2.981             28.700
 Vibrational            102.647             27.272             21.945
 Vibration     1          0.596              1.975              4.574
 Vibration     2          0.614              1.918              2.863
 Vibration     3          0.636              1.845              2.170
 Vibration     4          0.649              1.805              1.928
 Vibration     5          0.656              1.782              1.817
 Vibration     6          0.678              1.718              1.559
 Vibration     7          0.717              1.603              1.230
 Vibration     8          0.746              1.524              1.061
 Vibration     9          0.817              1.341              0.770
 Vibration    10          0.833              1.303              0.721
 Vibration    11          0.900              1.150              0.554
 Vibration    12          0.965              1.019              0.439

 Optimization completed.
    -- Stationary point found.
 Normal termination of Gaussian 09 at Mon Jan 27 23:51:58 2020.
