 Gaussian 09, Revision D.01,
 Gaussian 09:  ES64L-G09RevD.01 24-Apr-2013

 -----------------------------
 # b3lyp 6-31G(2df,p) opt Freq
 -----------------------------

 -----
 titel
 -----
 Symbolic Z-matrix:
 Charge =  0 Multiplicity = 1

 SCF Done:  E(RB3LYP) =  -423.192980582     A.U. after   14 cycles
 Optimization completed.
    -- Stationary point found.
 Normal termination of Gaussian 09 at Mon Jan 27 23:07:46 2020.

 ----------------------------------------------------------------------
 #N Geom=AllCheck Guess=TCheck SCRF=Check GenChk RB3LYP/6-31G(2df,p) Fr
 eq
 ----------------------------------------------------------------------

 Structure from the checkpoint file:  "/scratch/puck/g09_66dd0085-bfe4-4d03-9899-b3159cc20da1/Gau-49718.chk"
 -----
 titel
 -----
 Charge =  0 Multiplicity = 1

                         Standard orientation:
 ---------------------------------------------------------------------
 Center     Atomic      Atomic             Coordinates (Angstroms)
 Number     Number       Type             X           Y           Z
 ---------------------------------------------------------------------
      1          8           0       -0.463994    1.884268   -0.508464
      2          6           0        0.222791    1.035007    0.406179
      3          6           0        1.585692    0.638216   -0.128107
      4          6           0        2.336755   -0.474091    0.561597
      5          6           0        1.502254   -0.784292   -0.653587
      6          6           0        0.092973   -1.303799   -0.408237
      7          6           0       -0.520615   -0.326512    0.617345
      8          6           0       -2.017252   -0.136898    0.502418
      9          8           0       -2.715607   -0.670735   -0.321307
     10          1           0       -0.428694    1.474247   -1.380471
     11          1           0        0.271204    1.612847    1.334126
     12          1           0        2.148341    1.413373   -0.636636
     13          1           0        3.414208   -0.475760    0.438974
     14          1           0        2.008696   -0.818441    1.537524
     15          1           0        2.011473   -1.075257   -1.565517
     16          1           0       -0.497400   -1.282945   -1.330396
     17          1           0        0.072614   -2.336516   -0.046745
     18          1           0       -0.328514   -0.661644    1.645094
     19          1           0       -2.450712    0.556042    1.256560
 ---------------------------------------------------------------------

 SCF Done:  E(RB3LYP) =  -423.192980582     A.U. after    1 cycles

 The electronic state is 1-A.
 Alpha  occ. eigenvalues --  -19.14433 -19.13829 -10.26978 -10.24574 -10.19890
 Alpha  occ. eigenvalues --  -10.19809 -10.19623 -10.19410 -10.18888  -1.04579
 Alpha  occ. eigenvalues --   -1.02670  -0.88652  -0.78196  -0.71125  -0.66029
 Alpha  occ. eigenvalues --   -0.59483  -0.57802  -0.54933  -0.51807  -0.49392
 Alpha  occ. eigenvalues --   -0.48125  -0.44817  -0.44446  -0.42304  -0.40318
 Alpha  occ. eigenvalues --   -0.39726  -0.37087  -0.36132  -0.34550  -0.33726
 Alpha  occ. eigenvalues --   -0.29948  -0.28535  -0.27323  -0.24939
 Alpha virt. eigenvalues --   -0.01688   0.07292   0.08320   0.09294   0.11307
 Alpha virt. eigenvalues --    0.12700   0.14975   0.15173   0.16066   0.16969
 Alpha virt. eigenvalues --    0.17482   0.19395   0.19650   0.21501   0.22276

 Mulliken charges:
               1
     1  O   -0.427570
     2  C    0.110339
     3  C   -0.057952
     4  C   -0.300583
     5  C   -0.036818
     6  C   -0.238496
     7  C   -0.151147
     8  C    0.154044
     9  O   -0.249088
    10  H    0.286612
    11  H    0.093419
    12  H    0.093357
    13  H    0.115723
    14  H    0.111522
    15  H    0.087709
    16  H    0.119812
    17  H    0.108513
    18  H    0.097914
    19  H    0.082692
 Sum of Mulliken charges =   0.00000

 Dipole moment (field-independent basis, Debye):
    X=              2.6946    Y=             -0.3607    Z=              0.8070  Tot=              2.8359
 Quadrupole moment (field-independent basis, Debye-Ang):
   XX=            -59.1605   YY=            -57.3606   ZZ=            -48.6489
   XY=             -1.3783   XZ=             -3.6641   YZ=             -0.9677

  Exact polarizability:  85.151  -0.701  70.158   1.364   3.471  68.369
 Approx polarizability: 113.263   1.619 106.998   8.443   6.747 110.922

                      1                      2                      3
                      A                      A                      A
 Frequencies --     70.2849               119.5976               203.8993
 Red. masses --      4.7710                 3.5680                 3.2633
 Frc consts  --      0.0139                 0.0301                 0.0799
 IR Inten    --      4.8477                 4.5389                 1.8654

                      4                      5                      6
                      A                      A                      A
 Frequencies --    217.8503               266.6065               336.5303
 Red. masses --      3.3393                 3.3826                 1.1553
 Frc consts  --      0.0934                 0.1417                 0.0771
 IR Inten    --     11.1559                 2.5402                76.6693

                      7                      8                      9
                      A                      A                      A
 Frequencies --    342.0242               435.1246               480.5017
 Red. masses --      2.2379                 4.1796                 3.1343
 Frc consts  --      0.1542                 0.4662                 0.4264
 IR Inten    --      6.2020                12.7490                 1.3693

                     10                     11                     12
                      A                      A                      A
 Frequencies --    617.0645               663.3644               714.4647
 Red. masses --      2.6306                 3.6051                 3.8604
 Frc consts  --      0.5902                 0.9347                 1.1610
 IR Inten    --      0.8181                13.9895                19.7597

                     13                     14                     15
                      A                      A                      A
 Frequencies --    797.2706               812.2311               830.1916
 Red. masses --      2.9098                 2.3792                 1.7092
 Frc consts  --      1.0897                 0.9248                 0.6940
 IR Inten    --      6.7832                 7.2197                 8.4232

                     16                     17                     18
                      A                      A                      A
 Frequencies --    873.8700               914.0999               938.0743
 Red. masses --      1.8170                 2.0326                 1.5969
 Frc consts  --      0.8175                 1.0007                 0.8280
 IR Inten    --      1.4466                 8.5174                14.9127

                     19                     20                     21
                      A                      A                      A
 Frequencies --    971.2022              1011.1732              1031.9588
 Red. masses --      1.7737                 2.5977                 2.0831
 Frc consts  --      0.9857                 1.5649                 1.3070
 IR Inten    --      4.0745                 1.6376                18.9076

                     22                     23                     24
                      A                      A                      A
 Frequencies --   1050.9570              1070.1449              1078.2609
 Red. masses --      1.9133                 1.6038                 1.3974
 Frc consts  --      1.2451                 1.0821                 0.9573
 IR Inten    --     21.2733                 8.1445                16.4927

                     25                     26                     27
                      A                      A                      A
 Frequencies --   1105.5921              1116.4564              1145.8091
 Red. masses --      1.5020                 1.3850                 2.2480
 Frc consts  --      1.0817                 1.0172                 1.7389
 IR Inten    --     12.0732                 2.0883                36.6672

                     28                     29                     30
                      A                      A                      A
 Frequencies --   1182.3479              1201.0855              1233.8983
 Red. masses --      1.3999                 1.6242                 1.2969
 Frc consts  --      1.1530                 1.3805                 1.1633
 IR Inten    --      4.8165                 3.7495                24.1492

                     31                     32                     33
                      A                      A                      A
 Frequencies --   1271.8695              1300.4060              1309.2735
 Red. masses --      1.4213                 1.5563                 1.4300
 Frc consts  --      1.3547                 1.5506                 1.4443
 IR Inten    --     12.2544                 0.9023                 8.7509

                     34                     35                     36
                      A                      A                      A
 Frequencies --   1336.3146              1359.9456              1386.4493
 Red. masses --      1.7002                 1.8764                 1.7837
 Frc consts  --      1.7888                 2.0447                 2.0201
 IR Inten    --      2.0596                10.7437                 7.6327

                     37                     38                     39
                      A                      A                      A
 Frequencies --   1425.9286              1433.6834              1492.8711
 Red. masses --      1.2217                 1.2374                 1.1990
 Frc consts  --      1.4636                 1.4985                 1.5744
 IR Inten    --     19.9845                45.2740                 6.3543

                     40                     41                     42
                      A                      A                      A
 Frequencies --   1503.6296              1826.6255              2890.8939
 Red. masses --      1.1198                10.3837                 1.0835
 Frc consts  --      1.4916                20.4128                 5.3353
 IR Inten    --      1.0774               153.2677               112.6837

                     43                     44                     45
                      A                      A                      A
 Frequencies --   3024.9811              3050.9579              3068.4364
 Red. masses --      1.0825                 1.0594                 1.0863
 Frc consts  --      5.8363                 5.8103                 6.0261
 IR Inten    --      7.8626                23.2840                35.0096

                     46                     47                     48
                      A                      A                      A
 Frequencies --   3088.0294              3128.6579              3168.3700
 Red. masses --      1.1040                 1.0551                 1.0883
 Frc consts  --      6.2029                 6.0848                 6.4370
 IR Inten    --     18.1643                15.3120                13.4589

                     49                     50                     51
                      A                      A                      A
 Frequencies --   3176.2893              3211.9700              3798.5745
 Red. masses --      1.0945                 1.1141                 1.0659
 Frc consts  --      6.5057                 6.7722                 9.0613
 IR Inten    --     10.5258                14.2524                16.1163

 - Thermochemistry -
 -------------------
 Temperature   298.150 Kelvin.  Pressure   1.00000 Atm.
 Atom     1 has atomic number  8 and mass  15.99491

 Molecular mass:   126.06808 amu.
 Principal axes and moments of inertia in atomic units:
                           1         2         3
     Eigenvalues --   614.824471320.100691636.96688
           X            0.99984  -0.01668  -0.00660
           Y            0.01675   0.99981   0.00963
           Z            0.00644  -0.00974   0.99993
 This molecule is an asymmetric top.
 Rotational symmetry number  1.
 Warning -- assumption of classical behavior for rotation
           may cause significant error
 Rotational temperatures (Kelvin)      0.14088     0.06561     0.05291
 Rotational constants (GHZ):           2.93538     1.36712     1.10249
 Zero-point vibrational energy     419207.9 (Joules/Mol)
                                  100.19310 (Kcal/Mol)
 Warning -- explicit consideration of  10 degrees of freedom as
           vibrations may cause significant error
 Vibrational temperatures:    101.12   172.07   293.37   313.44   383.59
          (Kelvin)            484.19   492.10   626.05   691.33   887.82
                              954.43  1027.95  1147.09  1168.62  1194.46
                             1257.30  1315.18  1349.68  1397.34  1454.85
                             1484.76  1512.09  1539.70  1551.37  1590.70
                             1606.33  1648.56  1701.13  1728.09  1775.30
                             1829.93  1870.99  1883.75  1922.66  1956.66
                             1994.79  2051.59  2062.75  2147.91  2163.38
                             2628.10  4159.35  4352.27  4389.64  4414.79
                             4442.98  4501.44  4558.57  4569.97  4621.30
                             5465.29

 Zero-point correction=                           0.159668 (Hartree/Particle)
 Thermal correction to Energy=                    0.167970
 Thermal correction to Enthalpy=                  0.168915
 Thermal correction to Gibbs Free Energy=         0.126598
 Sum of electronic and zero-point Energies=           -423.033313
 Sum of electronic and thermal Energies=              -423.025010
 Sum of electronic and thermal Enthalpies=            -423.024066
 Sum of electronic and thermal Free Energies=         -423.066383

                     E (Thermal)             CV                S
                      KCal/Mol        Cal/Mol-Kelvin    Cal/Mol-Kelvin
 Total                  105.403             31.802             89.063
 Electronic               0.000              0.000              0.000
 Translational            0.889              2.981             40.409
 Rotational               0.889              2.981             28.676
 Vibrational            103.626             25.841             19.978
 Vibration     1          0.598              1.968              4.145
 Vibration     2          0.609              1.933              3.107
 Vibration     3          0.640              1.834              2.098
 Vibration     4          0.646              1.814              1.977
 Vibration     5          0.672              1.734              1.618
 Vibration     6          0.717              1.603              1.229
 Vibration     7          0.721              1.591              1.203
 Vibration     8          0.796              1.394              0.842
 Vibration     9          0.837              1.293              0.709
 Vibration    10          0.977              0.996              0.421

 Normal termination of Gaussian 09 at Mon Jan 27 23:57:43 2020.
