 Gaussian 09, Revision D.01,
 Gaussian 09:  ES64L-G09RevD.01 24-Apr-2013

 -----------------------------
 # b3lyp 6-31G(2df,p) opt Freq
 -----------------------------

 -----
 titel
 -----
 Symbolic Z-matrix:
 Charge =  0 Multiplicity = 1

 SCF Done:  E(RB3LYP) =  -423.152049093     A.U. after   12 cycles
 Optimization completed.
    -- Stationary point found.
 Normal termination of Gaussian 09 at Mon Jan 27 12:17:35 2020.

 ----------------------------------------------------------------------
 #N Geom=AllCheck Guess=TCheck SCRF=Check GenChk RB3LYP/6-31G(2df,p) Fr
 eq
 ----------------------------------------------------------------------

 Structure from the checkpoint file:  "/scratch/puck/g09_96428daf-3efd-4442-a045-1b0bdd1567c9/Gau-35302.chk"
 -----
 titel
 -----
 Charge =  0 Multiplicity = 1

                         Standard orientation:
 ---------------------------------------------------------------------
 Center     Atomic      Atomic             Coordinates (Angstroms)
 Number     Number       Type             X           Y           Z
 ---------------------------------------------------------------------
      1          6           0       -1.272008   -1.115605   -0.787284
      2          6           0       -1.272007   -1.115604    0.787287
      3          6           0       -0.197105    0.002365    0.761524
      4          6           0       -0.626056    1.497831    0.787398
      5          6           0       -0.626077    1.497831   -0.787388
      6          6           0       -0.197111    0.002368   -0.761524
      7          8           0        1.109198   -0.354000   -1.155090
      8          6           0        1.916692   -0.147986   -0.000004
      9          8           0        1.109205   -0.354014    1.155080
     10          1           0       -0.902547   -2.038617   -1.236255
     11          1           0       -2.219174   -0.843546   -1.258443
     12          1           0       -2.219171   -0.843541    1.258448
     13          1           0       -0.902548   -2.038617    1.236257
     14          1           0       -1.588199    1.702234    1.263108
     15          1           0        0.128952    2.148208    1.234898
     16          1           0       -1.588238    1.702218   -1.263069
     17          1           0        0.128907    2.148219   -1.234913
     18          1           0        2.732199   -0.876487   -0.000010
     19          1           0        2.324618    0.876832    0.000001
 ---------------------------------------------------------------------

 SCF Done:  E(RB3LYP) =  -423.152049093     A.U. after    1 cycles

 The electronic state is 1-A.
 Alpha  occ. eigenvalues --  -19.14850 -19.14850 -10.27509 -10.22452 -10.22429
 Alpha  occ. eigenvalues --  -10.18676 -10.18660 -10.18640 -10.18624  -1.08615
 Alpha  occ. eigenvalues --   -0.99517  -0.86416  -0.76119  -0.68503  -0.67118
 Alpha  occ. eigenvalues --   -0.60853  -0.60314  -0.53928  -0.51033  -0.48735
 Alpha  occ. eigenvalues --   -0.47712  -0.44886  -0.42213  -0.41397  -0.40747
 Alpha  occ. eigenvalues --   -0.38669  -0.36452  -0.35756  -0.33973  -0.33903
 Alpha  occ. eigenvalues --   -0.32133  -0.26130  -0.25346  -0.25013
 Alpha virt. eigenvalues --    0.07690   0.08023   0.08629   0.11948   0.12780
 Alpha virt. eigenvalues --    0.13203   0.15035   0.15527   0.16580   0.17165
 Alpha virt. eigenvalues --    0.18021   0.19396   0.19694   0.21299   0.23503

 Mulliken charges:
               1
     1  C   -0.293440
     2  C   -0.293440
     3  C    0.369835
     4  C   -0.301829
     5  C   -0.301829
     6  C    0.369835
     7  O   -0.308264
     8  C   -0.011973
     9  O   -0.308263
    10  H    0.117019
    11  H    0.101385
    12  H    0.101385
    13  H    0.117020
    14  H    0.102880
    15  H    0.111836
    16  H    0.102881
    17  H    0.111836
    18  H    0.122304
    19  H    0.090823
 Sum of Mulliken charges =   0.00000

 Dipole moment (field-independent basis, Debye):
    X=             -0.8791    Y=              0.6888    Z=              0.0000  Tot=              1.1168
 Quadrupole moment (field-independent basis, Debye-Ang):
   XX=            -49.9115   YY=            -51.7746   ZZ=            -57.3411
   XY=              0.6983   XZ=              0.0000   YZ=              0.0000

  Exact polarizability:  79.881   0.477  73.944   0.000   0.000  65.314
 Approx polarizability: 111.681  -1.171 102.550   0.000   0.000 101.023

                      1                      2                      3
                      A                      A                      A
 Frequencies --     91.3542               186.8729               265.1329
 Red. masses --      2.2036                 2.2073                 1.6310
 Frc consts  --      0.0108                 0.0454                 0.0675
 IR Inten    --      0.3738                 3.0761                 0.0128

                      4                      5                      6
                      A                      A                      A
 Frequencies --    321.4158               332.5141               401.0544
 Red. masses --      2.6144                 3.5915                 4.0077
 Frc consts  --      0.1591                 0.2340                 0.3798
 IR Inten    --      0.0292                 1.8542                12.4800

                      7                      8                      9
                      A                      A                      A
 Frequencies --    530.7933               651.7007               660.2348
 Red. masses --      3.9271                 4.1773                 3.1992
 Frc consts  --      0.6519                 1.0453                 0.8217
 IR Inten    --      6.5488                 1.3511                 0.0451

                     10                     11                     12
                      A                      A                      A
 Frequencies --    666.7286               725.9108               730.2167
 Red. masses --      4.2688                 1.1580                 1.2596
 Frc consts  --      1.1180                 0.3595                 0.3957
 IR Inten    --      4.4760                 0.8027                 0.0355

                     13                     14                     15
                      A                      A                      A
 Frequencies --    750.3070               876.5511               879.5528
 Red. masses --      5.8479                 2.1649                 1.9764
 Frc consts  --      1.9397                 0.9801                 0.9008
 IR Inten    --      2.6785                 9.9345                 3.8146

                     16                     17                     18
                      A                      A                      A
 Frequencies --    898.6139               920.1114               953.0940
 Red. masses --      2.9962                 3.1867                 7.7561
 Frc consts  --      1.4255                 1.5895                 4.1511
 IR Inten    --      0.2125                 1.4625                52.2397

                     19                     20                     21
                      A                      A                      A
 Frequencies --    992.9763              1002.3929              1007.2204
 Red. masses --      1.8900                 5.6849                 1.3504
 Frc consts  --      1.0980                 3.3655                 0.8071
 IR Inten    --      6.3277                18.4701                 2.3205

                     22                     23                     24
                      A                      A                      A
 Frequencies --   1069.4794              1129.4876              1159.2377
 Red. masses --      4.3912                 2.4162                 2.3838
 Frc consts  --      2.9592                 1.8161                 1.8874
 IR Inten    --    134.0030                 4.5914                 0.5810

                     25                     26                     27
                      A                      A                      A
 Frequencies --   1175.5872              1186.4645              1209.6265
 Red. masses --      2.1543                 2.0359                 1.5528
 Frc consts  --      1.7541                 1.6886                 1.3386
 IR Inten    --     16.8500                 0.1347                 3.7883

                     28                     29                     30
                      A                      A                      A
 Frequencies --   1218.2763              1222.8334              1234.5243
 Red. masses --      1.1789                 1.1251                 2.2327
 Frc consts  --      1.0309                 0.9912                 2.0049
 IR Inten    --      0.0144                 0.4540                26.0677

                     31                     32                     33
                      A                      A                      A
 Frequencies --   1246.1018              1253.0357              1277.1461
 Red. masses --      1.2491                 2.0289                 1.8220
 Frc consts  --      1.1427                 1.8768                 1.7510
 IR Inten    --      0.0007                34.0570                 0.1439

                     34                     35                     36
                      A                      A                      A
 Frequencies --   1282.8894              1285.6078              1420.3952
 Red. masses --      2.3692                 1.7907                 1.3014
 Frc consts  --      2.2974                 1.7438                 1.5469
 IR Inten    --     92.2943                 0.3052                 5.6263

                     37                     38                     39
                      A                      A                      A
 Frequencies --   1458.5305              1466.5766              1469.0487
 Red. masses --      1.0821                 1.0829                 1.1115
 Frc consts  --      1.3563                 1.3723                 1.4133
 IR Inten    --      0.0377                 2.0254                 5.7665

                     40                     41                     42
                      A                      A                      A
 Frequencies --   1484.4946              1541.9100              2959.3465
 Red. masses --      1.1259                 1.1008                 1.0698
 Frc consts  --      1.4619                 1.5420                 5.5200
 IR Inten    --      6.5191                 2.5230                91.5892

                     43                     44                     45
                      A                      A                      A
 Frequencies --   3061.4611              3066.7542              3069.3117
 Red. masses --      1.0573                 1.0603                 1.0584
 Frc consts  --      5.8385                 5.8753                 5.8747
 IR Inten    --     24.6989                32.0041                34.1830

                     46                     47                     48
                      A                      A                      A
 Frequencies --   3075.0056              3091.2723              3110.8725
 Red. masses --      1.0607                 1.0958                 1.1090
 Frc consts  --      5.9091                 6.1695                 6.3236
 IR Inten    --     28.0044                45.9470                 0.2750

                     49                     50                     51
                      A                      A                      A
 Frequencies --   3124.7029              3128.6694              3141.3269
 Red. masses --      1.1082                 1.1079                 1.1076
 Frc consts  --      6.3753                 6.3893                 6.4397
 IR Inten    --      0.0149                25.1831                30.3594

 - Thermochemistry -
 -------------------
 Temperature   298.150 Kelvin.  Pressure   1.00000 Atm.
 Atom     1 has atomic number  6 and mass  12.00000

 Molecular mass:   126.06808 amu.
 Principal axes and moments of inertia in atomic units:
                           1         2         3
     Eigenvalues --   761.64139 932.58803 987.74972
           X            0.99901   0.04456   0.00000
           Y           -0.04456   0.99901   0.00000
           Z            0.00000   0.00000   1.00000
 This molecule is an asymmetric top.
 Rotational symmetry number  1.
 Warning -- assumption of classical behavior for rotation
           may cause significant error
 Rotational temperatures (Kelvin)      0.11372     0.09287     0.08769
 Rotational constants (GHZ):           2.36954     1.93520     1.82712
 Zero-point vibrational energy     421472.7 (Joules/Mol)
                                  100.73438 (Kcal/Mol)
 Warning -- explicit consideration of   7 degrees of freedom as
           vibrations may cause significant error
 Vibrational temperatures:    131.44   268.87   381.47   462.45   478.41
          (Kelvin)            577.03   763.69   937.65   949.93   959.27
                             1044.42  1050.62  1079.52  1261.16  1265.48
                             1292.90  1323.83  1371.29  1428.67  1442.22
                             1449.16  1538.74  1625.08  1667.88  1691.41
                             1707.06  1740.38  1752.83  1759.38  1776.20
                             1792.86  1802.84  1837.53  1845.79  1849.70
                             2043.63  2098.50  2110.07  2113.63  2135.85
                             2218.46  4257.83  4404.75  4412.37  4416.05
                             4424.24  4447.65  4475.85  4495.74  4501.45
                             4519.66

 Zero-point correction=                           0.160530 (Hartree/Particle)
 Thermal correction to Energy=                    0.167776
 Thermal correction to Enthalpy=                  0.168720
 Thermal correction to Gibbs Free Energy=         0.129020
 Sum of electronic and zero-point Energies=           -422.991519
 Sum of electronic and thermal Energies=              -422.984273
 Sum of electronic and thermal Enthalpies=            -422.983329
 Sum of electronic and thermal Free Energies=         -423.023029

                     E (Thermal)             CV                S
                      KCal/Mol        Cal/Mol-Kelvin    Cal/Mol-Kelvin
 Total                  105.281             29.332             83.555
 Electronic               0.000              0.000              0.000
 Translational            0.889              2.981             40.409
 Rotational               0.889              2.981             28.041
 Vibrational            103.503             23.371             15.105
 Vibration     1          0.602              1.955              3.631
 Vibration     2          0.632              1.858              2.259
 Vibration     3          0.671              1.737              1.628
 Vibration     4          0.707              1.633              1.303
 Vibration     5          0.714              1.611              1.248
 Vibration     6          0.767              1.468              0.959
 Vibration     7          0.886              1.182              0.585

 Optimization completed.
    -- Stationary point found.
 Normal termination of Gaussian 09 at Mon Jan 27 13:04:57 2020.
