 Gaussian 09, Revision D.01,
 Gaussian 09:  ES64L-G09RevD.01 24-Apr-2013

 -----------------------------
 # b3lyp 6-31G(2df,p) opt Freq
 -----------------------------

 -----
 titel
 -----
 Symbolic Z-matrix:
 Charge =  0 Multiplicity = 1

 SCF Done:  E(RB3LYP) =  -423.203649146     A.U. after   14 cycles
 Optimization completed.
    -- Stationary point found.
 Normal termination of Gaussian 09 at Tue Jan 28 00:05:52 2020.

 ----------------------------------------------------------------------
 #N Geom=AllCheck Guess=TCheck SCRF=Check GenChk RB3LYP/6-31G(2df,p) Fr
 eq
 ----------------------------------------------------------------------

 Structure from the checkpoint file:  "/scratch/puck/g09_160c4c00-5aa7-4a4f-9181-da07289ff23e/Gau-21136.chk"
 -----
 titel
 -----
 Charge =  0 Multiplicity = 1

                         Standard orientation:
 ---------------------------------------------------------------------
 Center     Atomic      Atomic             Coordinates (Angstroms)
 Number     Number       Type             X           Y           Z
 ---------------------------------------------------------------------
      1          6           0       -2.438866   -1.057355    0.044792
      2          6           0       -1.064048   -0.540501   -0.375441
      3          6           0        0.155255   -0.887506    0.547035
      4          8           0        1.306292   -1.386758   -0.104272
      5          6           0        2.000147   -0.290438   -0.694136
      6          6           0        1.799716    0.899238    0.260843
      7          6           0        0.400444    0.631057    0.842647
      8          6           0       -0.799365    0.946506   -0.071055
      9          8           0       -1.348622    1.963543   -0.386119
     10          1           0       -2.631877   -0.857327    1.104443
     11          1           0       -3.226334   -0.566699   -0.534381
     12          1           0       -2.513911   -2.137568   -0.113250
     13          1           0       -0.865919   -0.790623   -1.424446
     14          1           0       -0.078658   -1.549515    1.382984
     15          1           0        3.045144   -0.585659   -0.816124
     16          1           0        1.593096   -0.061144   -1.691494
     17          1           0        2.541039    0.873780    1.064481
     18          1           0        1.873852    1.865171   -0.244529
     19          1           0        0.282499    0.989301    1.867335
 ---------------------------------------------------------------------

 SCF Done:  E(RB3LYP) =  -423.203649146     A.U. after    1 cycles

 The electronic state is 1-A.
 Alpha  occ. eigenvalues --  -19.14522 -19.13894 -10.26693 -10.23719 -10.23485
 Alpha  occ. eigenvalues --  -10.19864 -10.19686 -10.19379 -10.18866  -1.04898
 Alpha  occ. eigenvalues --   -1.04156  -0.84225  -0.77962  -0.72862  -0.65741
 Alpha  occ. eigenvalues --   -0.61517  -0.58084  -0.51583  -0.51033  -0.49468
 Alpha  occ. eigenvalues --   -0.46590  -0.44303  -0.43315  -0.41530  -0.41119
 Alpha  occ. eigenvalues --   -0.39581  -0.38306  -0.36511  -0.35576  -0.34696
 Alpha  occ. eigenvalues --   -0.33310  -0.31372  -0.25859  -0.23460
 Alpha virt. eigenvalues --   -0.02730   0.08397   0.10214   0.10914   0.11744
 Alpha virt. eigenvalues --    0.13922   0.14525   0.14818   0.15193   0.15959
 Alpha virt. eigenvalues --    0.17660   0.18489   0.19288   0.20389   0.21407

 Mulliken charges:
               1
     1  C   -0.413487
     2  C   -0.130375
     3  C    0.088013
     4  O   -0.252932
     5  C   -0.095840
     6  C   -0.238741
     7  C   -0.178362
     8  C    0.393670
     9  O   -0.306380
    10  H    0.119047
    11  H    0.138101
    12  H    0.126795
    13  H    0.108692
    14  H    0.085313
    15  H    0.115427
    16  H    0.099743
    17  H    0.116763
    18  H    0.123729
    19  H    0.100825
 Sum of Mulliken charges =   0.00000

 Dipole moment (field-independent basis, Debye):
    X=              0.9621    Y=             -0.9261    Z=              0.7151  Tot=              1.5149
 Quadrupole moment (field-independent basis, Debye-Ang):
   XX=            -51.9562   YY=            -60.7866   ZZ=            -50.6454
   XY=              7.2066   XZ=             -1.4213   YZ=              1.1421

  Exact polarizability:  86.064   2.914  73.644   0.701  -0.304  65.298
 Approx polarizability: 111.950  -3.615 114.460   2.536  -3.294 100.634

                      1                      2                      3
                      A                      A                      A
 Frequencies --     41.8934               159.3359               197.4706
 Red. masses --      4.0875                 3.4948                 2.1050
 Frc consts  --      0.0042                 0.0523                 0.0484
 IR Inten    --      4.6752                 2.7168                 0.5630

                      4                      5                      6
                      A                      A                      A
 Frequencies --    205.3629               224.3428               257.7781
 Red. masses --      1.2362                 2.2823                 2.7429
 Frc consts  --      0.0307                 0.0677                 0.1074
 IR Inten    --      0.2389                 1.6898                 2.7025

                      7                      8                      9
                      A                      A                      A
 Frequencies --    388.6185               441.6674               578.7693
 Red. masses --      5.0014                 4.1609                 3.1423
 Frc consts  --      0.4450                 0.4782                 0.6202
 IR Inten    --      7.9680                 0.5958                 1.4643

                     10                     11                     12
                      A                      A                      A
 Frequencies --    636.3596               714.7037               729.6216
 Red. masses --      3.2542                 3.6559                 2.9179
 Frc consts  --      0.7764                 1.1003                 0.9152
 IR Inten    --      3.2369                 0.8755                 0.1288

                     13                     14                     15
                      A                      A                      A
 Frequencies --    797.6970               856.6806               869.1437
 Red. masses --      4.5197                 2.0209                 2.0524
 Frc consts  --      1.6945                 0.8738                 0.9135
 IR Inten    --      1.9159                 2.7257                 1.8604

                     16                     17                     18
                      A                      A                      A
 Frequencies --    877.7423               918.8077               966.2255
 Red. masses --      2.0409                 2.8172                 1.6227
 Frc consts  --      0.9264                 1.4012                 0.8926
 IR Inten    --     14.9915                 8.4313                 5.0223

                     19                     20                     21
                      A                      A                      A
 Frequencies --    972.0336              1013.9312              1035.8795
 Red. masses --      2.8259                 1.5288                 1.5873
 Frc consts  --      1.5732                 0.9260                 1.0035
 IR Inten    --     32.7931                16.9915                 8.9068

                     22                     23                     24
                      A                      A                      A
 Frequencies --   1077.2848              1094.6034              1107.5491
 Red. masses --      2.4947                 2.2540                 2.9931
 Frc consts  --      1.7058                 1.5912                 2.1632
 IR Inten    --     25.1175                24.3820                52.8729

                     25                     26                     27
                      A                      A                      A
 Frequencies --   1133.6645              1181.0729              1206.0868
 Red. masses --      2.8892                 1.6791                 1.5983
 Frc consts  --      2.1878                 1.3800                 1.3698
 IR Inten    --     21.4544                20.6071                16.5930

                     28                     29                     30
                      A                      A                      A
 Frequencies --   1215.0739              1240.5616              1251.2387
 Red. masses --      1.5716                 1.6158                 1.5700
 Frc consts  --      1.3671                 1.4651                 1.4482
 IR Inten    --      0.1270                 5.9263                 8.1416

                     31                     32                     33
                      A                      A                      A
 Frequencies --   1265.6313              1299.1403              1327.5463
 Red. masses --      1.2621                 1.5461                 1.4063
 Frc consts  --      1.1911                 1.5374                 1.4603
 IR Inten    --      8.3958                 8.8830                 4.8994

                     34                     35                     36
                      A                      A                      A
 Frequencies --   1353.1371              1391.8366              1406.1257
 Red. masses --      1.3131                 1.3594                 1.2082
 Frc consts  --      1.4165                 1.5516                 1.4075
 IR Inten    --      7.1217                 7.2908                 2.5833

                     37                     38                     39
                      A                      A                      A
 Frequencies --   1485.3772              1494.7274              1496.5974
 Red. masses --      1.0909                 1.0450                 1.0486
 Frc consts  --      1.4181                 1.3756                 1.3838
 IR Inten    --      3.2845                 7.1543                 3.2769

                     40                     41                     42
                      A                      A                      A
 Frequencies --   1522.3521              1883.2900              2981.9927
 Red. masses --      1.0923                12.6958                 1.0718
 Frc consts  --      1.4915                26.5304                 5.6153
 IR Inten    --      0.9709               222.1095                48.1099

                     43                     44                     45
                      A                      A                      A
 Frequencies --   3034.0564              3044.4016              3060.6818
 Red. masses --      1.0353                 1.0831                 1.0618
 Frc consts  --      5.6149                 5.9148                 5.8604
 IR Inten    --     23.1697                 8.5731                18.9270

                     46                     47                     48
                      A                      A                      A
 Frequencies --   3090.8564              3095.9286              3100.6014
 Red. masses --      1.0869                 1.0901                 1.0948
 Frc consts  --      6.1177                 6.1562                 6.2011
 IR Inten    --     20.6964                40.1309                 5.0196

                     49                     50                     51
                      A                      A                      A
 Frequencies --   3103.2208              3115.5493              3116.2104
 Red. masses --      1.0957                 1.1022                 1.1050
 Frc consts  --      6.2169                 6.3037                 6.3219
 IR Inten    --     29.9271                 9.6330                24.4983

 - Thermochemistry -
 -------------------
 Temperature   298.150 Kelvin.  Pressure   1.00000 Atm.
 Atom     1 has atomic number  6 and mass  12.00000

 Molecular mass:   126.06808 amu.
 Principal axes and moments of inertia in atomic units:
                           1         2         3
     Eigenvalues --   694.617801153.946351585.85930
           X            0.99372   0.11161  -0.00808
           Y           -0.11152   0.99370   0.01094
           Z            0.00925  -0.00997   0.99991
 This molecule is an asymmetric top.
 Rotational symmetry number  1.
 Warning -- assumption of classical behavior for rotation
           may cause significant error
 Rotational temperatures (Kelvin)      0.12469     0.07506     0.05462
 Rotational constants (GHZ):           2.59818     1.56397     1.13802
 Zero-point vibrational energy     419054.6 (Joules/Mol)
                                  100.15646 (Kcal/Mol)
 Warning -- explicit consideration of   9 degrees of freedom as
           vibrations may cause significant error
 Vibrational temperatures:     60.28   229.25   284.12   295.47   322.78
          (Kelvin)            370.88   559.13   635.46   832.72   915.58
                             1028.30  1049.76  1147.71  1232.57  1250.50
                             1262.87  1321.96  1390.18  1398.54  1458.82
                             1490.40  1549.97  1574.89  1593.51  1631.09
                             1699.30  1735.29  1748.22  1784.89  1800.25
                             1820.96  1869.17  1910.04  1946.86  2002.54
                             2023.10  2137.12  2150.58  2153.27  2190.32
                             2709.63  4290.42  4365.32  4380.21  4403.63
                             4447.05  4454.35  4461.07  4464.84  4482.57
                             4483.53

 Zero-point correction=                           0.159609 (Hartree/Particle)
 Thermal correction to Energy=                    0.167868
 Thermal correction to Enthalpy=                  0.168812
 Thermal correction to Gibbs Free Energy=         0.126192
 Sum of electronic and zero-point Energies=           -423.044040
 Sum of electronic and thermal Energies=              -423.035781
 Sum of electronic and thermal Enthalpies=            -423.034837
 Sum of electronic and thermal Free Energies=         -423.077457

                     E (Thermal)             CV                S
                      KCal/Mol        Cal/Mol-Kelvin    Cal/Mol-Kelvin
 Total                  105.339             31.021             89.701
 Electronic               0.000              0.000              0.000
 Translational            0.889              2.981             40.409
 Rotational               0.889              2.981             28.632
 Vibrational            103.561             25.060             20.661
 Vibration     1          0.595              1.980              5.167
 Vibration     2          0.621              1.892              2.558
 Vibration     3          0.637              1.843              2.157
 Vibration     4          0.640              1.832              2.085
 Vibration     5          0.649              1.804              1.924
 Vibration     6          0.667              1.750              1.677
 Vibration     7          0.757              1.495              1.005
 Vibration     8          0.801              1.379              0.821
 Vibration     9          0.935              1.077              0.488

 Optimization completed.
    -- Stationary point found.
 Normal termination of Gaussian 09 at Tue Jan 28 00:55:25 2020.
