 Gaussian 09, Revision D.01,
 Gaussian 09:  ES64L-G09RevD.01 24-Apr-2013

 -----------------------------
 # b3lyp 6-31G(2df,p) opt Freq
 -----------------------------

 -----
 titel
 -----
 Symbolic Z-matrix:
 Charge =  0 Multiplicity = 1

 SCF Done:  E(RB3LYP) =  -423.116970017     A.U. after   14 cycles
 Optimization completed.
    -- Stationary point found.
 Normal termination of Gaussian 09 at Mon Jan 27 17:54:15 2020.

 ----------------------------------------------------------------------
 #N Geom=AllCheck Guess=TCheck SCRF=Check GenChk RB3LYP/6-31G(2df,p) Fr
 eq
 ----------------------------------------------------------------------

 Structure from the checkpoint file:  "/scratch/puck/g09_af519cee-5ba3-4549-a2b3-ebc6c11ca7ae/Gau-169713.chk"
 -----
 titel
 -----
 Charge =  0 Multiplicity = 1

                         Standard orientation:
 ---------------------------------------------------------------------
 Center     Atomic      Atomic             Coordinates (Angstroms)
 Number     Number       Type             X           Y           Z
 ---------------------------------------------------------------------
      1          6           0       -2.296973    1.307949   -0.122711
      2          6           0       -1.229566    0.265975    0.031810
      3          6           0       -1.104362   -0.675242    1.220589
      4          6           0       -1.225353   -1.232397   -0.161794
      5          8           0        0.049008   -1.228240   -0.822770
      6          6           0        0.081974    0.220303   -0.772138
      7          6           0        1.362640    0.796640   -0.227505
      8          6           0        2.599538    0.006434   -0.174841
      9          8           0        1.859438    0.300272    1.013940
     10          1           0       -2.025755    2.239021    0.389557
     11          1           0       -2.476438    1.546003   -1.177650
     12          1           0       -3.243748    0.965725    0.307099
     13          1           0       -0.169613   -0.775784    1.759042
     14          1           0       -2.007449   -0.736431    1.821722
     15          1           0       -1.972181   -1.933120   -0.516420
     16          1           0       -0.070787    0.627898   -1.783589
     17          1           0        1.443050    1.879948   -0.340175
     18          1           0        2.564764   -1.033316   -0.489857
     19          1           0        3.563198    0.505825   -0.259551
 ---------------------------------------------------------------------

 SCF Done:  E(RB3LYP) =  -423.116970017     A.U. after    1 cycles

 The electronic state is 1-A.
 Alpha  occ. eigenvalues --  -19.15065 -19.13872 -10.24141 -10.23820 -10.23437
 Alpha  occ. eigenvalues --  -10.23098 -10.20100 -10.18634 -10.18078  -1.07339
 Alpha  occ. eigenvalues --   -1.04806  -0.83658  -0.74472  -0.71027  -0.65957
 Alpha  occ. eigenvalues --   -0.61026  -0.59548  -0.53591  -0.51136  -0.49422
 Alpha  occ. eigenvalues --   -0.47080  -0.46673  -0.41809  -0.41653  -0.40449
 Alpha  occ. eigenvalues --   -0.39529  -0.38230  -0.37430  -0.34095  -0.33262
 Alpha  occ. eigenvalues --   -0.29424  -0.27660  -0.25663  -0.23313
 Alpha virt. eigenvalues --    0.07223   0.09501   0.10974   0.11034   0.12412
 Alpha virt. eigenvalues --    0.12755   0.14140   0.14508   0.14808   0.16632
 Alpha virt. eigenvalues --    0.17116   0.17479   0.18849   0.19505   0.21111

 Mulliken charges:
               1
     1  C   -0.496604
     2  C    0.243926
     3  C   -0.353879
     4  C    0.060255
     5  O   -0.304826
     6  C    0.051879
     7  C    0.056904
     8  C   -0.175927
     9  O   -0.227883
    10  H    0.125127
    11  H    0.117921
    12  H    0.123458
    13  H    0.146086
    14  H    0.107807
    15  H    0.102298
    16  H    0.079260
    17  H    0.094871
    18  H    0.136346
    19  H    0.112982
 Sum of Mulliken charges =   0.00000

 Dipole moment (field-independent basis, Debye):
    X=             -1.0241    Y=              1.2644    Z=             -1.0501  Tot=              1.9366
 Quadrupole moment (field-independent basis, Debye-Ang):
   XX=            -47.8911   YY=            -52.9405   ZZ=            -55.3456
   XY=              1.4631   XZ=             -3.0456   YZ=             -2.1841

  Exact polarizability:  87.371  -0.525  72.203  -2.973  -2.881  66.019
 Approx polarizability: 111.496  -2.146 109.833  -3.746  -2.687 105.907

                      1                      2                      3
                      A                      A                      A
 Frequencies --     85.6727               148.2015               173.7357
 Red. masses --      3.8609                 3.1300                 1.8275
 Frc consts  --      0.0167                 0.0405                 0.0325
 IR Inten    --      2.4813                 0.6413                 3.6592

                      4                      5                      6
                      A                      A                      A
 Frequencies --    201.2026               255.0802               296.1210
 Red. masses --      1.5251                 4.0237                 2.7772
 Frc consts  --      0.0364                 0.1542                 0.1435
 IR Inten    --      2.1816                 0.6946                 0.6206

                      7                      8                      9
                      A                      A                      A
 Frequencies --    342.6101               431.0300               490.3503
 Red. masses --      3.2893                 2.5352                 2.6187
 Frc consts  --      0.2275                 0.2775                 0.3710
 IR Inten    --      1.2619                 4.7051                 0.8874

                     10                     11                     12
                      A                      A                      A
 Frequencies --    626.5915               665.0561               741.8990
 Red. masses --      3.5963                 3.1350                 3.8831
 Frc consts  --      0.8319                 0.8170                 1.2593
 IR Inten    --      7.5338                 7.8233                12.4468

                     13                     14                     15
                      A                      A                      A
 Frequencies --    807.2084               824.6869               892.9804
 Red. masses --      3.8529                 2.7329                 1.8491
 Frc consts  --      1.4792                 1.0951                 0.8688
 IR Inten    --     24.6444                 4.4932                19.4668

                     16                     17                     18
                      A                      A                      A
 Frequencies --    901.8200               932.4983               945.0106
 Red. masses --      2.3175                 2.8228                 2.3845
 Frc consts  --      1.1105                 1.4462                 1.2547
 IR Inten    --     19.7832                26.7230                18.9054

                     19                     20                     21
                      A                      A                      A
 Frequencies --    979.9759               994.6572              1023.9589
 Red. masses --      1.8405                 1.6438                 1.6868
 Frc consts  --      1.0414                 0.9582                 1.0420
 IR Inten    --      3.1132                 3.0551                15.0855

                     22                     23                     24
                      A                      A                      A
 Frequencies --   1039.5242              1080.1946              1091.6452
 Red. masses --      1.8594                 1.6847                 1.5154
 Frc consts  --      1.1838                 1.1582                 1.0640
 IR Inten    --     34.0543                11.1854                 9.4349

                     25                     26                     27
                      A                      A                      A
 Frequencies --   1096.6557              1114.1760              1142.9129
 Red. masses --      1.3212                 1.8292                 2.4341
 Frc consts  --      0.9362                 1.3379                 1.8733
 IR Inten    --      1.3635                 3.5931                 1.2599

                     28                     29                     30
                      A                      A                      A
 Frequencies --   1164.6933              1172.4461              1237.3001
 Red. masses --      1.3985                 1.4084                 1.3610
 Frc consts  --      1.1177                 1.1406                 1.2276
 IR Inten    --      1.5403                 1.5187                 1.8145

                     31                     32                     33
                      A                      A                      A
 Frequencies --   1258.6207              1284.8200              1288.8297
 Red. masses --      1.7665                 2.2535                 1.5597
 Frc consts  --      1.6487                 2.1917                 1.5264
 IR Inten    --      9.3747                19.3898                 3.7655

                     34                     35                     36
                      A                      A                      A
 Frequencies --   1377.7243              1397.0945              1421.8667
 Red. masses --      1.5956                 1.5077                 1.5005
 Frc consts  --      1.7844                 1.7339                 1.7873
 IR Inten    --      5.8338                 2.8763                 1.8985

                     37                     38                     39
                      A                      A                      A
 Frequencies --   1436.0032              1483.2272              1487.8975
 Red. masses --      1.7117                 1.6100                 1.0602
 Frc consts  --      2.0796                 2.0868                 1.3828
 IR Inten    --      1.9592                12.1084                 5.9130

                     40                     41                     42
                      A                      A                      A
 Frequencies --   1499.3479              1518.1114              2985.4448
 Red. masses --      1.0687                 1.4141                 1.0836
 Frc consts  --      1.4155                 1.9201                 5.6905
 IR Inten    --      2.7578                 3.4891                44.3424

                     43                     44                     45
                      A                      A                      A
 Frequencies --   3020.7343              3077.9753              3088.6411
 Red. masses --      1.0364                 1.1006                 1.0762
 Frc consts  --      5.5721                 6.1435                 6.0490
 IR Inten    --     38.6522                23.6335                26.6244

                     46                     47                     48
                      A                      A                      A
 Frequencies --   3097.3406              3097.8647              3128.8638
 Red. masses --      1.0834                 1.0774                 1.0545
 Frc consts  --      6.1239                 6.0917                 6.0823
 IR Inten    --      1.7124                52.2910                11.9431

                     49                     50                     51
                      A                      A                      A
 Frequencies --   3182.3255              3194.5375              3229.2390
 Red. masses --      1.0943                 1.1187                 1.1151
 Frc consts  --      6.5296                 6.7262                 6.8509
 IR Inten    --     24.7771                13.1685                 1.1680

 - Thermochemistry -
 -------------------
 Temperature   298.150 Kelvin.  Pressure   1.00000 Atm.
 Atom     1 has atomic number  6 and mass  12.00000

 Molecular mass:   126.06808 amu.
 Principal axes and moments of inertia in atomic units:
                           1         2         3
     Eigenvalues --   582.175471388.041431503.68145
           X            0.99967  -0.02123  -0.01466
           Y            0.01943   0.99338  -0.11319
           Z            0.01696   0.11286   0.99347
 This molecule is an asymmetric top.
 Rotational symmetry number  1.
 Warning -- assumption of classical behavior for rotation
           may cause significant error
 Rotational temperatures (Kelvin)      0.14878     0.06240     0.05760
 Rotational constants (GHZ):           3.10000     1.30021     1.20022
 Zero-point vibrational energy     415441.6 (Joules/Mol)
                                   99.29292 (Kcal/Mol)
 Warning -- explicit consideration of   9 degrees of freedom as
           vibrations may cause significant error
 Vibrational temperatures:    123.26   213.23   249.97   289.49   367.00
          (Kelvin)            426.05   492.94   620.16   705.50   901.52
                              956.87  1067.43  1161.39  1186.54  1284.80
                             1297.52  1341.66  1359.66  1409.96  1431.09
                             1473.25  1495.64  1554.16  1570.63  1577.84
                             1603.05  1644.39  1675.73  1686.89  1780.20
                             1810.87  1848.57  1854.34  1982.24  2010.10
                             2045.75  2066.09  2134.03  2140.75  2157.22
                             2184.22  4295.38  4346.16  4428.51  4443.86
                             4456.38  4457.13  4501.73  4578.65  4596.22
                             4646.15

 Zero-point correction=                           0.158233 (Hartree/Particle)
 Thermal correction to Energy=                    0.166546
 Thermal correction to Enthalpy=                  0.167490
 Thermal correction to Gibbs Free Energy=         0.125313
 Sum of electronic and zero-point Energies=           -422.958737
 Sum of electronic and thermal Energies=              -422.950424
 Sum of electronic and thermal Enthalpies=            -422.949480
 Sum of electronic and thermal Free Energies=         -422.991657

                     E (Thermal)             CV                S
                      KCal/Mol        Cal/Mol-Kelvin    Cal/Mol-Kelvin
 Total                  104.509             31.700             88.769
 Electronic               0.000              0.000              0.000
 Translational            0.889              2.981             40.409
 Rotational               0.889              2.981             28.587
 Vibrational            102.732             25.738             19.774
 Vibration     1          0.601              1.959              3.757
 Vibration     2          0.618              1.905              2.695
 Vibration     3          0.627              1.875              2.395
 Vibration     4          0.638              1.838              2.122
 Vibration     5          0.665              1.754              1.695
 Vibration     6          0.690              1.681              1.439
 Vibration     7          0.722              1.590              1.200
 Vibration     8          0.792              1.403              0.855
 Vibration     9          0.846              1.271              0.683

 Optimization completed.
    -- Stationary point found.
 Normal termination of Gaussian 09 at Mon Jan 27 18:36:25 2020.
