 Gaussian 09, Revision D.01,
 Gaussian 09:  ES64L-G09RevD.01 24-Apr-2013

 -----------------------------
 # b3lyp 6-31G(2df,p) opt Freq
 -----------------------------

 -----
 titel
 -----
 Symbolic Z-matrix:
 Charge =  0 Multiplicity = 1

 SCF Done:  E(RB3LYP) =  -423.110655983     A.U. after   13 cycles
 Optimization completed.
    -- Stationary point found.
 Normal termination of Gaussian 09 at Mon Jan 27 17:26:22 2020.

 ----------------------------------------------------------------------
 #N Geom=AllCheck Guess=TCheck SCRF=Check GenChk RB3LYP/6-31G(2df,p) Fr
 eq
 ----------------------------------------------------------------------

 Structure from the checkpoint file:  "/scratch/puck/g09_6199b7df-bdd6-4e31-b6b9-6ed7b26d88ce/Gau-79054.chk"
 -----
 titel
 -----
 Charge =  0 Multiplicity = 1

                         Standard orientation:
 ---------------------------------------------------------------------
 Center     Atomic      Atomic             Coordinates (Angstroms)
 Number     Number       Type             X           Y           Z
 ---------------------------------------------------------------------
      1          6           0       -2.437340    0.272409   -0.606392
      2          6           0       -1.118021   -0.169303   -0.065420
      3          8           0       -1.058142   -1.271878    0.841639
      4          6           0       -0.248765   -1.315978   -0.335489
      5          6           0        1.035619   -0.417566   -0.101090
      6          6           0        2.371890   -0.585559   -0.743096
      7          8           0        0.941014    0.116069    1.223910
      8          6           0        0.174815    0.737196    0.184858
      9          6           0        0.301596    2.207409   -0.042901
     10          1           0       -2.307157    0.900307   -1.494085
     11          1           0       -3.044371   -0.594852   -0.879441
     12          1           0       -2.990326    0.855686    0.138601
     13          1           0       -0.358108   -2.159816   -1.007591
     14          1           0        2.986737    0.306435   -0.595670
     15          1           0        2.904185   -1.441413   -0.312524
     16          1           0        2.265975   -0.763175   -1.818768
     17          1           0       -0.124316    2.493120   -1.010430
     18          1           0       -0.226754    2.769440    0.735678
     19          1           0        1.352396    2.509091   -0.022980
 ---------------------------------------------------------------------

 SCF Done:  E(RB3LYP) =  -423.110655983     A.U. after    1 cycles

 The electronic state is 1-A.
 Alpha  occ. eigenvalues --  -19.14812 -19.14482 -10.24015 -10.23897 -10.23762
 Alpha  occ. eigenvalues --  -10.23182 -10.19062 -10.19060 -10.19024  -1.09837
 Alpha  occ. eigenvalues --   -1.04266  -0.77136  -0.75431  -0.73394  -0.70486
 Alpha  occ. eigenvalues --   -0.61070  -0.56484  -0.52337  -0.50288  -0.48134
 Alpha  occ. eigenvalues --   -0.44695  -0.43598  -0.42824  -0.41600  -0.41263
 Alpha  occ. eigenvalues --   -0.40733  -0.39545  -0.38002  -0.35251  -0.34726
 Alpha  occ. eigenvalues --   -0.32285  -0.28201  -0.23968  -0.23552
 Alpha virt. eigenvalues --    0.05766   0.08456   0.09749   0.11456   0.12562
 Alpha virt. eigenvalues --    0.13359   0.13962   0.14186   0.15019   0.15678
 Alpha virt. eigenvalues --    0.15793   0.17326   0.18405   0.21761   0.22130

 Mulliken charges:
               1
     1  C   -0.511450
     2  C    0.384462
     3  O   -0.260860
     4  C   -0.171557
     5  C    0.318307
     6  C   -0.512906
     7  O   -0.301045
     8  C    0.275275
     9  C   -0.513778
    10  H    0.124387
    11  H    0.137962
    12  H    0.134519
    13  H    0.105292
    14  H    0.134383
    15  H    0.136926
    16  H    0.124611
    17  H    0.124155
    18  H    0.136020
    19  H    0.135298
 Sum of Mulliken charges =   0.00000

 Dipole moment (field-independent basis, Debye):
    X=              0.0712    Y=              1.1748    Z=             -3.2104  Tot=              3.4193
 Quadrupole moment (field-independent basis, Debye-Ang):
   XX=            -50.3626   YY=            -50.7751   ZZ=            -56.1805
   XY=             -2.3594   XZ=             -0.4180   YZ=              2.7466

  Exact polarizability:  85.529  -4.331  79.790  -0.762   3.231  61.338
 Approx polarizability: 113.254  -7.658 116.174  -1.567   3.088 102.460

                      1                      2                      3
                      A                      A                      A
 Frequencies --    148.6022               173.3026               183.6272
 Red. masses --      2.3305                 1.5501                 1.3863
 Frc consts  --      0.0303                 0.0274                 0.0275
 IR Inten    --      0.5409                 0.7950                 0.1109

                      4                      5                      6
                      A                      A                      A
 Frequencies --    190.0161               192.4903               219.3600
 Red. masses --      1.1189                 1.1806                 1.9681
 Frc consts  --      0.0238                 0.0258                 0.0558
 IR Inten    --      0.0147                 0.3457                 0.3632

                      7                      8                      9
                      A                      A                      A
 Frequencies --    287.3935               343.1876               371.8483
 Red. masses --      2.9779                 2.8255                 3.3319
 Frc consts  --      0.1449                 0.1961                 0.2714
 IR Inten    --      1.0195                 2.3194                 0.0814

                     10                     11                     12
                      A                      A                      A
 Frequencies --    456.1504               532.1910               564.2310
 Red. masses --     10.8487                 3.4995                 4.1404
 Frc consts  --      1.3300                 0.5840                 0.7766
 IR Inten    --      0.5038                 4.6236                 2.0433

                     13                     14                     15
                      A                      A                      A
 Frequencies --    591.6324               618.3555               750.9246
 Red. masses --      4.9830                 3.6388                 4.5962
 Frc consts  --      1.0276                 0.8198                 1.5270
 IR Inten    --     19.4681                 3.9022                 6.9976

                     16                     17                     18
                      A                      A                      A
 Frequencies --    768.5435               792.4013               840.6401
 Red. masses --      3.6618                 4.3252                 2.5543
 Frc consts  --      1.2743                 1.6001                 1.0635
 IR Inten    --      7.3675                 2.0279                 4.1160

                     19                     20                     21
                      A                      A                      A
 Frequencies --    871.7402               933.7377               979.3130
 Red. masses --      2.1104                 2.2120                 1.7583
 Frc consts  --      0.9449                 1.1363                 0.9935
 IR Inten    --     20.3019                16.5297                 1.9942

                     22                     23                     24
                      A                      A                      A
 Frequencies --   1014.0321              1072.7989              1096.0255
 Red. masses --      2.4194                 1.6622                 1.8718
 Frc consts  --      1.4658                 1.1271                 1.3248
 IR Inten    --      5.4145                 2.4175                21.8621

                     25                     26                     27
                      A                      A                      A
 Frequencies --   1099.3523              1107.9602              1159.0122
 Red. masses --      1.7301                 1.7947                 2.2374
 Frc consts  --      1.2320                 1.2981                 1.7708
 IR Inten    --      6.0117                 6.9088                43.5443

                     28                     29                     30
                      A                      A                      A
 Frequencies --   1179.0502              1238.0211              1269.4411
 Red. masses --      1.8764                 3.4685                 2.4990
 Frc consts  --      1.5369                 3.1322                 2.3727
 IR Inten    --      2.2322                 8.5266                 7.5544

                     31                     32                     33
                      A                      A                      A
 Frequencies --   1401.4865              1409.4971              1411.2620
 Red. masses --      1.2882                 1.2635                 1.2890
 Frc consts  --      1.4908                 1.4789                 1.5126
 IR Inten    --      3.7093                 3.0386                 1.2019

                     34                     35                     36
                      A                      A                      A
 Frequencies --   1459.7852              1471.4915              1476.1842
 Red. masses --      2.2608                 1.2706                 1.0861
 Frc consts  --      2.8385                 1.6209                 1.3944
 IR Inten    --     10.1686                 1.3218                 3.0795

                     37                     38                     39
                      A                      A                      A
 Frequencies --   1483.8195              1487.7146              1493.2141
 Red. masses --      1.0842                 1.0894                 1.2784
 Frc consts  --      1.4065                 1.4206                 1.6794
 IR Inten    --      2.8513                 1.5253                11.6450

                     40                     41                     42
                      A                      A                      A
 Frequencies --   1496.6232              1530.0929              3030.7329
 Red. masses --      1.0555                 3.8970                 1.0360
 Frc consts  --      1.3929                 5.3754                 5.6065
 IR Inten    --      5.5445                 9.6386                18.9762

                     43                     44                     45
                      A                      A                      A
 Frequencies --   3031.5575              3034.1882              3092.3200
 Red. masses --      1.0360                 1.0361                 1.1001
 Frc consts  --      5.6099                 5.6199                 6.1982
 IR Inten    --     23.5643                24.5890                 6.4759

                     46                     47                     48
                      A                      A                      A
 Frequencies --   3092.6284              3095.4579              3115.7995
 Red. masses --      1.1000                 1.0999                 1.1007
 Frc consts  --      6.1987                 6.2093                 6.2962
 IR Inten    --      7.6560                32.1351                 5.4105

                     49                     50                     51
                      A                      A                      A
 Frequencies --   3117.5032              3119.4170              3179.6531
 Red. masses --      1.1006                 1.1008                 1.0942
 Frc consts  --      6.3020                 6.3113                 6.5182
 IR Inten    --     28.1727                 8.1530                14.2850

 - Thermochemistry -
 -------------------
 Temperature   298.150 Kelvin.  Pressure   1.00000 Atm.
 Atom     1 has atomic number  6 and mass  12.00000

 Molecular mass:   126.06808 amu.
 Principal axes and moments of inertia in atomic units:
                           1         2         3
     Eigenvalues --   735.845431096.037051422.26343
           X            0.99898  -0.04479  -0.00490
           Y            0.04490   0.99866   0.02566
           Z            0.00374  -0.02586   0.99966
 This molecule is an asymmetric top.
 Rotational symmetry number  1.
 Warning -- assumption of classical behavior for rotation
           may cause significant error
 Rotational temperatures (Kelvin)      0.11771     0.07902     0.06090
 Rotational constants (GHZ):           2.45261     1.64661     1.26892
 Zero-point vibrational energy     407183.8 (Joules/Mol)
                                   97.31926 (Kcal/Mol)
 Warning -- explicit consideration of  14 degrees of freedom as
           vibrations may cause significant error
 Vibrational temperatures:    213.81   249.34   264.20   273.39   276.95
          (Kelvin)            315.61   413.49   493.77   535.01   656.30
                              765.70   811.80   851.23   889.67  1080.41
                             1105.76  1140.09  1209.49  1254.24  1343.44
                             1409.01  1458.96  1543.52  1576.93  1581.72
                             1594.11  1667.56  1696.39  1781.23  1826.44
                             2016.42  2027.95  2030.49  2100.30  2117.15
                             2123.90  2134.88  2140.49  2148.40  2153.30
                             2201.46  4360.54  4361.73  4365.51  4449.15
                             4449.60  4453.67  4482.93  4485.39  4488.14
                             4574.81

 Zero-point correction=                           0.155088 (Hartree/Particle)
 Thermal correction to Energy=                    0.164278
 Thermal correction to Enthalpy=                  0.165222
 Thermal correction to Gibbs Free Energy=         0.121917
 Sum of electronic and zero-point Energies=           -422.955568
 Sum of electronic and thermal Energies=              -422.946378
 Sum of electronic and thermal Enthalpies=            -422.945434
 Sum of electronic and thermal Free Energies=         -422.988739

                     E (Thermal)             CV                S
                      KCal/Mol        Cal/Mol-Kelvin    Cal/Mol-Kelvin
 Total                  103.086             34.936             91.145
 Electronic               0.000              0.000              0.000
 Translational            0.889              2.981             40.409
 Rotational               0.889              2.981             28.530
 Vibrational            101.309             28.974             22.206
 Vibration     1          0.618              1.904              2.690
 Vibration     2          0.627              1.875              2.399
 Vibration     3          0.631              1.862              2.291
 Vibration     4          0.633              1.854              2.228
 Vibration     5          0.634              1.850              2.204
 Vibration     6          0.647              1.812              1.964
 Vibration     7          0.685              1.697              1.489
 Vibration     8          0.722              1.589              1.197
 Vibration     9          0.744              1.530              1.072
 Vibration    10          0.814              1.347              0.777
 Vibration    11          0.887              1.179              0.582
 Vibration    12          0.920              1.109              0.515
 Vibration    13          0.949              1.050              0.464
 Vibration    14          0.978              0.993              0.419

 Optimization completed.
    -- Stationary point found.
 Normal termination of Gaussian 09 at Mon Jan 27 18:18:19 2020.
