 Gaussian 09, Revision D.01,
 Gaussian 09:  ES64L-G09RevD.01 24-Apr-2013

 -----------------------------
 # b3lyp 6-31G(2df,p) opt Freq
 -----------------------------

 -----
 titel
 -----
 Symbolic Z-matrix:
 Charge =  0 Multiplicity = 1

 SCF Done:  E(RB3LYP) =  -423.165934489     A.U. after   14 cycles
 Optimization completed.
    -- Stationary point found.
 Normal termination of Gaussian 09 at Tue Jan 28 02:19:50 2020.

 ----------------------------------------------------------------------
 #N Geom=AllCheck Guess=TCheck SCRF=Check GenChk RB3LYP/6-31G(2df,p) Fr
 eq
 ----------------------------------------------------------------------

 Structure from the checkpoint file:  "/scratch/puck/g09_fe49e630-9371-4ae4-a13a-b5c93a08c3e1/Gau-4918.chk"
 -----
 titel
 -----
 Charge =  0 Multiplicity = 1

                         Standard orientation:
 ---------------------------------------------------------------------
 Center     Atomic      Atomic             Coordinates (Angstroms)
 Number     Number       Type             X           Y           Z
 ---------------------------------------------------------------------
      1          6           0        3.632359    0.102394   -0.170349
      2          6           0        2.279963   -0.136052    0.448615
      3          8           0        1.542959   -1.271385   -0.023736
      4          6           0        1.023063    0.033436   -0.295723
      5          6           0       -0.259671    0.397462    0.370861
      6          6           0       -1.008205    1.622154   -0.039866
      7          6           0       -1.562415    0.256899   -0.416958
      8          6           0       -2.755747   -0.238904    0.302761
      9          8           0       -3.619251   -0.927824   -0.178755
     10          1           0        3.589044   -0.018756   -1.256060
     11          1           0        3.987268    1.113304    0.057092
     12          1           0        4.365782   -0.608578    0.223868
     13          1           0        2.232818   -0.009324    1.532352
     14          1           0        1.094212    0.332078   -1.344438
     15          1           0       -0.313734    0.117134    1.419329
     16          1           0       -1.529544    2.185466    0.726841
     17          1           0       -0.616713    2.224551   -0.852189
     18          1           0       -1.492053   -0.052101   -1.454198
     19          1           0       -2.802830    0.085562    1.371279
 ---------------------------------------------------------------------

 SCF Done:  E(RB3LYP) =  -423.165934489     A.U. after    1 cycles

 The electronic state is 1-A.
 Alpha  occ. eigenvalues --  -19.15287 -19.13267 -10.26987 -10.24823 -10.24489
 Alpha  occ. eigenvalues --  -10.21941 -10.21445 -10.21057 -10.19019  -1.07493
 Alpha  occ. eigenvalues --   -1.04096  -0.88857  -0.75178  -0.70583  -0.66053
 Alpha  occ. eigenvalues --   -0.61258  -0.59668  -0.57779  -0.51651  -0.50212
 Alpha  occ. eigenvalues --   -0.46656  -0.45367  -0.43067  -0.42367  -0.41098
 Alpha  occ. eigenvalues --   -0.40256  -0.39201  -0.38180  -0.37256  -0.33898
 Alpha  occ. eigenvalues --   -0.31973  -0.28303  -0.27234  -0.24923
 Alpha virt. eigenvalues --   -0.01901   0.07875   0.08776   0.10134   0.10379
 Alpha virt. eigenvalues --    0.12314   0.12691   0.13289   0.14345   0.15272
 Alpha virt. eigenvalues --    0.16497   0.16971   0.17700   0.18945   0.21527

 Mulliken charges:
               1
     1  C   -0.418905
     2  C    0.068875
     3  O   -0.259119
     4  C    0.058727
     5  C   -0.042202
     6  C   -0.306475
     7  C   -0.104645
     8  C    0.169236
     9  O   -0.264594
    10  H    0.128552
    11  H    0.123929
    12  H    0.133581
    13  H    0.089300
    14  H    0.089093
    15  H    0.102195
    16  H    0.128278
    17  H    0.130164
    18  H    0.112095
    19  H    0.061914
 Sum of Mulliken charges =   0.00000

 Dipole moment (field-independent basis, Debye):
    X=              2.9015    Y=              3.3975    Z=              0.7065  Tot=              4.5234
 Quadrupole moment (field-independent basis, Debye-Ang):
   XX=            -62.2161   YY=            -56.6987   ZZ=            -50.0155
   XY=             -3.4884   XZ=             -1.9343   YZ=             -0.8274

  Exact polarizability: 105.213   4.383  67.376   2.117   1.207  67.406
 Approx polarizability: 131.218  11.278 108.864   9.415   4.420 104.040

                      1                      2                      3
                      A                      A                      A
 Frequencies --     52.0105                83.8058               135.8218
 Red. masses --      4.9539                 4.7543                 3.6186
 Frc consts  --      0.0079                 0.0197                 0.0393
 IR Inten    --      0.5356                 0.9082                 3.5659

                      4                      5                      6
                      A                      A                      A
 Frequencies --    163.8268               201.4978               251.3766
 Red. masses --      2.1284                 1.2067                 2.6031
 Frc consts  --      0.0337                 0.0289                 0.0969
 IR Inten    --      2.5354                 0.8246                 0.5294

                      7                      8                      9
                      A                      A                      A
 Frequencies --    285.4741               345.1525               387.7046
 Red. masses --      3.0251                 3.7474                 2.4181
 Frc consts  --      0.1453                 0.2630                 0.2142
 IR Inten    --      3.9626                 1.3653                 5.1465

                     10                     11                     12
                      A                      A                      A
 Frequencies --    441.4875               491.5561               541.0797
 Red. masses --      2.6574                 5.4799                 4.1759
 Frc consts  --      0.3052                 0.7801                 0.7203
 IR Inten    --      1.5439                21.6076                 3.0031

                     13                     14                     15
                      A                      A                      A
 Frequencies --    781.7547               834.0290               858.0497
 Red. masses --      3.3742                 3.4955                 1.6451
 Frc consts  --      1.2150                 1.4326                 0.7136
 IR Inten    --      8.0895                 6.8349                 8.3650

                     16                     17                     18
                      A                      A                      A
 Frequencies --    862.6968               888.2304               951.7187
 Red. masses --      1.4360                 2.1820                 3.3679
 Frc consts  --      0.6297                 1.0143                 1.7973
 IR Inten    --     22.8546                 8.7795                20.7417

                     19                     20                     21
                      A                      A                      A
 Frequencies --    977.8232              1029.4593              1043.3259
 Red. masses --      2.3901                 1.3795                 1.9451
 Frc consts  --      1.3465                 0.8614                 1.2475
 IR Inten    --     17.4309                10.7669                31.8477

                     22                     23                     24
                      A                      A                      A
 Frequencies --   1055.1386              1077.0697              1091.5387
 Red. masses --      1.5705                 1.3442                 1.8922
 Frc consts  --      1.0301                 0.9187                 1.3283
 IR Inten    --     30.8201                 3.3650                17.2262

                     25                     26                     27
                      A                      A                      A
 Frequencies --   1119.8266              1162.5498              1169.5706
 Red. masses --      1.1015                 1.6314                 1.6359
 Frc consts  --      0.8138                 1.2991                 1.3184
 IR Inten    --      0.8760                10.5328                 8.2305

                     28                     29                     30
                      A                      A                      A
 Frequencies --   1178.4379              1207.7143              1220.0969
 Red. masses --      1.7346                 2.3141                 1.9334
 Frc consts  --      1.4192                 1.9887                 1.6957
 IR Inten    --     36.9739                 0.1771                 6.4152

                     31                     32                     33
                      A                      A                      A
 Frequencies --   1273.9196              1289.8708              1348.8115
 Red. masses --      1.3735                 1.3895                 1.3332
 Frc consts  --      1.3133                 1.3621                 1.4291
 IR Inten    --      3.7811                 1.6781                21.4195

                     34                     35                     36
                      A                      A                      A
 Frequencies --   1402.4577              1417.5424              1443.6166
 Red. masses --      1.3427                 1.3638                 1.3210
 Frc consts  --      1.5561                 1.6147                 1.6221
 IR Inten    --      1.4767                 7.5358                 3.4384

                     37                     38                     39
                      A                      A                      A
 Frequencies --   1475.0975              1484.3036              1493.5208
 Red. masses --      1.1841                 1.1834                 1.1171
 Frc consts  --      1.5180                 1.5361                 1.4681
 IR Inten    --      3.5351                 5.6679                 4.5386

                     40                     41                     42
                      A                      A                      A
 Frequencies --   1519.3378              1825.4932              2831.7522
 Red. masses --      2.4451                10.2028                 1.0809
 Frc consts  --      3.3255                20.0322                 5.1066
 IR Inten    --      9.1586               291.1401               100.7514

                     43                     44                     45
                      A                      A                      A
 Frequencies --   3037.1292              3078.9945              3086.8298
 Red. masses --      1.0355                 1.0879                 1.0860
 Frc consts  --      5.6278                 6.0765                 6.0970
 IR Inten    --     19.8408                 7.2473                28.0436

                     46                     47                     48
                      A                      A                      A
 Frequencies --   3103.0214              3123.6723              3135.0500
 Red. masses --      1.1008                 1.1014                 1.0541
 Frc consts  --      6.2451                 6.3316                 6.1040
 IR Inten    --     16.7415                27.2971                 9.5093

                     49                     50                     51
                      A                      A                      A
 Frequencies --   3149.6510              3180.7135              3222.0712
 Red. masses --      1.0885                 1.0901                 1.1164
 Frc consts  --      6.3619                 6.4976                 6.8284
 IR Inten    --      7.7516                 2.7766                 4.3039

 - Thermochemistry -
 -------------------
 Temperature   298.150 Kelvin.  Pressure   1.00000 Atm.
 Atom     1 has atomic number  6 and mass  12.00000

 Molecular mass:   126.06808 amu.
 Principal axes and moments of inertia in atomic units:
                           1         2         3
     Eigenvalues --   387.727282512.326902740.69110
           X            0.99997  -0.00420  -0.00604
           Y            0.00416   0.99997  -0.00658
           Z            0.00607   0.00655   0.99996
 This molecule is an asymmetric top.
 Rotational symmetry number  1.
 Rotational temperatures (Kelvin)      0.22339     0.03448     0.03160
 Rotational constants (GHZ):           4.65467     0.71835     0.65850
 Zero-point vibrational energy     411591.2 (Joules/Mol)
                                   98.37267 (Kcal/Mol)
 Warning -- explicit consideration of  12 degrees of freedom as
           vibrations may cause significant error
 Vibrational temperatures:     74.83   120.58   195.42   235.71   289.91
          (Kelvin)            361.67   410.73   496.60   557.82   635.20
                              707.24   778.49  1124.77  1199.98  1234.54
                             1241.23  1277.96  1369.31  1406.87  1481.16
                             1501.11  1518.11  1549.66  1570.48  1611.18
                             1672.65  1682.75  1695.51  1737.63  1755.45
                             1832.88  1855.83  1940.64  2017.82  2039.52
                             2077.04  2122.33  2135.58  2148.84  2185.99
                             2626.47  4074.25  4369.75  4429.98  4441.25
                             4464.55  4494.26  4510.63  4531.64  4576.33
                             4635.84

 Zero-point correction=                           0.156767 (Hartree/Particle)
 Thermal correction to Energy=                    0.166104
 Thermal correction to Enthalpy=                  0.167048
 Thermal correction to Gibbs Free Energy=         0.121812
 Sum of electronic and zero-point Energies=           -423.009168
 Sum of electronic and thermal Energies=              -422.999831
 Sum of electronic and thermal Enthalpies=            -422.998887
 Sum of electronic and thermal Free Energies=         -423.044123

                     E (Thermal)             CV                S
                      KCal/Mol        Cal/Mol-Kelvin    Cal/Mol-Kelvin
 Total                  104.232             33.619             95.207
 Electronic               0.000              0.000              0.000
 Translational            0.889              2.981             40.409
 Rotational               0.889              2.981             29.369
 Vibrational            102.454             27.657             25.429
 Vibration     1          0.596              1.977              4.739
 Vibration     2          0.601              1.960              3.800
 Vibration     3          0.614              1.918              2.862
 Vibration     4          0.623              1.887              2.505
 Vibration     5          0.638              1.838              2.119
 Vibration     6          0.663              1.760              1.721
 Vibration     7          0.683              1.701              1.501
 Vibration     8          0.724              1.585              1.188
 Vibration     9          0.756              1.496              1.009
 Vibration    10          0.801              1.380              0.822
 Vibration    11          0.847              1.269              0.680
 Vibration    12          0.896              1.159              0.563

 Optimization completed.
    -- Stationary point found.
 Normal termination of Gaussian 09 at Tue Jan 28 02:54:53 2020.
