 Gaussian 09, Revision D.01,
 Gaussian 09:  ES64L-G09RevD.01 24-Apr-2013

 -----------------------------
 # b3lyp 6-31G(2df,p) opt Freq
 -----------------------------

 -----
 titel
 -----
 Symbolic Z-matrix:
 Charge =  0 Multiplicity = 1

 SCF Done:  E(RB3LYP) =  -423.203778433     A.U. after   14 cycles
 Optimization completed.
    -- Stationary point found.
 Normal termination of Gaussian 09 at Tue Jan 28 14:14:30 2020.

 ----------------------------------------------------------------------
 #N Geom=AllCheck Guess=TCheck SCRF=Check GenChk RB3LYP/6-31G(2df,p) Fr
 eq
 ----------------------------------------------------------------------

 Structure from the checkpoint file:  "/scratch/puck/g09_29b716cb-3ece-4039-889e-e8884bc69763/Gau-98584.chk"
 -----
 titel
 -----
 Charge =  0 Multiplicity = 1

                         Standard orientation:
 ---------------------------------------------------------------------
 Center     Atomic      Atomic             Coordinates (Angstroms)
 Number     Number       Type             X           Y           Z
 ---------------------------------------------------------------------
      1          6           0       -3.351877   -0.192333   -0.452413
      2          6           0       -2.116951    0.160581    0.357454
      3          8           0       -1.018734   -0.576820   -0.174182
      4          6           0        0.197295   -0.398680    0.517619
      5          6           0        1.183442   -1.478321    0.170291
      6          6           0        2.353359   -0.995172   -0.250408
      7          6           0        2.389422    0.509275   -0.290800
      8          6           0        0.952734    0.892629    0.091465
      9          8           0        0.471262    1.993335    0.033737
     10          1           0       -3.552155   -1.266677   -0.404807
     11          1           0       -4.224059    0.342571   -0.064626
     12          1           0       -3.214727    0.084727   -1.501474
     13          1           0       -1.908031    1.235545    0.311122
     14          1           0       -2.257428   -0.107037    1.418665
     15          1           0        0.008378   -0.355326    1.606382
     16          1           0        0.929537   -2.526737    0.268124
     17          1           0        3.204431   -1.602593   -0.536982
     18          1           0        3.088144    0.947157    0.435043
     19          1           0        2.661148    0.928378   -1.267134
 ---------------------------------------------------------------------

 SCF Done:  E(RB3LYP) =  -423.203778433     A.U. after    1 cycles

 The electronic state is 1-A.
 Alpha  occ. eigenvalues --  -19.14140 -19.13910 -10.27150 -10.24095 -10.22231
 Alpha  occ. eigenvalues --  -10.19983 -10.19941 -10.19159 -10.17220  -1.05259
 Alpha  occ. eigenvalues --   -1.02837  -0.84681  -0.75774  -0.71042  -0.68058
 Alpha  occ. eigenvalues --   -0.60908  -0.55760  -0.54957  -0.49891  -0.48777
 Alpha  occ. eigenvalues --   -0.46724  -0.44610  -0.42882  -0.42209  -0.40897
 Alpha  occ. eigenvalues --   -0.38598  -0.38213  -0.36747  -0.35563  -0.35089
 Alpha  occ. eigenvalues --   -0.32074  -0.28572  -0.26510  -0.22576
 Alpha virt. eigenvalues --   -0.02624   0.00518   0.10514   0.11184   0.12631
 Alpha virt. eigenvalues --    0.13390   0.15034   0.16279   0.16435   0.17090
 Alpha virt. eigenvalues --    0.17603   0.18256   0.18826   0.20391   0.23165

 Mulliken charges:
               1
     1  C   -0.385337
     2  C   -0.044193
     3  O   -0.261103
     4  C   -0.008334
     5  C   -0.092070
     6  C   -0.074214
     7  C   -0.367203
     8  C    0.379034
     9  O   -0.301488
    10  H    0.122199
    11  H    0.115355
    12  H    0.128889
    13  H    0.124004
    14  H    0.081945
    15  H    0.087255
    16  H    0.109512
    17  H    0.106881
    18  H    0.138797
    19  H    0.140073
 Sum of Mulliken charges =   0.00000

 Dipole moment (field-independent basis, Debye):
    X=              1.1350    Y=             -1.5055    Z=              0.8068  Tot=              2.0508
 Quadrupole moment (field-independent basis, Debye-Ang):
   XX=            -45.7696   YY=            -57.7488   ZZ=            -52.4100
   XY=             -1.3565   XZ=             -1.5117   YZ=             -0.6134

  Exact polarizability: 100.975   0.130  76.246  -6.350  -1.667  58.725
 Approx polarizability: 130.927   2.167 116.949 -11.193  -3.182  91.810

                      1                      2                      3
                      A                      A                      A
 Frequencies --     46.1639                65.9467               112.4877
 Red. masses --      3.2603                 2.3182                 2.5031
 Frc consts  --      0.0041                 0.0059                 0.0187
 IR Inten    --      3.3497                 0.8653                 5.2921

                      4                      5                      6
                      A                      A                      A
 Frequencies --    167.1146               234.9129               264.9003
 Red. masses --      3.0106                 1.8501                 2.2585
 Frc consts  --      0.0495                 0.0602                 0.0934
 IR Inten    --      0.1963                 1.5913                 3.3861

                      7                      8                      9
                      A                      A                      A
 Frequencies --    312.7892               377.7471               448.3192
 Red. masses --      3.0198                 3.8456                 2.4865
 Frc consts  --      0.1741                 0.3233                 0.2945
 IR Inten    --      1.8116                 0.3952                 3.8127

                     10                     11                     12
                      A                      A                      A
 Frequencies --    494.1663               599.9068               646.5971
 Red. masses --      3.2930                 4.0686                 4.2164
 Frc consts  --      0.4738                 0.8627                 1.0386
 IR Inten    --      4.1665                 7.0849                 3.8267

                     13                     14                     15
                      A                      A                      A
 Frequencies --    719.0878               756.4224               788.1962
 Red. masses --      1.4276                 3.8096                 3.0117
 Frc consts  --      0.4349                 1.2843                 1.1024
 IR Inten    --     24.7115                 3.1292                 6.7662

                     16                     17                     18
                      A                      A                      A
 Frequencies --    823.9564               893.8557               962.6964
 Red. masses --      1.0950                 2.1523                 2.0245
 Frc consts  --      0.4380                 1.0132                 1.1055
 IR Inten    --      0.4468                 5.3900                 1.2005

                     19                     20                     21
                      A                      A                      A
 Frequencies --    974.3534               991.7448              1016.5721
 Red. masses --      2.0130                 1.4384                 2.8669
 Frc consts  --      1.1260                 0.8336                 1.7456
 IR Inten    --     13.7181                 2.2394                30.6820

                     22                     23                     24
                      A                      A                      A
 Frequencies --   1057.2650              1103.1345              1128.0168
 Red. masses --      2.4228                 2.5075                 1.4547
 Frc consts  --      1.5956                 1.7979                 1.0906
 IR Inten    --     12.3755               131.4850                 3.9602

                     25                     26                     27
                      A                      A                      A
 Frequencies --   1144.5674              1158.7567              1165.3472
 Red. masses --      2.1211                 1.6059                 2.6915
 Frc consts  --      1.6372                 1.2705                 2.1536
 IR Inten    --     12.8613                75.6403                54.4835

                     28                     29                     30
                      A                      A                      A
 Frequencies --   1187.5736              1270.0802              1288.6287
 Red. masses --      1.5264                 1.7122                 1.6488
 Frc consts  --      1.2683                 1.6273                 1.6132
 IR Inten    --      4.0235                11.4657                 2.5620

                     31                     32                     33
                      A                      A                      A
 Frequencies --   1294.6671              1328.2951              1382.1273
 Red. masses --      1.1256                 1.2278                 1.6847
 Frc consts  --      1.1116                 1.2763                 1.8961
 IR Inten    --      3.7080                26.5667                12.6763

                     34                     35                     36
                      A                      A                      A
 Frequencies --   1401.0263              1433.4285              1447.2655
 Red. masses --      1.2615                 1.4569                 1.0922
 Frc consts  --      1.4589                 1.7637                 1.3479
 IR Inten    --      1.2906                13.2397                 6.3841

                     37                     38                     39
                      A                      A                      A
 Frequencies --   1483.2153              1501.4586              1530.1937
 Red. masses --      1.0404                 1.0471                 1.0857
 Frc consts  --      1.3485                 1.3908                 1.4978
 IR Inten    --      4.3002                 1.8127                 2.2016

                     40                     41                     42
                      A                      A                      A
 Frequencies --   1682.5187              1850.1383              2929.0317
 Red. masses --      6.4719                12.7602                 1.0792
 Frc consts  --     10.7944                25.7345                 5.4549
 IR Inten    --      1.6539               162.1354                27.7366

                     43                     44                     45
                      A                      A                      A
 Frequencies --   2961.3049              3024.6504              3044.1425
 Red. masses --      1.0698                 1.0631                 1.0348
 Frc consts  --      5.5274                 5.7303                 5.6500
 IR Inten    --     61.9244                13.1255                19.0505

                     46                     47                     48
                      A                      A                      A
 Frequencies --   3058.7991              3059.6370              3118.6625
 Red. masses --      1.0907                 1.0968                 1.1013
 Frc consts  --      6.0126                 6.0495                 6.3108
 IR Inten    --     11.9504                 7.6677                25.0874

                     49                     50                     51
                      A                      A                      A
 Frequencies --   3121.4607              3190.7603              3217.2925
 Red. masses --      1.1027                 1.0866                 1.1023
 Frc consts  --      6.3304                 6.5179                 6.7223
 IR Inten    --     26.5521                 5.7606                12.3310

 - Thermochemistry -
 -------------------
 Temperature   298.150 Kelvin.  Pressure   1.00000 Atm.
 Atom     1 has atomic number  6 and mass  12.00000

 Molecular mass:   126.06808 amu.
 Principal axes and moments of inertia in atomic units:
                           1         2         3
     Eigenvalues --   556.192281674.203892092.84458
           X            0.99999  -0.00421  -0.00173
           Y            0.00420   0.99998  -0.00472
           Z            0.00175   0.00471   0.99999
 This molecule is an asymmetric top.
 Rotational symmetry number  1.
 Warning -- assumption of classical behavior for rotation
           may cause significant error
 Rotational temperatures (Kelvin)      0.15573     0.05173     0.04139
 Rotational constants (GHZ):           3.24482     1.07797     0.86234
 Zero-point vibrational energy     414275.1 (Joules/Mol)
                                   99.01412 (Kcal/Mol)
 Warning -- explicit consideration of  11 degrees of freedom as
           vibrations may cause significant error
 Vibrational temperatures:     66.42    94.88   161.84   240.44   337.99
          (Kelvin)            381.13   450.03   543.49   645.03   710.99
                              863.13   930.31  1034.61  1088.32  1134.04
                             1185.49  1286.06  1385.10  1401.88  1426.90
                             1462.62  1521.17  1587.16  1622.96  1646.78
                             1667.19  1676.67  1708.65  1827.36  1854.05
                             1862.73  1911.12  1988.57  2015.76  2062.38
                             2082.29  2134.01  2160.26  2201.60  2420.77
                             2661.93  4214.22  4260.65  4351.79  4379.84
                             4400.92  4402.13  4487.05  4491.08  4590.79
                             4628.96

 Zero-point correction=                           0.157789 (Hartree/Particle)
 Thermal correction to Energy=                    0.166899
 Thermal correction to Enthalpy=                  0.167843
 Thermal correction to Gibbs Free Energy=         0.122871
 Sum of electronic and zero-point Energies=           -423.045989
 Sum of electronic and thermal Energies=              -423.036880
 Sum of electronic and thermal Enthalpies=            -423.035935
 Sum of electronic and thermal Free Energies=         -423.080907

                     E (Thermal)             CV                S
                      KCal/Mol        Cal/Mol-Kelvin    Cal/Mol-Kelvin
 Total                  104.731             32.960             94.651
 Electronic               0.000              0.000              0.000
 Translational            0.889              2.981             40.409
 Rotational               0.889              2.981             29.057
 Vibrational            102.953             26.998             25.186
 Vibration     1          0.595              1.979              4.975
 Vibration     2          0.597              1.971              4.271
 Vibration     3          0.607              1.939              3.226
 Vibration     4          0.624              1.883              2.468
 Vibration     5          0.655              1.787              1.841
 Vibration     6          0.671              1.737              1.629
 Vibration     7          0.701              1.649              1.348
 Vibration     8          0.748              1.518              1.048
 Vibration     9          0.807              1.365              0.801
 Vibration    10          0.850              1.263              0.673
 Vibration    11          0.958              1.032              0.450

 Optimization completed.
    -- Stationary point found.
 Normal termination of Gaussian 09 at Tue Jan 28 14:57:00 2020.
