 Gaussian 09, Revision D.01,
 Gaussian 09:  ES64L-G09RevD.01 24-Apr-2013

 -----------------------------
 # b3lyp 6-31G(2df,p) opt Freq
 -----------------------------

 -----
 titel
 -----
 Symbolic Z-matrix:
 Charge =  0 Multiplicity = 1

 SCF Done:  E(RB3LYP) =  -423.222804038     A.U. after   14 cycles
 Optimization completed.
    -- Stationary point found.
 Normal termination of Gaussian 09 at Mon Jan 27 10:18:33 2020.

 ----------------------------------------------------------------------
 #N Geom=AllCheck Guess=TCheck SCRF=Check GenChk RB3LYP/6-31G(2df,p) Fr
 eq
 ----------------------------------------------------------------------

 Structure from the checkpoint file:  "/scratch/puck/g09_bf7b7a62-3648-40df-b070-f22b7f7be7c5/Gau-91823.chk"
 -----
 titel
 -----
 Charge =  0 Multiplicity = 1

                         Standard orientation:
 ---------------------------------------------------------------------
 Center     Atomic      Atomic             Coordinates (Angstroms)
 Number     Number       Type             X           Y           Z
 ---------------------------------------------------------------------
      1          6           0        2.433977   -1.076269    0.065743
      2          6           0        1.281239   -0.136209    0.037845
      3          6           0       -0.064630   -0.280057    0.219156
      4          6           0       -0.829994   -1.540286    0.468964
      5          8           0       -1.752488   -1.842984   -0.579888
      6          6           0       -0.641646    1.039896    0.071716
      7          6           0       -2.091460    1.395751    0.180959
      8          6           0        0.404275    1.863644   -0.182282
      9          8           0        1.580724    1.170672   -0.204035
     10          1           0        2.087632   -2.102848    0.201697
     11          1           0        3.007429   -1.027625   -0.866683
     12          1           0        3.123700   -0.840837    0.884608
     13          1           0       -0.139424   -2.379600    0.640582
     14          1           0       -1.449402   -1.449547    1.368469
     15          1           0       -1.261950   -1.792101   -1.407132
     16          1           0       -2.698124    0.752903   -0.463606
     17          1           0       -2.461700    1.257774    1.204304
     18          1           0       -2.267001    2.438729   -0.096453
     19          1           0        0.482388    2.922826   -0.367010
 ---------------------------------------------------------------------

 SCF Done:  E(RB3LYP) =  -423.222804038     A.U. after    1 cycles

 The electronic state is 1-A.
 Alpha  occ. eigenvalues --  -19.19303 -19.13274 -10.23100 -10.23010 -10.21626
 Alpha  occ. eigenvalues --  -10.19277 -10.17989 -10.17816 -10.17454  -1.09688
 Alpha  occ. eigenvalues --   -1.01163  -0.80919  -0.77993  -0.71602  -0.68080
 Alpha  occ. eigenvalues --   -0.66680  -0.56579  -0.54048  -0.50596  -0.48051
 Alpha  occ. eigenvalues --   -0.45972  -0.43428  -0.42665  -0.41008  -0.40650
 Alpha  occ. eigenvalues --   -0.40140  -0.39373  -0.39247  -0.36759  -0.34631
 Alpha  occ. eigenvalues --   -0.32618  -0.27290  -0.25201  -0.21197
 Alpha virt. eigenvalues --    0.02190   0.05818   0.09042   0.11069   0.11739
 Alpha virt. eigenvalues --    0.13322   0.14727   0.15266   0.16380   0.17317
 Alpha virt. eigenvalues --    0.17942   0.19655   0.21733   0.22269   0.23271

 Mulliken charges:
               1
     1  C   -0.492463
     2  C    0.272696
     3  C    0.028214
     4  C   -0.182552
     5  O   -0.412904
     6  C    0.191949
     7  C   -0.504125
     8  C   -0.130729
     9  O   -0.187260
    10  H    0.134900
    11  H    0.138754
    12  H    0.140900
    13  H    0.090107
    14  H    0.114241
    15  H    0.279186
    16  H    0.143996
    17  H    0.126850
    18  H    0.118859
    19  H    0.129380
 Sum of Mulliken charges =   0.00000

 Dipole moment (field-independent basis, Debye):
    X=              1.0327    Y=              0.0148    Z=             -0.1529  Tot=              1.0441
 Quadrupole moment (field-independent basis, Debye-Ang):
   XX=            -55.6204   YY=            -51.5810   ZZ=            -51.5261
   XY=             -5.7592   XZ=             -0.5988   YZ=              0.0313

  Exact polarizability:  96.280  -4.210  86.796  -2.826  -3.548  55.136
 Approx polarizability: 143.839   3.140 126.701  -6.163  -6.722  85.912

                      1                      2                      3
                      A                      A                      A
 Frequencies --     82.6855               117.1883               131.1275
 Red. masses --      2.7151                 1.1750                 2.2290
 Frc consts  --      0.0109                 0.0095                 0.0226
 IR Inten    --      2.2244                 0.8380                 0.6792

                      4                      5                      6
                      A                      A                      A
 Frequencies --    148.9444               183.2596               238.2709
 Red. masses --      1.2005                 3.3472                 2.1864
 Frc consts  --      0.0157                 0.0662                 0.0731
 IR Inten    --      0.3530                 0.5319                 6.7571

                      7                      8                      9
                      A                      A                      A
 Frequencies --    270.0132               319.2215               347.6733
 Red. masses --      2.3744                 3.7232                 1.2098
 Frc consts  --      0.1020                 0.2235                 0.0862
 IR Inten    --      2.2800                 0.3125               107.9817

                     10                     11                     12
                      A                      A                      A
 Frequencies --    405.5731               473.0468               571.5646
 Red. masses --      3.6422                 3.2313                 4.1218
 Frc consts  --      0.3530                 0.4260                 0.7934
 IR Inten    --      4.2191                 2.8027                 3.7080

                     13                     14                     15
                      A                      A                      A
 Frequencies --    622.4400               672.7013               733.2685
 Red. masses --      3.9002                 4.2323                 4.5167
 Frc consts  --      0.8903                 1.1284                 1.4309
 IR Inten    --      3.5151                 4.0012                 9.1656

                     16                     17                     18
                      A                      A                      A
 Frequencies --    740.9989               765.4135               925.8509
 Red. masses --      1.3348                 4.6419                 2.3292
 Frc consts  --      0.4318                 1.6023                 1.1763
 IR Inten    --     16.0804                 9.4901                 9.0067

                     19                     20                     21
                      A                      A                      A
 Frequencies --    963.3495              1014.6106              1025.7326
 Red. masses --      1.6073                 1.5468                 5.4156
 Frc consts  --      0.8789                 0.9382                 3.3571
 IR Inten    --     22.4295                 4.5167               110.5306

                     22                     23                     24
                      A                      A                      A
 Frequencies --   1060.6879              1068.2494              1091.1193
 Red. masses --      1.4733                 1.4676                 2.3740
 Frc consts  --      0.9766                 0.9868                 1.6652
 IR Inten    --      2.5203                 3.7631                 1.6127

                     25                     26                     27
                      A                      A                      A
 Frequencies --   1158.9330              1186.1609              1214.1112
 Red. masses --      3.5391                 3.6810                 1.1990
 Frc consts  --      2.8007                 3.0514                 1.0413
 IR Inten    --     25.6861                 5.7046                 8.5760

                     28                     29                     30
                      A                      A                      A
 Frequencies --   1258.1621              1305.8042              1358.4620
 Red. masses --      2.5895                 2.3143                 1.2655
 Frc consts  --      2.4151                 2.3250                 1.3759
 IR Inten    --      5.9883                14.4998                 5.1352

                     31                     32                     33
                      A                      A                      A
 Frequencies --   1406.3855              1416.8688              1423.5837
 Red. masses --      1.6279                 1.2796                 1.4393
 Frc consts  --      1.8971                 1.5135                 1.7185
 IR Inten    --      5.1416                22.8039                 8.7136

                     34                     35                     36
                      A                      A                      A
 Frequencies --   1429.0197              1472.2437              1479.4699
 Red. masses --      2.0368                 1.0430                 1.0445
 Frc consts  --      2.4506                 1.3320                 1.3470
 IR Inten    --     40.8781                 4.0513                 5.1691

                     37                     38                     39
                      A                      A                      A
 Frequencies --   1487.9128              1501.6252              1509.1450
 Red. masses --      1.0896                 1.1086                 1.0858
 Frc consts  --      1.4212                 1.4728                 1.4570
 IR Inten    --      3.6800                 6.6805                 1.1581

                     40                     41                     42
                      A                      A                      A
 Frequencies --   1609.1568              1673.1233              2992.1856
 Red. masses --      5.7458                 7.2498                 1.0685
 Frc consts  --      8.7659                11.9573                 5.6362
 IR Inten    --     14.9817                14.6879                58.8720

                     43                     44                     45
                      A                      A                      A
 Frequencies --   3029.0086              3031.2024              3058.1095
 Red. masses --      1.0409                 1.0388                 1.0929
 Frc consts  --      5.6266                 5.6238                 6.0218
 IR Inten    --     36.4948                26.0181                30.1322

                     46                     47                     48
                      A                      A                      A
 Frequencies --   3080.6618              3086.0815              3118.7528
 Red. masses --      1.1000                 1.0932                 1.1021
 Frc consts  --      6.1506                 6.1344                 6.3157
 IR Inten    --     13.7393                16.2026                13.5714

                     49                     50                     51
                      A                      A                      A
 Frequencies --   3131.3725              3270.0374              3809.3541
 Red. masses --      1.0974                 1.0979                 1.0661
 Frc consts  --      6.3399                 6.9172                 9.1151
 IR Inten    --     11.3878                 1.2092                14.1626

 - Thermochemistry -
 -------------------
 Temperature   298.150 Kelvin.  Pressure   1.00000 Atm.
 Atom     1 has atomic number  6 and mass  12.00000

 Molecular mass:   126.06808 amu.
 Principal axes and moments of inertia in atomic units:
                           1         2         3
     Eigenvalues --   880.176151123.530671876.11835
           X            0.97593  -0.21802  -0.00471
           Y            0.21799   0.97593  -0.00627
           Z            0.00597   0.00509   0.99997
 This molecule is an asymmetric top.
 Rotational symmetry number  1.
 Warning -- assumption of classical behavior for rotation
           may cause significant error
 Rotational temperatures (Kelvin)      0.09841     0.07709     0.04617
 Rotational constants (GHZ):           2.05043     1.60631     0.96195
 Zero-point vibrational energy     415522.4 (Joules/Mol)
                                   99.31224 (Kcal/Mol)
 Warning -- explicit consideration of  12 degrees of freedom as
           vibrations may cause significant error
 Vibrational temperatures:    118.97   168.61   188.66   214.30   263.67
          (Kelvin)            342.82   388.49   459.29   500.22   583.53
                              680.61   822.35   895.55   967.87  1055.01
                             1066.13  1101.26  1332.09  1386.04  1459.80
                             1475.80  1526.09  1536.97  1569.88  1667.44
                             1706.62  1746.83  1810.21  1878.76  1954.52
                             2023.47  2038.56  2048.22  2056.04  2118.23
                             2128.62  2140.77  2160.50  2171.32  2315.21
                             2407.25  4305.08  4358.06  4361.22  4399.93
                             4432.38  4440.18  4487.18  4505.34  4704.85
                             5480.80

 Zero-point correction=                           0.158264 (Hartree/Particle)
 Thermal correction to Energy=                    0.167870
 Thermal correction to Enthalpy=                  0.168815
 Thermal correction to Gibbs Free Energy=         0.123742
 Sum of electronic and zero-point Energies=           -423.064540
 Sum of electronic and thermal Energies=              -423.054934
 Sum of electronic and thermal Enthalpies=            -423.053989
 Sum of electronic and thermal Free Energies=         -423.099062

                     E (Thermal)             CV                S
                      KCal/Mol        Cal/Mol-Kelvin    Cal/Mol-Kelvin
 Total                  105.340             34.696             94.863
 Electronic               0.000              0.000              0.000
 Translational            0.889              2.981             40.409
 Rotational               0.889              2.981             29.008
 Vibrational            103.563             28.734             25.447
 Vibration     1          0.600              1.961              3.826
 Vibration     2          0.608              1.935              3.146
 Vibration     3          0.612              1.922              2.929
 Vibration     4          0.618              1.904              2.686
 Vibration     5          0.631              1.863              2.295
 Vibration     6          0.656              1.782              1.816
 Vibration     7          0.674              1.728              1.596
 Vibration     8          0.705              1.637              1.314
 Vibration     9          0.725              1.580              1.177
 Vibration    10          0.771              1.458              0.942
 Vibration    11          0.830              1.310              0.729
 Vibration    12          0.928              1.093              0.501

 Optimization completed.
    -- Stationary point found.
 Normal termination of Gaussian 09 at Mon Jan 27 10:58:50 2020.
