 Gaussian 09, Revision D.01,
 Gaussian 09:  ES64L-G09RevD.01 24-Apr-2013

 -----------------------------
 # b3lyp 6-31G(2df,p) opt Freq
 -----------------------------

 -----
 titel
 -----
 Symbolic Z-matrix:
 Charge =  0 Multiplicity = 1

 SCF Done:  E(RB3LYP) =  -423.140416170     A.U. after   13 cycles
 Optimization completed.
    -- Stationary point found.
 Normal termination of Gaussian 09 at Mon Jan 27 23:40:42 2020.

 ----------------------------------------------------------------------
 #N Geom=AllCheck Guess=TCheck SCRF=Check GenChk RB3LYP/6-31G(2df,p) Fr
 eq
 ----------------------------------------------------------------------

 Structure from the checkpoint file:  "/scratch/puck/g09_ea228000-259a-4ac7-8de5-50c87abe005b/Gau-67814.chk"
 -----
 titel
 -----
 Charge =  0 Multiplicity = 1

                         Standard orientation:
 ---------------------------------------------------------------------
 Center     Atomic      Atomic             Coordinates (Angstroms)
 Number     Number       Type             X           Y           Z
 ---------------------------------------------------------------------
      1          8           0       -2.761760   -0.083318   -0.202976
      2          6           0       -1.508110   -0.010746    0.450548
      3          6           0       -0.595119    1.092407   -0.147831
      4          6           0        0.727040    1.286326    0.637821
      5          6           0        1.295668   -0.004677    0.003178
      6          8           0        2.658940   -0.086120   -0.273404
      7          6           0        0.723545   -1.291482    0.623761
      8          6           0       -0.597891   -1.096270   -0.159550
      9          6           0        0.097618    0.002368   -1.041532
     10          1           0       -3.239930    0.731852   -0.017572
     11          1           0       -1.629813   -0.015262    1.545365
     12          1           0       -1.096917    1.983550   -0.528952
     13          1           0        1.266277    2.160532    0.252817
     14          1           0        0.687502    1.354303    1.730622
     15          1           0        2.947071    0.754537   -0.644884
     16          1           0        1.277840   -2.147299    0.229310
     17          1           0        0.680487   -1.363471    1.715584
     18          1           0       -1.110116   -1.976652   -0.544745
     19          1           0        0.183650    0.005852   -2.124863
 ---------------------------------------------------------------------

 SCF Done:  E(RB3LYP) =  -423.140416170     A.U. after    1 cycles

 The electronic state is 1-A.
 Alpha  occ. eigenvalues --  -19.14013 -19.13472 -10.23345 -10.22654 -10.18556
 Alpha  occ. eigenvalues --  -10.18300 -10.18115 -10.17874 -10.17602  -1.02568
 Alpha  occ. eigenvalues --   -1.01764  -0.88897  -0.74251  -0.71907  -0.64517
 Alpha  occ. eigenvalues --   -0.59275  -0.58271  -0.52992  -0.51269  -0.48995
 Alpha  occ. eigenvalues --   -0.46958  -0.45203  -0.42092  -0.41460  -0.39794
 Alpha  occ. eigenvalues --   -0.37632  -0.35691  -0.32843  -0.32450  -0.31144
 Alpha  occ. eigenvalues --   -0.29472  -0.26414  -0.26058  -0.24054
 Alpha virt. eigenvalues --    0.06730   0.08470   0.09257   0.10924   0.11514
 Alpha virt. eigenvalues --    0.12906   0.14888   0.15912   0.16852   0.18442
 Alpha virt. eigenvalues --    0.18695   0.19428   0.20145   0.21082   0.22553

 Mulliken charges:
               1
     1  O   -0.443916
     2  C    0.138740
     3  C   -0.079019
     4  C   -0.314385
     5  C    0.429365
     6  O   -0.483028
     7  C   -0.283374
     8  C   -0.037941
     9  C   -0.124152
    10  H    0.279018
    11  H    0.053830
    12  H    0.059201
    13  H    0.088225
    14  H    0.094540
    15  H    0.274649
    16  H    0.114093
    17  H    0.090762
    18  H    0.078071
    19  H    0.065324
 Sum of Mulliken charges =   0.00000

 Dipole moment (field-independent basis, Debye):
    X=             -0.1377    Y=              2.2481    Z=              0.2124  Tot=              2.2623
 Quadrupole moment (field-independent basis, Debye-Ang):
   XX=            -55.5347   YY=            -50.1746   ZZ=            -52.5084
   XY=             -0.3636   XZ=             -3.1694   YZ=             -0.9885

  Exact polarizability:  83.044  -0.137  74.119   0.027  -0.582  66.381
 Approx polarizability: 113.996  -0.305 108.587   0.452  -0.618 103.057

                      1                      2                      3
                      A                      A                      A
 Frequencies --    150.4004               248.7565               288.5204
 Red. masses --      4.2888                 2.3290                 1.5207
 Frc consts  --      0.0572                 0.0849                 0.0746
 IR Inten    --      0.5315                 2.2129                28.7371

                      4                      5                      6
                      A                      A                      A
 Frequencies --    302.9337               322.7312               343.1198
 Red. masses --      2.1022                 1.5048                 1.7249
 Frc consts  --      0.1137                 0.0923                 0.1196
 IR Inten    --     31.9865                98.2457                34.4707

                      7                      8                      9
                      A                      A                      A
 Frequencies --    379.6111               433.9883               444.9743
 Red. masses --      3.5692                 2.6101                 3.1303
 Frc consts  --      0.3030                 0.2896                 0.3652
 IR Inten    --     11.3761                 9.9064                 4.5195

                     10                     11                     12
                      A                      A                      A
 Frequencies --    625.8230               636.7478               750.1640
 Red. masses --      3.4381                 3.9354                 2.9834
 Frc consts  --      0.7934                 0.9401                 0.9892
 IR Inten    --      0.9061                10.8837                 0.1055

                     13                     14                     15
                      A                      A                      A
 Frequencies --    833.4146               852.8060               869.6340
 Red. masses --      1.6286                 2.1782                 1.8562
 Frc consts  --      0.6665                 0.9334                 0.8271
 IR Inten    --      2.5160                 1.4405                 1.9321

                     16                     17                     18
                      A                      A                      A
 Frequencies --    878.1215               910.5722               933.5091
 Red. masses --      1.9811                 3.4740                 1.8200
 Frc consts  --      0.9001                 1.6971                 0.9344
 IR Inten    --      1.3611                25.0260                 3.2667

                     19                     20                     21
                      A                      A                      A
 Frequencies --    957.3146               971.2112               998.4634
 Red. masses --      2.5994                 2.2307                 2.5536
 Frc consts  --      1.4036                 1.2397                 1.4999
 IR Inten    --     17.2954                 3.6662                 5.6286

                     22                     23                     24
                      A                      A                      A
 Frequencies --   1045.3972              1062.0253              1089.3512
 Red. masses --      1.5895                 1.9783                 1.7323
 Frc consts  --      1.0235                 1.3147                 1.2112
 IR Inten    --     59.3881                18.8428                 0.6191

                     25                     26                     27
                      A                      A                      A
 Frequencies --   1099.9259              1109.8576              1126.6058
 Red. masses --      2.5966                 1.9064                 1.4033
 Frc consts  --      1.8509                 1.3835                 1.0494
 IR Inten    --      7.5303                 0.8180                36.0453

                     28                     29                     30
                      A                      A                      A
 Frequencies --   1165.9718              1185.2432              1212.5951
 Red. masses --      1.8372                 1.3943                 1.3503
 Frc consts  --      1.4716                 1.1541                 1.1698
 IR Inten    --     17.8619                 3.7852                46.1423

                     31                     32                     33
                      A                      A                      A
 Frequencies --   1226.0385              1235.4150              1248.0811
 Red. masses --      1.8213                 1.7411                 1.8240
 Frc consts  --      1.6130                 1.5657                 1.6740
 IR Inten    --     11.7458                 7.9477                31.5651

                     34                     35                     36
                      A                      A                      A
 Frequencies --   1267.4871              1286.1210              1325.5753
 Red. masses --      1.4084                 1.6320                 1.8522
 Frc consts  --      1.3331                 1.5905                 1.9176
 IR Inten    --     16.2694                12.2379                43.0510

                     37                     38                     39
                      A                      A                      A
 Frequencies --   1336.7680              1388.7206              1418.7194
 Red. masses --      1.6959                 1.8193                 1.5522
 Frc consts  --      1.7855                 2.0673                 1.8408
 IR Inten    --    118.3599                11.1871                 5.5784

                     40                     41                     42
                      A                      A                      A
 Frequencies --   1471.7299              1488.7057              2968.8653
 Red. masses --      1.1104                 1.1482                 1.0843
 Frc consts  --      1.4171                 1.4994                 5.6308
 IR Inten    --      2.4100                 1.5742                72.0435

                     43                     44                     45
                      A                      A                      A
 Frequencies --   3022.0605              3044.3178              3074.8482
 Red. masses --      1.0583                 1.0603                 1.1061
 Frc consts  --      5.6944                 5.7899                 6.1614
 IR Inten    --     44.2430                41.7369                31.2915

                     46                     47                     48
                      A                      A                      A
 Frequencies --   3088.1810              3105.6809              3121.6352
 Red. masses --      1.0894                 1.1050                 1.0894
 Frc consts  --      6.1212                 6.2795                 6.2545
 IR Inten    --     47.0773                17.2814                26.9097

                     49                     50                     51
                      A                      A                      A
 Frequencies --   3152.3060              3803.7925              3805.7108
 Red. masses --      1.0936                 1.0657                 1.0660
 Frc consts  --      6.4026                 9.0849                 9.0967
 IR Inten    --     25.1040                14.2592                15.3850

 - Thermochemistry -
 -------------------
 Temperature   298.150 Kelvin.  Pressure   1.00000 Atm.
 Atom     1 has atomic number  8 and mass  15.99491

 Molecular mass:   126.06808 amu.
 Principal axes and moments of inertia in atomic units:
                           1         2         3
     Eigenvalues --   472.744731335.450541512.07336
           X            1.00000  -0.00047  -0.00204
           Y            0.00045   0.99996  -0.00863
           Z            0.00204   0.00863   0.99996
 This molecule is an asymmetric top.
 Rotational symmetry number  1.
 Warning -- assumption of classical behavior for rotation
           may cause significant error
 Rotational temperatures (Kelvin)      0.18321     0.06486     0.05728
 Rotational constants (GHZ):           3.81758     1.35141     1.19355
 Zero-point vibrational energy     419354.2 (Joules/Mol)
                                  100.22806 (Kcal/Mol)
 Warning -- explicit consideration of   9 degrees of freedom as
           vibrations may cause significant error
 Vibrational temperatures:    216.39   357.90   415.12   435.85   464.34
          (Kelvin)            493.67   546.18   624.41   640.22   900.42
                              916.14  1079.32  1199.10  1227.00  1251.21
                             1263.42  1310.11  1343.11  1377.36  1397.35
                             1436.56  1504.09  1528.02  1567.33  1582.55
                             1596.84  1620.93  1677.57  1705.30  1744.65
                             1763.99  1777.48  1795.71  1823.63  1850.44
                             1907.20  1923.31  1998.06  2041.22  2117.49
                             2141.91  4271.53  4348.07  4380.09  4424.02
                             4443.20  4468.38  4491.33  4535.46  5472.80
                             5475.56

 Zero-point correction=                           0.159724 (Hartree/Particle)
 Thermal correction to Energy=                    0.167354
 Thermal correction to Enthalpy=                  0.168298
 Thermal correction to Gibbs Free Energy=         0.128238
 Sum of electronic and zero-point Energies=           -422.980693
 Sum of electronic and thermal Energies=              -422.973062
 Sum of electronic and thermal Enthalpies=            -422.972118
 Sum of electronic and thermal Free Energies=         -423.012179

                     E (Thermal)             CV                S
                      KCal/Mol        Cal/Mol-Kelvin    Cal/Mol-Kelvin
 Total                  105.016             31.444             84.314
 Electronic               0.000              0.000              0.000
 Translational            0.889              2.981             40.409
 Rotational               0.889              2.981             28.347
 Vibrational            103.239             25.482             15.558
 Vibration     1          0.618              1.902              2.667
 Vibration     2          0.662              1.765              1.739
 Vibration     3          0.685              1.695              1.483
 Vibration     4          0.694              1.668              1.401
 Vibration     5          0.708              1.630              1.296
 Vibration     6          0.722              1.589              1.198
 Vibration     7          0.750              1.514              1.041
 Vibration     8          0.795              1.396              0.846
 Vibration     9          0.804              1.372              0.811

 Normal termination of Gaussian 09 at Tue Jan 28 00:26:28 2020.
