 Gaussian 09, Revision D.01,
 Gaussian 09:  ES64L-G09RevD.01 24-Apr-2013

 -----------------------------
 # b3lyp 6-31G(2df,p) opt Freq
 -----------------------------

 -----
 titel
 -----
 Symbolic Z-matrix:
 Charge =  0 Multiplicity = 1

 SCF Done:  E(RB3LYP) =  -423.162310620     A.U. after   14 cycles
 SCF Done:  E(RB3LYP) =  -423.162310617     A.U. after    7 cycles
 Optimization completed.
    -- Stationary point found.
 Normal termination of Gaussian 09 at Tue Jan 28 14:30:51 2020.

 ----------------------------------------------------------------------
 #N Geom=AllCheck Guess=TCheck SCRF=Check GenChk RB3LYP/6-31G(2df,p) Fr
 eq
 ----------------------------------------------------------------------

 Structure from the checkpoint file:  "/scratch/puck/g09_5ac552c4-5887-4a5b-b7e6-a74f47d562a9/Gau-11878.chk"
 -----
 titel
 -----
 Charge =  0 Multiplicity = 1

                         Standard orientation:
 ---------------------------------------------------------------------
 Center     Atomic      Atomic             Coordinates (Angstroms)
 Number     Number       Type             X           Y           Z
 ---------------------------------------------------------------------
      1          6           0       -4.089712    0.993699   -0.000205
      2          6           0       -3.266240   -0.281767    0.000446
      3          8           0       -1.893747    0.072660   -0.000338
      4          6           0       -1.047525   -1.055426    0.000201
      5          6           0        0.347756   -0.644096   -0.000239
      6          6           0        1.515750   -0.340763   -0.000511
      7          6           0        2.917485    0.033781   -0.000159
      8          6           0        3.189312    1.524086    0.000291
      9          8           0        3.797376   -0.800765    0.000056
     10          1           0       -3.866275    1.594573    0.885601
     11          1           0       -3.867098    1.593166   -0.887170
     12          1           0       -5.157429    0.755677    0.000478
     13          1           0       -3.497774   -0.895145    0.887683
     14          1           0       -3.498452   -0.896487   -0.885684
     15          1           0       -1.236827   -1.690023    0.884169
     16          1           0       -1.237082   -1.691038   -0.882976
     17          1           0        2.732130    1.989280    0.880216
     18          1           0        4.266281    1.698011    0.000590
     19          1           0        2.732537    1.989736   -0.879603
 ---------------------------------------------------------------------

 SCF Done:  E(RB3LYP) =  -423.162310617     A.U. after    1 cycles

 The electronic state is 1-A.
 Alpha  occ. eigenvalues --  -19.15377 -19.13218 -10.28782 -10.26642 -10.23967
 Alpha  occ. eigenvalues --  -10.20547 -10.19193 -10.19070 -10.18380  -1.04918
 Alpha  occ. eigenvalues --   -1.04265  -0.80236  -0.76985  -0.74317  -0.69942
 Alpha  occ. eigenvalues --   -0.62031  -0.61240  -0.51028  -0.50284  -0.50027
 Alpha  occ. eigenvalues --   -0.47742  -0.44813  -0.44190  -0.43726  -0.40060
 Alpha  occ. eigenvalues --   -0.39428  -0.38924  -0.36934  -0.36439  -0.33592
 Alpha  occ. eigenvalues --   -0.28803  -0.28701  -0.26627  -0.25700
 Alpha virt. eigenvalues --   -0.04759   0.01983   0.08812   0.09059   0.11094
 Alpha virt. eigenvalues --    0.11524   0.14308   0.14538   0.16126   0.16661
 Alpha virt. eigenvalues --    0.16981   0.18183   0.18389   0.18809   0.20415

 Mulliken charges:
               1
     1  C   -0.387577
     2  C   -0.020898
     3  O   -0.241428
     4  C   -0.208956
     5  C   -0.019564
     6  C    0.131323
     7  C    0.243750
     8  C   -0.477705
     9  O   -0.276373
    10  H    0.131250
    11  H    0.131250
    12  H    0.118705
    13  H    0.090628
    14  H    0.090628
    15  H    0.127375
    16  H    0.127375
    17  H    0.148767
    18  H    0.142693
    19  H    0.148756
 Sum of Mulliken charges =   0.00000

 Dipole moment (field-independent basis, Debye):
    X=             -3.4199    Y=              0.8539    Z=              0.0014  Tot=              3.5248
 Quadrupole moment (field-independent basis, Debye-Ang):
   XX=            -56.6069   YY=            -52.1377   ZZ=            -52.2649
   XY=             10.1734   XZ=             -0.0024   YZ=              0.0001

  Exact polarizability: 126.768   5.299  72.988  -0.002  -0.001  57.078
 Approx polarizability: 173.881   5.044 104.080  -0.008  -0.005  84.803

                      1                      2                      3
                      A                      A                      A
 Frequencies --     32.3045                52.2598                63.1869
 Red. masses --      3.4721                 4.1446                 2.0213
 Frc consts  --      0.0021                 0.0067                 0.0048
 IR Inten    --      5.4111                 1.7644                 2.4775

                      4                      5                      6
                      A                      A                      A
 Frequencies --    106.1097               118.9402               148.8795
 Red. masses --      1.2851                 2.2468                 4.5999
 Frc consts  --      0.0085                 0.0187                 0.0601
 IR Inten    --      0.9178                 3.0514                 3.1115

                      7                      8                      9
                      A                      A                      A
 Frequencies --    152.7769               245.9735               269.6750
 Red. masses --      3.1992                 1.1654                 4.7624
 Frc consts  --      0.0440                 0.0415                 0.2041
 IR Inten    --      0.7996                 0.5386                 0.2431

                     10                     11                     12
                      A                      A                      A
 Frequencies --    328.1078               376.8583               448.3922
 Red. masses --      3.9830                 4.0791                 3.1366
 Frc consts  --      0.2526                 0.3413                 0.3716
 IR Inten    --      0.3445                 0.7744                 1.1455

                     13                     14                     15
                      A                      A                      A
 Frequencies --    534.2428               597.0914               601.6062
 Red. masses --      4.4760                 7.1507                 2.6422
 Frc consts  --      0.7527                 1.5020                 0.5634
 IR Inten    --      8.6647                 6.8111                 2.7480

                     16                     17                     18
                      A                      A                      A
 Frequencies --    704.9687               823.9487               906.1326
 Red. masses --      4.1263                 1.0837                 2.0931
 Frc consts  --      1.2082                 0.4335                 1.0126
 IR Inten    --     13.6568                 0.4982                 9.1705

                     19                     20                     21
                      A                      A                      A
 Frequencies --    958.0703              1013.9656              1025.6970
 Red. masses --      2.5968                 1.6730                 3.3594
 Frc consts  --      1.4044                 1.0134                 2.0823
 IR Inten    --     37.1346                 0.4516                13.2518

                     22                     23                     24
                      A                      A                      A
 Frequencies --   1043.1036              1061.5704              1135.4291
 Red. masses --      1.8384                 2.6047                 3.9103
 Frc consts  --      1.1785                 1.7294                 2.9702
 IR Inten    --      5.5022                14.6975               130.1617

                     25                     26                     27
                      A                      A                      A
 Frequencies --   1157.7366              1187.9112              1247.3175
 Red. masses --      3.3150                 1.5211                 3.9380
 Frc consts  --      2.6179                 1.2647                 3.6098
 IR Inten    --    136.0924                 5.4028               217.7506

                     28                     29                     30
                      A                      A                      A
 Frequencies --   1250.7934              1297.6108              1375.4977
 Red. masses --      1.0831                 1.1044                 1.2493
 Frc consts  --      0.9984                 1.0957                 1.3927
 IR Inten    --      4.6621                 2.3210               134.2407

                     31                     32                     33
                      A                      A                      A
 Frequencies --   1381.1797              1407.1883              1445.8326
 Red. masses --      1.3126                 1.2552                 1.4884
 Frc consts  --      1.4753                 1.4644                 1.8332
 IR Inten    --     34.9423                13.5739                16.4017

                     34                     35                     36
                      A                      A                      A
 Frequencies --   1459.7104              1467.0234              1483.9445
 Red. masses --      1.0540                 1.0472                 1.0397
 Frc consts  --      1.3232                 1.3279                 1.3490
 IR Inten    --     12.5590                 7.1767                 4.4263

                     37                     38                     39
                      A                      A                      A
 Frequencies --   1487.2555              1500.1597              1530.3717
 Red. masses --      1.0838                 1.0454                 1.0906
 Frc consts  --      1.4124                 1.3862                 1.5050
 IR Inten    --      8.4126                 0.9441                 3.6059

                     40                     41                     42
                      A                      A                      A
 Frequencies --   1768.4606              2334.5215              2944.7324
 Red. masses --     11.0818                11.9496                 1.0542
 Frc consts  --     20.4198                38.3708                 5.3861
 IR Inten    --    212.0215                75.3478                12.9782

                     43                     44                     45
                      A                      A                      A
 Frequencies --   2958.6329              2963.1709              2982.2813
 Red. masses --      1.0547                 1.1015                 1.1060
 Frc consts  --      5.4394                 5.6981                 5.7955
 IR Inten    --     72.9798                39.3361                45.1765

                     46                     47                     48
                      A                      A                      A
 Frequencies --   3040.1138              3047.7209              3104.5908
 Red. masses --      1.0354                 1.0348                 1.0986
 Frc consts  --      5.6381                 5.6630                 6.2388
 IR Inten    --      1.2449                15.7107                 4.9461

                     49                     50                     51
                      A                      A                      A
 Frequencies --   3122.4564              3125.7354              3152.4167
 Red. masses --      1.1015                 1.1028                 1.1031
 Frc consts  --      6.3274                 6.3483                 6.4590
 IR Inten    --     22.6348                23.2822                 9.9781

 - Thermochemistry -
 -------------------
 Temperature   298.150 Kelvin.  Pressure   1.00000 Atm.
 Atom     1 has atomic number  6 and mass  12.00000

 Molecular mass:   126.06808 amu.
 Principal axes and moments of inertia in atomic units:
                           1         2         3
     Eigenvalues --   359.686193594.011833908.68398
           X            0.99992   0.01302   0.00000
           Y           -0.01302   0.99992  -0.00001
           Z            0.00000   0.00001   1.00000
 This molecule is an asymmetric top.
 Rotational symmetry number  1.
 Rotational temperatures (Kelvin)      0.24080     0.02410     0.02216
 Rotational constants (GHZ):           5.01754     0.50215     0.46173
 Zero-point vibrational energy     406572.8 (Joules/Mol)
                                   97.17322 (Kcal/Mol)
 Warning -- explicit consideration of  15 degrees of freedom as
           vibrations may cause significant error
 Vibrational temperatures:     46.48    75.19    90.91   152.67   171.13
          (Kelvin)            214.20   219.81   353.90   388.00   472.07
                              542.21   645.14   768.66   859.08   865.58
                             1014.29  1185.48  1303.72  1378.45  1458.87
                             1475.75  1500.79  1527.36  1633.63  1665.72
                             1709.14  1794.61  1799.61  1866.97  1979.03
                             1987.21  2024.63  2080.23  2100.20  2110.72
                             2135.06  2139.83  2158.39  2201.86  2544.42
                             3358.85  4236.81  4256.81  4263.34  4290.83
                             4374.04  4384.99  4466.81  4492.51  4497.23
                             4535.62

 Zero-point correction=                           0.154855 (Hartree/Particle)
 Thermal correction to Energy=                    0.165927
 Thermal correction to Enthalpy=                  0.166872
 Thermal correction to Gibbs Free Energy=         0.116331
 Sum of electronic and zero-point Energies=           -423.007455
 Sum of electronic and thermal Energies=              -422.996383
 Sum of electronic and thermal Enthalpies=            -422.995439
 Sum of electronic and thermal Free Energies=         -423.045979

                     E (Thermal)             CV                S
                      KCal/Mol        Cal/Mol-Kelvin    Cal/Mol-Kelvin
 Total                  104.121             36.647            106.371
 Electronic               0.000              0.000              0.000
 Translational            0.889              2.981             40.409
 Rotational               0.889              2.981             30.003
 Vibrational            102.344             30.686             35.959
 Vibration     1          0.594              1.983              5.683
 Vibration     2          0.596              1.977              4.730
 Vibration     3          0.597              1.972              4.355
 Vibration     4          0.605              1.944              3.339
 Vibration     5          0.609              1.934              3.118
 Vibration     6          0.618              1.904              2.687
 Vibration     7          0.619              1.900              2.637
 Vibration     8          0.660              1.769              1.759
 Vibration     9          0.674              1.729              1.598
 Vibration    10          0.711              1.619              1.269
 Vibration    11          0.747              1.519              1.052
 Vibration    12          0.807              1.364              0.801
 Vibration    13          0.889              1.174              0.578
 Vibration    14          0.955              1.038              0.455
 Vibration    15          0.960              1.028              0.447

 Normal termination of Gaussian 09 at Tue Jan 28 14:59:12 2020.
