 Gaussian 09, Revision D.01,
 Gaussian 09:  ES64L-G09RevD.01 24-Apr-2013

 -----------------------------
 # b3lyp 6-31G(2df,p) opt Freq
 -----------------------------

 -----
 titel
 -----
 Symbolic Z-matrix:
 Charge =  0 Multiplicity = 1

 SCF Done:  E(RB3LYP) =  -423.177503599     A.U. after   14 cycles
 Optimization completed.
    -- Stationary point found.
 Normal termination of Gaussian 09 at Tue Jan 28 02:53:17 2020.

 ----------------------------------------------------------------------
 #N Geom=AllCheck Guess=TCheck SCRF=Check GenChk RB3LYP/6-31G(2df,p) Fr
 eq
 ----------------------------------------------------------------------

 Structure from the checkpoint file:  "/scratch/puck/g09_dae62c20-5eeb-4e21-b225-3223f1431a73/Gau-105050.chk"
 -----
 titel
 -----
 Charge =  0 Multiplicity = 1

                         Standard orientation:
 ---------------------------------------------------------------------
 Center     Atomic      Atomic             Coordinates (Angstroms)
 Number     Number       Type             X           Y           Z
 ---------------------------------------------------------------------
      1          8           0       -2.876072   -0.227257   -0.413071
      2          6           0       -1.735659    0.189085    0.310366
      3          6           0       -0.944716   -1.049783    0.787115
      4          6           0        0.176166   -0.763652   -0.254664
      5          6           0       -0.517054    0.600465   -0.590162
      6          6           0        0.413953    1.610697    0.013766
      7          6           0        1.507820    1.057106    0.544423
      8          6           0        1.575032   -0.435878    0.308031
      9          8           0        2.653504   -0.789470   -0.557694
     10          1           0       -3.279898    0.552242   -0.808715
     11          1           0       -2.003131    0.919118    1.086606
     12          1           0       -0.607138   -0.990444    1.825119
     13          1           0       -1.497349   -1.979933    0.645458
     14          1           0        0.240130   -1.498292   -1.057576
     15          1           0       -0.801601    0.819256   -1.624852
     16          1           0        0.185575    2.672392    0.035649
     17          1           0        2.308890    1.592219    1.042963
     18          1           0        1.771700   -1.000946    1.227144
     19          1           0        2.610106   -0.200044   -1.318931
 ---------------------------------------------------------------------

 SCF Done:  E(RB3LYP) =  -423.177503599     A.U. after    1 cycles

 The electronic state is 1-A.
 Alpha  occ. eigenvalues --  -19.13786 -19.12984 -10.23135 -10.22818 -10.18952
 Alpha  occ. eigenvalues --  -10.18592 -10.18205 -10.18010 -10.17715  -1.02067
 Alpha  occ. eigenvalues --   -1.01115  -0.85968  -0.76899  -0.70404  -0.65649
 Alpha  occ. eigenvalues --   -0.61397  -0.55889  -0.53426  -0.52138  -0.50202
 Alpha  occ. eigenvalues --   -0.47445  -0.45358  -0.41928  -0.40169  -0.39762
 Alpha  occ. eigenvalues --   -0.36806  -0.36352  -0.34234  -0.32503  -0.31746
 Alpha  occ. eigenvalues --   -0.29849  -0.28007  -0.25372  -0.24491
 Alpha virt. eigenvalues --    0.00761   0.07470   0.09355   0.10196   0.11728
 Alpha virt. eigenvalues --    0.13266   0.13986   0.14102   0.16681   0.17298
 Alpha virt. eigenvalues --    0.17846   0.19284   0.19844   0.21941   0.23890

 Mulliken charges:
               1
     1  O   -0.434021
     2  C    0.124158
     3  C   -0.245636
     4  C   -0.045924
     5  C   -0.107396
     6  C   -0.088299
     7  C   -0.119582
     8  C    0.090937
     9  O   -0.435155
    10  H    0.280057
    11  H    0.062096
    12  H    0.100644
    13  H    0.116728
    14  H    0.078808
    15  H    0.068300
    16  H    0.095352
    17  H    0.098733
    18  H    0.087099
    19  H    0.273101
 Sum of Mulliken charges =   0.00000

 Dipole moment (field-independent basis, Debye):
    X=             -0.8347    Y=              2.3633    Z=             -0.3675  Tot=              2.5332
 Quadrupole moment (field-independent basis, Debye-Ang):
   XX=            -58.0007   YY=            -52.2952   ZZ=            -50.3083
   XY=             -1.0351   XZ=              0.8814   YZ=             -1.9845

  Exact polarizability:  90.233  -2.487  74.642   5.209  -1.606  64.679
 Approx polarizability: 128.448  -9.525 111.458  11.532  -4.095 101.773

                      1                      2                      3
                      A                      A                      A
 Frequencies --     57.1121               152.1150               220.0457
 Red. masses --      3.3716                 4.0205                 3.1673
 Frc consts  --      0.0065                 0.0548                 0.0904
 IR Inten    --      0.0227                 0.6246                 0.9686

                      4                      5                      6
                      A                      A                      A
 Frequencies --    300.5930               314.4218               325.5019
 Red. masses --      1.2694                 2.3715                 1.5221
 Frc consts  --      0.0676                 0.1381                 0.0950
 IR Inten    --     69.5464                28.6693                43.2232

                      7                      8                      9
                      A                      A                      A
 Frequencies --    364.6246               375.7014               467.9076
 Red. masses --      2.5699                 3.1608                 2.3782
 Frc consts  --      0.2013                 0.2629                 0.3068
 IR Inten    --     37.7366                25.7287                11.9640

                     10                     11                     12
                      A                      A                      A
 Frequencies --    552.3690               691.5022               739.7227
 Red. masses --      3.2781                 3.7727                 3.1963
 Frc consts  --      0.5893                 1.0629                 1.0305
 IR Inten    --      2.2458                 1.8295                 1.7111

                     13                     14                     15
                      A                      A                      A
 Frequencies --    768.0562               806.9043               834.7570
 Red. masses --      2.2748                 1.6687                 3.4886
 Frc consts  --      0.7907                 0.6402                 1.4323
 IR Inten    --      7.5427                35.2885                 3.1912

                     16                     17                     18
                      A                      A                      A
 Frequencies --    868.4639               914.8667               951.2539
 Red. masses --      2.0261                 2.3644                 2.2603
 Frc consts  --      0.9003                 1.1660                 1.2051
 IR Inten    --     11.9943                 8.3247                14.1281

                     19                     20                     21
                      A                      A                      A
 Frequencies --    980.0648               984.8902               998.9916
 Red. masses --      1.3761                 2.4778                 2.6246
 Frc consts  --      0.7788                 1.4161                 1.5433
 IR Inten    --      0.8094                29.0001                 4.2277

                     22                     23                     24
                      A                      A                      A
 Frequencies --   1013.1846              1050.8562              1058.2353
 Red. masses --      2.0785                 2.6235                 2.1834
 Frc consts  --      1.2572                 1.7070                 1.4406
 IR Inten    --      9.7463                89.5680                33.3989

                     25                     26                     27
                      A                      A                      A
 Frequencies --   1100.4981              1130.8456              1152.1171
 Red. masses --      1.9843                 1.3601                 1.4280
 Frc consts  --      1.4159                 1.0248                 1.1168
 IR Inten    --     35.8316                23.3996                 4.2336

                     28                     29                     30
                      A                      A                      A
 Frequencies --   1181.9049              1217.3562              1238.8498
 Red. masses --      1.4932                 1.4588                 1.5151
 Frc consts  --      1.2290                 1.2738                 1.3700
 IR Inten    --     14.6702                 2.4606                29.5359

                     31                     32                     33
                      A                      A                      A
 Frequencies --   1252.6739              1270.3253              1272.6583
 Red. masses --      1.2604                 1.4308                 1.4180
 Frc consts  --      1.1653                 1.3604                 1.3532
 IR Inten    --     19.4053                 2.0087                10.9856

                     34                     35                     36
                      A                      A                      A
 Frequencies --   1293.7030              1304.2252              1322.5114
 Red. masses --      1.4466                 1.4786                 1.5965
 Frc consts  --      1.4265                 1.4819                 1.6452
 IR Inten    --      0.3621                37.7188                29.5881

                     37                     38                     39
                      A                      A                      A
 Frequencies --   1373.1833              1418.4793              1425.1482
 Red. masses --      1.6293                 1.4142                 1.2584
 Frc consts  --      1.8101                 1.6765                 1.5059
 IR Inten    --      2.7531                 4.7460                73.5314

                     40                     41                     42
                      A                      A                      A
 Frequencies --   1464.8461              1664.4652              2997.8650
 Red. masses --      1.1157                 6.4567                 1.0857
 Frc consts  --      1.4105                10.5392                 5.7488
 IR Inten    --      5.2443                 3.2642                63.0006

                     43                     44                     45
                      A                      A                      A
 Frequencies --   3039.2147              3048.6893              3066.6789
 Red. masses --      1.0843                 1.0855                 1.0611
 Frc consts  --      5.9009                 5.9442                 5.8797
 IR Inten    --     30.6553                37.7815                25.2263

                     46                     47                     48
                      A                      A                      A
 Frequencies --   3108.2443              3130.3967              3168.9461
 Red. masses --      1.0894                 1.1043                 1.0859
 Frc consts  --      6.2009                 6.3760                 6.4251
 IR Inten    --     11.7093                18.9150                10.8939

                     49                     50                     51
                      A                      A                      A
 Frequencies --   3200.6072              3798.6649              3809.0217
 Red. masses --      1.1016                 1.0660                 1.0660
 Frc consts  --      6.6489                 9.0630                 9.1122
 IR Inten    --     18.5359                13.8567                19.1740

 - Thermochemistry -
 -------------------
 Temperature   298.150 Kelvin.  Pressure   1.00000 Atm.
 Atom     1 has atomic number  8 and mass  15.99491

 Molecular mass:   126.06808 amu.
 Principal axes and moments of inertia in atomic units:
                           1         2         3
     Eigenvalues --   507.625241527.765671751.92992
           X            1.00000   0.00268   0.00162
           Y           -0.00264   0.99972  -0.02336
           Z           -0.00168   0.02335   0.99973
 This molecule is an asymmetric top.
 Rotational symmetry number  1.
 Warning -- assumption of classical behavior for rotation
           may cause significant error
 Rotational temperatures (Kelvin)      0.17063     0.05669     0.04944
 Rotational constants (GHZ):           3.55526     1.18129     1.03014
 Zero-point vibrational energy     420154.0 (Joules/Mol)
                                  100.41921 (Kcal/Mol)
 Warning -- explicit consideration of  10 degrees of freedom as
           vibrations may cause significant error
 Vibrational temperatures:     82.17   218.86   316.60   432.49   452.38
          (Kelvin)            468.32   524.61   540.55   673.21   794.73
                              994.92  1064.29  1105.06  1160.95  1201.03
                             1249.52  1316.29  1368.64  1410.09  1417.04
                             1437.32  1457.74  1511.95  1522.56  1583.37
                             1627.03  1657.64  1700.50  1751.50  1782.43
                             1802.32  1827.71  1831.07  1861.35  1876.49
                             1902.80  1975.70  2040.87  2050.47  2107.58
                             2394.79  4313.25  4372.75  4386.38  4412.26
                             4472.06  4503.94  4559.40  4604.95  5465.42
                             5480.33

 Zero-point correction=                           0.160028 (Hartree/Particle)
 Thermal correction to Energy=                    0.168209
 Thermal correction to Enthalpy=                  0.169153
 Thermal correction to Gibbs Free Energy=         0.127147
 Sum of electronic and zero-point Energies=           -423.017475
 Sum of electronic and thermal Energies=              -423.009295
 Sum of electronic and thermal Enthalpies=            -423.008351
 Sum of electronic and thermal Free Energies=         -423.050356

                     E (Thermal)             CV                S
                      KCal/Mol        Cal/Mol-Kelvin    Cal/Mol-Kelvin
 Total                  105.552             32.026             88.408
 Electronic               0.000              0.000              0.000
 Translational            0.889              2.981             40.409
 Rotational               0.889              2.981             28.698
 Vibrational            103.775             26.064             19.301
 Vibration     1          0.596              1.975              4.555
 Vibration     2          0.619              1.900              2.646
 Vibration     3          0.647              1.811              1.959
 Vibration     4          0.693              1.673              1.414
 Vibration     5          0.702              1.646              1.339
 Vibration     6          0.710              1.624              1.282
 Vibration     7          0.738              1.545              1.102
 Vibration     8          0.747              1.522              1.056
 Vibration     9          0.825              1.321              0.743
 Vibration    10          0.908              1.135              0.539

 Optimization completed.
    -- Stationary point found.
 Normal termination of Gaussian 09 at Tue Jan 28 03:46:31 2020.
