 Gaussian 09, Revision D.01,
 Gaussian 09:  ES64L-G09RevD.01 24-Apr-2013

 -----------------------------
 # b3lyp 6-31G(2df,p) opt Freq
 -----------------------------

 -----
 titel
 -----
 Symbolic Z-matrix:
 Charge =  0 Multiplicity = 1

 SCF Done:  E(RB3LYP) =  -423.205157177     A.U. after   14 cycles
 Optimization completed.
    -- Stationary point found.
 Normal termination of Gaussian 09 at Mon Jan 27 23:10:15 2020.

 ----------------------------------------------------------------------
 #N Geom=AllCheck Guess=TCheck SCRF=Check GenChk RB3LYP/6-31G(2df,p) Fr
 eq
 ----------------------------------------------------------------------

 Structure from the checkpoint file:  "/scratch/puck/g09_b26038aa-1a3e-4955-a50b-71f8ff5972dc/Gau-79889.chk"
 -----
 titel
 -----
 Charge =  0 Multiplicity = 1

                         Standard orientation:
 ---------------------------------------------------------------------
 Center     Atomic      Atomic             Coordinates (Angstroms)
 Number     Number       Type             X           Y           Z
 ---------------------------------------------------------------------
      1          8           0       -1.456454   -1.809590    0.153370
      2          6           0       -0.532185   -0.781621    0.360975
      3          6           0        0.739953   -0.959574   -0.467727
      4          6           0        2.088782   -1.074318    0.191016
      5          6           0        1.688038    0.222330   -0.465478
      6          6           0        1.224285    1.415862    0.362836
      7          6           0       -0.228304    1.779337    0.005820
      8          6           0       -1.157117    0.574539    0.014201
      9          8           0       -2.335858    0.638924   -0.262229
     10          1           0       -2.288947   -1.356112   -0.061541
     11          1           0       -0.254043   -0.725622    1.430368
     12          1           0        0.568022   -1.495402   -1.394843
     13          1           0        2.120902   -1.106723    1.276726
     14          1           0        2.841947   -1.684475   -0.294924
     15          1           0        2.171871    0.467535   -1.406056
     16          1           0        1.289149    1.179362    1.431104
     17          1           0        1.876452    2.279848    0.204249
     18          1           0       -0.643323    2.538825    0.678332
     19          1           0       -0.284247    2.208756   -1.002401
 ---------------------------------------------------------------------

 SCF Done:  E(RB3LYP) =  -423.205157177     A.U. after    1 cycles

 The electronic state is 1-A.
 Alpha  occ. eigenvalues --  -19.14406 -19.12873 -10.27494 -10.24017 -10.20181
 Alpha  occ. eigenvalues --  -10.20043 -10.20007 -10.19645 -10.19266  -1.06015
 Alpha  occ. eigenvalues --   -1.01099  -0.88000  -0.78876  -0.72626  -0.66059
 Alpha  occ. eigenvalues --   -0.59833  -0.58663  -0.53670  -0.51455  -0.49043
 Alpha  occ. eigenvalues --   -0.48383  -0.45700  -0.43942  -0.42937  -0.40564
 Alpha  occ. eigenvalues --   -0.38601  -0.38389  -0.36535  -0.34603  -0.33498
 Alpha  occ. eigenvalues --   -0.30634  -0.29481  -0.26798  -0.24572
 Alpha virt. eigenvalues --   -0.02392   0.07856   0.08535   0.10356   0.12260
 Alpha virt. eigenvalues --    0.12436   0.14708   0.15744   0.15931   0.17022
 Alpha virt. eigenvalues --    0.17497   0.18239   0.21356   0.22051   0.23586

 Mulliken charges:
               1
     1  O   -0.444020
     2  C    0.025743
     3  C   -0.034015
     4  C   -0.308192
     5  C   -0.015463
     6  C   -0.250477
     7  C   -0.299687
     8  C    0.373138
     9  O   -0.338296
    10  H    0.291339
    11  H    0.088601
    12  H    0.101646
    13  H    0.112706
    14  H    0.117154
    15  H    0.090085
    16  H    0.108793
    17  H    0.108676
    18  H    0.133033
    19  H    0.139237
 Sum of Mulliken charges =   0.00000

 Dipole moment (field-independent basis, Debye):
    X=              2.5812    Y=              1.7416    Z=              0.1649  Tot=              3.1181
 Quadrupole moment (field-independent basis, Debye-Ang):
   XX=            -57.6421   YY=            -55.5219   ZZ=            -50.7848
   XY=             -0.0833   XZ=             -1.3127   YZ=              1.2427

  Exact polarizability:  84.706  -1.147  77.969   1.870   0.049  61.027
 Approx polarizability: 122.083  -0.252 109.772   5.848  -1.255  96.941

                      1                      2                      3
                      A                      A                      A
 Frequencies --     81.1270               166.7491               251.9464
 Red. masses --      5.1152                 2.4112                 2.3920
 Frc consts  --      0.0198                 0.0395                 0.0895
 IR Inten    --      0.4926                 1.5919                 0.9309

                      4                      5                      6
                      A                      A                      A
 Frequencies --    321.5668               335.6353               387.8150
 Red. masses --      3.1204                 4.0859                 5.1953
 Frc consts  --      0.1901                 0.2712                 0.4604
 IR Inten    --      6.0127                14.9520                 9.7929

                      7                      8                      9
                      A                      A                      A
 Frequencies --    424.4711               450.9487               488.0462
 Red. masses --      2.5611                 2.7500                 1.5780
 Frc consts  --      0.2719                 0.3295                 0.2214
 IR Inten    --      0.1583                15.3642                31.0551

                     10                     11                     12
                      A                      A                      A
 Frequencies --    547.7707               601.0620               617.1588
 Red. masses --      3.1040                 2.0015                 3.5200
 Frc consts  --      0.5487                 0.4260                 0.7899
 IR Inten    --     17.4995                 2.9308                 7.2334

                     13                     14                     15
                      A                      A                      A
 Frequencies --    753.1602               804.8893               827.5409
 Red. masses --      2.1113                 3.5694                 1.4318
 Frc consts  --      0.7056                 1.3624                 0.5777
 IR Inten    --      4.5426                 1.3020                 4.8442

                     16                     17                     18
                      A                      A                      A
 Frequencies --    892.9769               907.3525               938.9529
 Red. masses --      2.0101                 1.5097                 1.9774
 Frc consts  --      0.9444                 0.7323                 1.0271
 IR Inten    --      6.8605                 4.0764                 0.8265

                     19                     20                     21
                      A                      A                      A
 Frequencies --    961.4231               986.4408              1051.4061
 Red. masses --      2.3862                 3.0349                 1.7378
 Frc consts  --      1.2995                 1.7399                 1.1318
 IR Inten    --      2.2124                 4.3535                 5.9895

                     22                     23                     24
                      A                      A                      A
 Frequencies --   1071.6194              1084.8143              1122.1649
 Red. masses --      1.6679                 1.6025                 1.5494
 Frc consts  --      1.1285                 1.1111                 1.1496
 IR Inten    --     11.6136                21.0647                47.2334

                     25                     26                     27
                      A                      A                      A
 Frequencies --   1131.4328              1147.5859              1183.1415
 Red. masses --      1.4936                 2.9731                 2.5570
 Frc consts  --      1.1266                 2.3069                 2.1089
 IR Inten    --     54.0959                40.4316                14.3783

                     28                     29                     30
                      A                      A                      A
 Frequencies --   1212.8573              1216.0162              1242.3908
 Red. masses --      1.4515                 1.5417                 1.4192
 Frc consts  --      1.2580                 1.3431                 1.2906
 IR Inten    --      4.5326                 2.1338                 0.3160

                     31                     32                     33
                      A                      A                      A
 Frequencies --   1268.1843              1307.8587              1338.1783
 Red. masses --      1.3896                 1.3183                 1.3535
 Frc consts  --      1.3167                 1.3286                 1.4280
 IR Inten    --     22.3549                 2.1178                 0.0725

                     34                     35                     36
                      A                      A                      A
 Frequencies --   1354.8132              1378.7137              1411.3550
 Red. masses --      1.4783                 1.4966                 1.7718
 Frc consts  --      1.5987                 1.6761                 2.0794
 IR Inten    --     10.4649                 6.9646                 5.7456

                     37                     38                     39
                      A                      A                      A
 Frequencies --   1436.7929              1444.4972              1484.7469
 Red. masses --      1.3720                 1.0985                 1.2824
 Frc consts  --      1.6688                 1.3505                 1.6657
 IR Inten    --     75.7926                17.5205                 2.3485

                     40                     41                     42
                      A                      A                      A
 Frequencies --   1497.0940              1799.0047              2921.9727
 Red. masses --      1.1061                12.0740                 1.0793
 Frc consts  --      1.4607                23.0231                 5.4294
 IR Inten    --      7.1983               166.2922                29.3767

                     43                     44                     45
                      A                      A                      A
 Frequencies --   3036.6991              3039.2714              3075.3301
 Red. masses --      1.0644                 1.0622                 1.0961
 Frc consts  --      5.7830                 5.7809                 6.1076
 IR Inten    --      7.5409                24.9370                15.6532

                     46                     47                     48
                      A                      A                      A
 Frequencies --   3084.7111              3120.7624              3150.4089
 Red. masses --      1.1022                 1.0558                 1.0890
 Frc consts  --      6.1794                 6.0583                 6.3679
 IR Inten    --     17.3151                15.4380                15.6714

                     49                     50                     51
                      A                      A                      A
 Frequencies --   3172.5544              3211.3060              3662.4370
 Red. masses --      1.0904                 1.1144                 1.0644
 Frc consts  --      6.4663                 6.7712                 8.4118
 IR Inten    --      5.7737                12.4308                72.7342

 - Thermochemistry -
 -------------------
 Temperature   298.150 Kelvin.  Pressure   1.00000 Atm.
 Atom     1 has atomic number  8 and mass  15.99491

 Molecular mass:   126.06808 amu.
 Principal axes and moments of inertia in atomic units:
                           1         2         3
     Eigenvalues --   736.766101079.877011662.35494
           X            1.00000  -0.00003  -0.00027
           Y            0.00003   0.99997   0.00750
           Z            0.00027  -0.00750   0.99997
 This molecule is an asymmetric top.
 Rotational symmetry number  1.
 Warning -- assumption of classical behavior for rotation
           may cause significant error
 Rotational temperatures (Kelvin)      0.11756     0.08021     0.05210
 Rotational constants (GHZ):           2.44954     1.67125     1.08565
 Zero-point vibrational energy     421128.3 (Joules/Mol)
                                  100.65208 (Kcal/Mol)
 Warning -- explicit consideration of  12 degrees of freedom as
           vibrations may cause significant error
 Vibrational temperatures:    116.72   239.91   362.49   462.66   482.90
          (Kelvin)            557.98   610.72   648.81   702.19   788.12
                              864.79   887.95  1083.63  1158.05  1190.65
                             1284.79  1305.48  1350.94  1383.27  1419.27
                             1512.74  1541.82  1560.80  1614.54  1627.88
                             1651.12  1702.27  1745.03  1749.57  1787.52
                             1824.63  1881.71  1925.34  1949.27  1983.66
                             2030.62  2067.22  2078.31  2136.22  2153.98
                             2588.36  4204.06  4369.13  4372.83  4424.71
                             4438.21  4490.08  4532.73  4564.59  4620.35
                             5269.42

 Zero-point correction=                           0.160399 (Hartree/Particle)
 Thermal correction to Energy=                    0.168250
 Thermal correction to Enthalpy=                  0.169195
 Thermal correction to Gibbs Free Energy=         0.128130
 Sum of electronic and zero-point Energies=           -423.044758
 Sum of electronic and thermal Energies=              -423.036907
 Sum of electronic and thermal Enthalpies=            -423.035963
 Sum of electronic and thermal Free Energies=         -423.077027

                     E (Thermal)             CV                S
                      KCal/Mol        Cal/Mol-Kelvin    Cal/Mol-Kelvin
 Total                  105.579             31.374             86.427
 Electronic               0.000              0.000              0.000
 Translational            0.889              2.981             40.409
 Rotational               0.889              2.981             28.671
 Vibrational            103.801             25.412             17.347
 Vibration     1          0.600              1.962              3.863
 Vibration     2          0.624              1.883              2.472
 Vibration     3          0.664              1.759              1.717
 Vibration     4          0.707              1.632              1.302
 Vibration     5          0.717              1.604              1.233
 Vibration     6          0.756              1.496              1.009
 Vibration     7          0.786              1.417              0.877
 Vibration     8          0.810              1.359              0.793
 Vibration     9          0.844              1.277              0.689
 Vibration    10          0.903              1.145              0.549
 Vibration    11          0.959              1.030              0.448
 Vibration    12          0.977              0.996              0.421

 Optimization completed.
    -- Stationary point found.
 Normal termination of Gaussian 09 at Mon Jan 27 23:56:03 2020.
