 Gaussian 09, Revision D.01,
 Gaussian 09:  ES64L-G09RevD.01 24-Apr-2013

 -----------------------------
 # b3lyp 6-31G(2df,p) opt Freq
 -----------------------------

 -----
 titel
 -----
 Symbolic Z-matrix:
 Charge =  0 Multiplicity = 1

 SCF Done:  E(RB3LYP) =  -423.118250173     A.U. after   13 cycles
 Optimization completed.
    -- Stationary point found.
 Normal termination of Gaussian 09 at Mon Jan 27 18:36:48 2020.

 ----------------------------------------------------------------------
 #N Geom=AllCheck Guess=TCheck SCRF=Check GenChk RB3LYP/6-31G(2df,p) Fr
 eq
 ----------------------------------------------------------------------

 Structure from the checkpoint file:  "/scratch/puck/g09_a33746f4-80b8-4090-b57a-e696a6098c56/Gau-75802.chk"
 -----
 titel
 -----
 Charge =  0 Multiplicity = 1

                         Standard orientation:
 ---------------------------------------------------------------------
 Center     Atomic      Atomic             Coordinates (Angstroms)
 Number     Number       Type             X           Y           Z
 ---------------------------------------------------------------------
      1          6           0       -0.702737    1.968320    0.282685
      2          6           0       -0.482048    0.578617   -0.256325
      3          8           0       -1.767382   -0.086239   -0.482918
      4          6           0       -1.486201   -1.085136    0.542317
      5          6           0       -0.018475   -0.704304    0.468934
      6          6           0        1.284097   -0.386281    1.184482
      7          6           0        1.912441    0.384560   -0.053467
      8          6           0        0.754430    0.178996   -1.093764
      9          8           0        0.462556   -1.212011   -0.831530
     10          1           0       -1.278266    1.945393    1.213593
     11          1           0        0.230446    2.507172    0.463121
     12          1           0       -1.288234    2.538870   -0.446956
     13          1           0       -1.991044   -0.841929    1.485939
     14          1           0       -1.736932   -2.098357    0.218885
     15          1           0        1.148448    0.253195    2.060380
     16          1           0        1.864186   -1.265944    1.468194
     17          1           0        2.158162    1.426351    0.164962
     18          1           0        2.810200   -0.113657   -0.422772
     19          1           0        0.952590    0.426280   -2.138930
 ---------------------------------------------------------------------

 SCF Done:  E(RB3LYP) =  -423.118250173     A.U. after    1 cycles

 The electronic state is 1-A.
 Alpha  occ. eigenvalues --  -19.13520 -19.12993 -10.23967 -10.23921 -10.23750
 Alpha  occ. eigenvalues --  -10.23500 -10.19721 -10.19288 -10.18406  -1.07579
 Alpha  occ. eigenvalues --   -1.00351  -0.79937  -0.75021  -0.72077  -0.67025
 Alpha  occ. eigenvalues --   -0.65589  -0.57579  -0.51757  -0.49540  -0.49158
 Alpha  occ. eigenvalues --   -0.48110  -0.45473  -0.42288  -0.41345  -0.39638
 Alpha  occ. eigenvalues --   -0.39263  -0.36771  -0.36010  -0.35071  -0.33052
 Alpha  occ. eigenvalues --   -0.32221  -0.27270  -0.24894  -0.24768
 Alpha virt. eigenvalues --    0.06819   0.08542   0.09784   0.10465   0.12682
 Alpha virt. eigenvalues --    0.12854   0.14300   0.14846   0.16115   0.16195
 Alpha virt. eigenvalues --    0.17433   0.17625   0.19017   0.20616   0.22001

 Mulliken charges:
               1
     1  C   -0.484686
     2  C    0.444728
     3  O   -0.335455
     4  C   -0.191035
     5  C    0.321087
     6  C   -0.322029
     7  C   -0.221279
     8  C   -0.020260
     9  O   -0.322245
    10  H    0.124856
    11  H    0.120241
    12  H    0.138573
    13  H    0.102675
    14  H    0.122507
    15  H    0.106983
    16  H    0.115205
    17  H    0.102987
    18  H    0.117095
    19  H    0.080053
 Sum of Mulliken charges =   0.00000

 Dipole moment (field-independent basis, Debye):
    X=              1.1902    Y=              1.3202    Z=              1.7872  Tot=              2.5207
 Quadrupole moment (field-independent basis, Debye-Ang):
   XX=            -54.5252   YY=            -52.5502   ZZ=            -52.4553
   XY=              1.7323   XZ=             -2.5918   YZ=             -2.7750

  Exact polarizability:  79.800   2.702  74.192  -3.377  -2.290  68.650
 Approx polarizability: 112.494   3.714 110.981  -3.329  -2.112 106.343

                      1                      2                      3
                      A                      A                      A
 Frequencies --    153.0345               197.4443               254.9555
 Red. masses --      1.0482                 2.4011                 2.4510
 Frc consts  --      0.0145                 0.0552                 0.0939
 IR Inten    --      0.2194                 0.1756                 1.6264

                      4                      5                      6
                      A                      A                      A
 Frequencies --    306.9910               338.3604               399.6379
 Red. masses --      2.0970                 2.4973                 3.3587
 Frc consts  --      0.1164                 0.1685                 0.3161
 IR Inten    --      0.5428                 0.8919                 3.5218

                      7                      8                      9
                      A                      A                      A
 Frequencies --    470.6420               512.2426               585.9523
 Red. masses --      2.8571                 4.1230                 4.9643
 Frc consts  --      0.3729                 0.6374                 1.0042
 IR Inten    --      6.0096                 4.4046                 5.1085

                     10                     11                     12
                      A                      A                      A
 Frequencies --    641.3819               715.0985               782.5946
 Red. masses --      3.6653                 4.6744                 4.7897
 Frc consts  --      0.8884                 1.4083                 1.7283
 IR Inten    --      1.6006                 7.4645                11.5204

                     13                     14                     15
                      A                      A                      A
 Frequencies --    822.4875               834.4871               858.4312
 Red. masses --      2.6241                 1.4119                 2.6943
 Frc consts  --      1.0459                 0.5793                 1.1698
 IR Inten    --     18.7363                 3.9480                 1.2474

                     16                     17                     18
                      A                      A                      A
 Frequencies --    868.5364               897.8001               915.3655
 Red. masses --      3.0443                 2.4540                 2.6732
 Frc consts  --      1.3531                 1.1654                 1.3197
 IR Inten    --      9.8115                32.0619                 6.4980

                     19                     20                     21
                      A                      A                      A
 Frequencies --    954.3332               979.2321               992.8987
 Red. masses --      7.6960                 4.2598                 1.5214
 Frc consts  --      4.1297                 2.4067                 0.8837
 IR Inten    --     59.5438                47.8119                 1.7429

                     22                     23                     24
                      A                      A                      A
 Frequencies --   1044.1607              1083.1413              1120.2069
 Red. masses --      1.5954                 2.1810                 2.3139
 Frc consts  --      1.0249                 1.5076                 1.7108
 IR Inten    --      3.5829                 6.5369                10.3336

                     25                     26                     27
                      A                      A                      A
 Frequencies --   1142.2264              1170.6316              1172.1749
 Red. masses --      1.3255                 1.9467                 1.4582
 Frc consts  --      1.0189                 1.5718                 1.1805
 IR Inten    --      6.0063                 1.4244                 3.6122

                     28                     29                     30
                      A                      A                      A
 Frequencies --   1199.6543              1214.9629              1232.1137
 Red. masses --      1.6092                 1.5047                 1.6596
 Frc consts  --      1.3645                 1.3087                 1.4844
 IR Inten    --      1.2928                12.3650                11.6531

                     31                     32                     33
                      A                      A                      A
 Frequencies --   1256.1125              1288.0589              1298.9657
 Red. masses --      1.7630                 1.5098                 1.5397
 Frc consts  --      1.6389                 1.4758                 1.5307
 IR Inten    --     12.8569                 0.1833                 3.8908

                     34                     35                     36
                      A                      A                      A
 Frequencies --   1332.0973              1360.9276              1409.4722
 Red. masses --      2.5883                 2.3279                 1.3239
 Frc consts  --      2.7061                 2.5403                 1.5496
 IR Inten    --      8.1269                 3.0659                11.0281

                     37                     38                     39
                      A                      A                      A
 Frequencies --   1475.7323              1480.8408              1490.8122
 Red. masses --      1.0831                 1.0586                 1.0640
 Frc consts  --      1.3897                 1.3678                 1.3933
 IR Inten    --      0.2404                 5.0155                 2.8691

                     40                     41                     42
                      A                      A                      A
 Frequencies --   1497.0298              1501.9314              3021.1400
 Red. masses --      1.1136                 1.1184                 1.0620
 Frc consts  --      1.4704                 1.4864                 5.7111
 IR Inten    --      0.3464                 3.9968                60.3291

                     43                     44                     45
                      A                      A                      A
 Frequencies --   3037.4647              3068.6330              3076.8316
 Red. masses --      1.0367                 1.0590                 1.0612
 Frc consts  --      5.6353                 5.8756                 5.9192
 IR Inten    --     15.1269                22.8236                30.7564

                     46                     47                     48
                      A                      A                      A
 Frequencies --   3097.7010              3098.7930              3104.7864
 Red. masses --      1.0998                 1.0897                 1.1031
 Frc consts  --      6.2181                 6.1650                 6.2651
 IR Inten    --      8.8518                55.7383                24.6048

                     49                     50                     51
                      A                      A                      A
 Frequencies --   3117.0825              3122.4674              3134.9250
 Red. masses --      1.1063                 1.1009                 1.1059
 Frc consts  --      6.3330                 6.3238                 6.4034
 IR Inten    --      3.9065                25.4742                32.2117

 - Thermochemistry -
 -------------------
 Temperature   298.150 Kelvin.  Pressure   1.00000 Atm.
 Atom     1 has atomic number  6 and mass  12.00000

 Molecular mass:   126.06808 amu.
 Principal axes and moments of inertia in atomic units:
                           1         2         3
     Eigenvalues --   688.83527 918.152311112.79548
           X            0.99967   0.02013  -0.01595
           Y           -0.02047   0.99957  -0.02096
           Z            0.01552   0.02128   0.99965
 This molecule is an asymmetric top.
 Rotational symmetry number  1.
 Warning -- assumption of classical behavior for rotation
           may cause significant error
 Rotational temperatures (Kelvin)      0.12574     0.09433     0.07783
 Rotational constants (GHZ):           2.61999     1.96562     1.62181
 Zero-point vibrational energy     419488.4 (Joules/Mol)
                                  100.26014 (Kcal/Mol)
 Warning -- explicit consideration of   9 degrees of freedom as
           vibrations may cause significant error
 Vibrational temperatures:    220.18   284.08   366.82   441.69   486.82
          (Kelvin)            574.99   677.15   737.00   843.05   922.80
                             1028.87  1125.98  1183.37  1200.64  1235.09
                             1249.63  1291.73  1317.01  1373.07  1408.89
                             1428.56  1502.31  1558.40  1611.73  1643.41
                             1684.28  1686.50  1726.03  1748.06  1772.73
                             1807.26  1853.23  1868.92  1916.59  1958.07
                             2027.91  2123.25  2130.60  2144.94  2153.89
                             2160.94  4346.74  4370.23  4415.07  4426.87
                             4456.90  4458.47  4467.09  4484.78  4492.53
                             4510.45

 Zero-point correction=                           0.159775 (Hartree/Particle)
 Thermal correction to Energy=                    0.167111
 Thermal correction to Enthalpy=                  0.168055
 Thermal correction to Gibbs Free Energy=         0.128529
 Sum of electronic and zero-point Energies=           -422.958475
 Sum of electronic and thermal Energies=              -422.951140
 Sum of electronic and thermal Enthalpies=            -422.950195
 Sum of electronic and thermal Free Energies=         -422.989721

                     E (Thermal)             CV                S
                      KCal/Mol        Cal/Mol-Kelvin    Cal/Mol-Kelvin
 Total                  104.863             30.115             83.189
 Electronic               0.000              0.000              0.000
 Translational            0.889              2.981             40.409
 Rotational               0.889              2.981             28.045
 Vibrational            103.086             24.154             14.736
 Vibration     1          0.619              1.899              2.634
 Vibration     2          0.637              1.843              2.157
 Vibration     3          0.665              1.754              1.696
 Vibration     4          0.697              1.660              1.379
 Vibration     5          0.719              1.599              1.220
 Vibration     6          0.766              1.471              0.964
 Vibration     7          0.828              1.315              0.736
 Vibration     8          0.867              1.223              0.628
 Vibration     9          0.943              1.062              0.474

 Optimization completed.
    -- Stationary point found.
 Normal termination of Gaussian 09 at Mon Jan 27 19:36:52 2020.
