 Gaussian 09, Revision D.01,
 Gaussian 09:  ES64L-G09RevD.01 24-Apr-2013

 -----------------------------
 # b3lyp 6-31G(2df,p) opt Freq
 -----------------------------

 -----
 titel
 -----
 Symbolic Z-matrix:
 Charge =  0 Multiplicity = 1

 SCF Done:  E(RB3LYP) =  -423.171485929     A.U. after   14 cycles
 Optimization completed.
    -- Stationary point found.
 Normal termination of Gaussian 09 at Mon Jan 27 14:06:43 2020.

 ----------------------------------------------------------------------
 #N Geom=AllCheck Guess=TCheck SCRF=Check GenChk RB3LYP/6-31G(2df,p) Fr
 eq
 ----------------------------------------------------------------------

 Structure from the checkpoint file:  "/scratch/puck/g09_efb98db9-008c-4517-a1f4-9b673477baf2/Gau-41055.chk"
 -----
 titel
 -----
 Charge =  0 Multiplicity = 1

                         Standard orientation:
 ---------------------------------------------------------------------
 Center     Atomic      Atomic             Coordinates (Angstroms)
 Number     Number       Type             X           Y           Z
 ---------------------------------------------------------------------
      1          6           0        2.204781    1.147816    0.185853
      2          6           0        1.515905   -0.176467   -0.098511
      3          8           0        2.089047   -1.075501   -0.683322
      4          6           0        0.122632   -0.357524    0.355079
      5          6           0       -0.640752    0.488573    1.373155
      6          6           0       -1.193760    0.391423   -0.001874
      7          6           0       -1.522710    1.515648   -0.928301
      8          8           0       -1.902240   -0.828571   -0.179821
      9          6           0       -0.695844   -1.607451    0.068757
     10          1           0        2.356598    1.271965    1.263946
     11          1           0        3.172340    1.158700   -0.316876
     12          1           0        1.604214    1.997747   -0.155820
     13          1           0       -1.142898   -0.012907    2.196691
     14          1           0       -0.169878    1.432206    1.628142
     15          1           0       -0.875174    2.377653   -0.747748
     16          1           0       -1.424144    1.206295   -1.972558
     17          1           0       -2.558743    1.834219   -0.764543
     18          1           0       -0.828462   -2.323518    0.887086
     19          1           0       -0.369808   -2.121889   -0.838124
 ---------------------------------------------------------------------

 SCF Done:  E(RB3LYP) =  -423.171485929     A.U. after    1 cycles

 The electronic state is 1-A.
 Alpha  occ. eigenvalues --  -19.14583 -19.12190 -10.26993 -10.26482 -10.23608
 Alpha  occ. eigenvalues --  -10.20771 -10.20460 -10.19694 -10.19113  -1.06252
 Alpha  occ. eigenvalues --   -1.03220  -0.84989  -0.75860  -0.74319  -0.69263
 Alpha  occ. eigenvalues --   -0.62516  -0.58573  -0.51036  -0.50291  -0.48994
 Alpha  occ. eigenvalues --   -0.46593  -0.44213  -0.43315  -0.42138  -0.41434
 Alpha  occ. eigenvalues --   -0.40369  -0.39950  -0.39432  -0.36614  -0.35255
 Alpha  occ. eigenvalues --   -0.32637  -0.27634  -0.25284  -0.23674
 Alpha virt. eigenvalues --   -0.01768   0.06645   0.08596   0.10780   0.11731
 Alpha virt. eigenvalues --    0.12571   0.13183   0.14154   0.15730   0.16313
 Alpha virt. eigenvalues --    0.17158   0.18417   0.19643   0.21121   0.21582

 Mulliken charges:
               1
     1  C   -0.503239
     2  C    0.288142
     3  O   -0.319036
     4  C    0.124209
     5  C   -0.395165
     6  C    0.428965
     7  C   -0.485215
     8  O   -0.315414
     9  C   -0.139934
    10  H    0.144133
    11  H    0.145069
    12  H    0.132903
    13  H    0.121486
    14  H    0.121364
    15  H    0.127591
    16  H    0.139757
    17  H    0.142354
    18  H    0.108634
    19  H    0.133396
 Sum of Mulliken charges =   0.00000

 Dipole moment (field-independent basis, Debye):
    X=             -0.5007    Y=              2.6825    Z=              1.3779  Tot=              3.0569
 Quadrupole moment (field-independent basis, Debye-Ang):
   XX=            -60.2216   YY=            -51.5382   ZZ=            -52.0548
   XY=              2.5072   XZ=              2.3253   YZ=             -2.0099

  Exact polarizability:  85.198  -2.613  79.878  -2.007   2.615  67.427
 Approx polarizability: 126.330 -11.990 118.650  -5.397   9.825 103.078

                      1                      2                      3
                      A                      A                      A
 Frequencies --     71.5807               121.3246               144.0814
 Red. masses --      4.2819                 3.2235                 1.0409
 Frc consts  --      0.0129                 0.0280                 0.0127
 IR Inten    --      2.6620                 0.8172                 0.0395

                      4                      5                      6
                      A                      A                      A
 Frequencies --    178.4531               203.9138               247.6699
 Red. masses --      1.3994                 2.0437                 2.4943
 Frc consts  --      0.0263                 0.0501                 0.0901
 IR Inten    --      0.8876                 2.7362                 6.0820

                      7                      8                      9
                      A                      A                      A
 Frequencies --    330.6244               363.1743               424.6071
 Red. masses --      2.9328                 2.8642                 2.5374
 Frc consts  --      0.1889                 0.2226                 0.2695
 IR Inten    --      2.3689                 3.7099                 4.8495

                     10                     11                     12
                      A                      A                      A
 Frequencies --    456.6320               494.4646               589.0106
 Red. masses --      2.6135                 4.2290                 2.7253
 Frc consts  --      0.3211                 0.6092                 0.5571
 IR Inten    --      2.5788                 9.3895                 3.3626

                     13                     14                     15
                      A                      A                      A
 Frequencies --    605.7685               687.1311               757.0178
 Red. masses --      3.3981                 3.2732                 3.4895
 Frc consts  --      0.7347                 0.9106                 1.1782
 IR Inten    --      8.5414                 3.6294                 0.5910

                     16                     17                     18
                      A                      A                      A
 Frequencies --    794.8915               916.3671               944.5168
 Red. masses --      4.3408                 1.9663                 1.7348
 Frc consts  --      1.6160                 0.9728                 0.9118
 IR Inten    --     57.9583                 8.2305                10.1112

                     19                     20                     21
                      A                      A                      A
 Frequencies --    954.1350               979.8930               986.2485
 Red. masses --      1.3966                 1.8297                 4.5697
 Frc consts  --      0.7491                 1.0351                 2.6188
 IR Inten    --     29.2840                 5.7109                65.6274

                     22                     23                     24
                      A                      A                      A
 Frequencies --   1023.2290              1045.9487              1065.1539
 Red. masses --      1.8299                 1.9544                 1.3651
 Frc consts  --      1.1288                 1.2597                 0.9125
 IR Inten    --      1.6129                 5.9915                 9.1898

                     25                     26                     27
                      A                      A                      A
 Frequencies --   1099.8545              1132.9221              1153.6491
 Red. masses --      1.6632                 1.7596                 1.4151
 Frc consts  --      1.1854                 1.3307                 1.1097
 IR Inten    --     28.5458                11.0303                27.7091

                     28                     29                     30
                      A                      A                      A
 Frequencies --   1178.8024              1234.5273              1320.1642
 Red. masses --      2.8296                 2.9060                 1.6685
 Frc consts  --      2.3167                 2.6095                 1.7133
 IR Inten    --     17.1759                47.2235                13.7204

                     31                     32                     33
                      A                      A                      A
 Frequencies --   1350.5462              1377.2060              1401.4439
 Red. masses --      2.4223                 1.3484                 1.8522
 Frc consts  --      2.6031                 1.5069                 2.1433
 IR Inten    --     17.7641                 9.1417                91.9850

                     34                     35                     36
                      A                      A                      A
 Frequencies --   1427.1522              1464.6235              1471.6280
 Red. masses --      1.6403                 1.0933                 1.0573
 Frc consts  --      1.9684                 1.3817                 1.3491
 IR Inten    --     24.1053                 4.8195                 5.5715

                     37                     38                     39
                      A                      A                      A
 Frequencies --   1475.3303              1485.5669              1499.2720
 Red. masses --      1.0850                 1.2545                 1.2204
 Frc consts  --      1.3914                 1.6311                 1.6163
 IR Inten    --     13.8598                11.2466                 7.4334

                     40                     41                     42
                      A                      A                      A
 Frequencies --   1518.6197              1768.2164              3036.5812
 Red. masses --      1.1396                10.9009                 1.0370
 Frc consts  --      1.5484                20.0810                 5.6336
 IR Inten    --      1.8642               197.4350                13.9017

                     43                     44                     45
                      A                      A                      A
 Frequencies --   3037.4759              3042.7269              3098.2960
 Red. masses --      1.0372                 1.0595                 1.0986
 Frc consts  --      5.6382                 5.7791                 6.2134
 IR Inten    --      9.0507                52.4789                10.0593

                     46                     47                     48
                      A                      A                      A
 Frequencies --   3102.0841              3112.3585              3114.5932
 Red. masses --      1.0981                 1.1067                 1.0568
 Frc consts  --      6.2260                 6.3161                 6.0401
 IR Inten    --     10.7644                15.1015                 9.2110

                     49                     50                     51
                      A                      A                      A
 Frequencies --   3125.5735              3153.1515              3212.2444
 Red. masses --      1.1017                 1.1010                 1.1138
 Frc consts  --      6.3411                 6.4495                 6.7714
 IR Inten    --     15.3067                 9.6044                 5.8315

 - Thermochemistry -
 -------------------
 Temperature   298.150 Kelvin.  Pressure   1.00000 Atm.
 Atom     1 has atomic number  6 and mass  12.00000

 Molecular mass:   126.06808 amu.
 Principal axes and moments of inertia in atomic units:
                           1         2         3
     Eigenvalues --   708.686941279.374911568.45505
           X            0.99957   0.02465   0.01569
           Y           -0.02416   0.99925  -0.03039
           Z           -0.01642   0.03000   0.99941
 This molecule is an asymmetric top.
 Rotational symmetry number  1.
 Warning -- assumption of classical behavior for rotation
           may cause significant error
 Rotational temperatures (Kelvin)      0.12222     0.06770     0.05522
 Rotational constants (GHZ):           2.54660     1.41064     1.15065
 Zero-point vibrational energy     411398.4 (Joules/Mol)
                                   98.32659 (Kcal/Mol)
 Warning -- explicit consideration of  13 degrees of freedom as
           vibrations may cause significant error
 Vibrational temperatures:    102.99   174.56   207.30   256.75   293.39
          (Kelvin)            356.34   475.69   522.53   610.91   656.99
                              711.42   847.45   871.56   988.63  1089.18
                             1143.67  1318.45  1358.95  1372.79  1409.85
                             1418.99  1472.20  1504.89  1532.52  1582.44
                             1630.02  1659.84  1696.03  1776.21  1899.42
                             1943.13  1981.49  2016.36  2053.35  2107.26
                             2117.34  2122.67  2137.40  2157.12  2184.95
                             2544.07  4368.96  4370.24  4377.80  4457.75
                             4463.20  4477.98  4481.20  4497.00  4536.68
                             4621.70

 Zero-point correction=                           0.156693 (Hartree/Particle)
 Thermal correction to Energy=                    0.165906
 Thermal correction to Enthalpy=                  0.166850
 Thermal correction to Gibbs Free Energy=         0.122721
 Sum of electronic and zero-point Energies=           -423.014793
 Sum of electronic and thermal Energies=              -423.005580
 Sum of electronic and thermal Enthalpies=            -423.004636
 Sum of electronic and thermal Free Energies=         -423.048765

                     E (Thermal)             CV                S
                      KCal/Mol        Cal/Mol-Kelvin    Cal/Mol-Kelvin
 Total                  104.108             34.131             92.879
 Electronic               0.000              0.000              0.000
 Translational            0.889              2.981             40.409
 Rotational               0.889              2.981             28.743
 Vibrational            102.330             28.169             23.727
 Vibration     1          0.598              1.968              4.109
 Vibration     2          0.609              1.931              3.079
 Vibration     3          0.616              1.909              2.749
 Vibration     4          0.629              1.869              2.345
 Vibration     5          0.640              1.834              2.097
 Vibration     6          0.661              1.767              1.747
 Vibration     7          0.713              1.614              1.257
 Vibration     8          0.737              1.548              1.108
 Vibration     9          0.787              1.417              0.876
 Vibration    10          0.815              1.346              0.776
 Vibration    11          0.850              1.262              0.672
 Vibration    12          0.946              1.055              0.469
 Vibration    13          0.964              1.020              0.440

 Normal termination of Gaussian 09 at Mon Jan 27 14:49:44 2020.
