 Gaussian 09, Revision D.01,
 Gaussian 09:  ES64L-G09RevD.01 24-Apr-2013

 -----------------------------
 # b3lyp 6-31G(2df,p) opt Freq
 -----------------------------

 -----
 titel
 -----
 Symbolic Z-matrix:
 Charge =  0 Multiplicity = 1

 SCF Done:  E(RB3LYP) =  -423.172242372     A.U. after   14 cycles
 Optimization completed.
    -- Stationary point found.
 Normal termination of Gaussian 09 at Mon Jan 27 16:08:47 2020.

 ----------------------------------------------------------------------
 #N Geom=AllCheck Guess=TCheck SCRF=Check GenChk RB3LYP/6-31G(2df,p) Fr
 eq
 ----------------------------------------------------------------------

 Structure from the checkpoint file:  "/scratch/puck/g09_c20bb497-7f2d-42e5-a155-bb1ff897e4f8/Gau-83674.chk"
 -----
 titel
 -----
 Charge =  0 Multiplicity = 1

                         Standard orientation:
 ---------------------------------------------------------------------
 Center     Atomic      Atomic             Coordinates (Angstroms)
 Number     Number       Type             X           Y           Z
 ---------------------------------------------------------------------
      1          6           0        1.231353   -1.037786    1.276322
      2          6           0        0.835547   -0.343825   -0.020353
      3          6           0        1.983613   -0.305235   -1.042050
      4          6           0       -0.502592   -0.772433   -0.704916
      5          8           0       -1.526575   -1.178355    0.224689
      6          6           0       -2.140957    0.129051    0.204858
      7          6           0       -1.027020    0.697719   -0.704691
      8          6           0        0.228108    1.078629    0.097508
      9          8           0        0.605871    2.093056    0.608725
     10          1           0        0.360003   -1.186874    1.917668
     11          1           0        1.676910   -2.017989    1.074313
     12          1           0        1.967151   -0.434609    1.817272
     13          1           0        1.682046    0.170586   -1.982065
     14          1           0        2.830708    0.258196   -0.640468
     15          1           0        2.318409   -1.322485   -1.270987
     16          1           0       -0.442750   -1.423780   -1.579933
     17          1           0       -3.124723    0.097527   -0.278038
     18          1           0       -2.241134    0.568274    1.203494
     19          1           0       -1.309311    1.296834   -1.568636
 ---------------------------------------------------------------------

 SCF Done:  E(RB3LYP) =  -423.172242372     A.U. after    1 cycles

 The electronic state is 1-A.
 Alpha  occ. eigenvalues --  -19.14578 -19.14169 -10.26955 -10.24747 -10.24427
 Alpha  occ. eigenvalues --  -10.20369 -10.20342 -10.19160 -10.17829  -1.05732
 Alpha  occ. eigenvalues --   -1.04549  -0.84380  -0.76298  -0.70009  -0.69567
 Alpha  occ. eigenvalues --   -0.61448  -0.58451  -0.51209  -0.49902  -0.48365
 Alpha  occ. eigenvalues --   -0.47323  -0.44892  -0.43150  -0.41877  -0.41214
 Alpha  occ. eigenvalues --   -0.39461  -0.38539  -0.37634  -0.35753  -0.34920
 Alpha  occ. eigenvalues --   -0.32353  -0.30643  -0.25764  -0.24035
 Alpha virt. eigenvalues --   -0.02683   0.06916   0.08628   0.11557   0.11817
 Alpha virt. eigenvalues --    0.12366   0.13929   0.15264   0.15426   0.16060
 Alpha virt. eigenvalues --    0.17445   0.18404   0.19545   0.19969   0.20651

 Mulliken charges:
               1
     1  C   -0.448570
     2  C    0.155320
     3  C   -0.436809
     4  C    0.079990
     5  O   -0.286543
     6  C   -0.090047
     7  C   -0.226811
     8  C    0.380770
     9  O   -0.311299
    10  H    0.135548
    11  H    0.116160
    12  H    0.130786
    13  H    0.119301
    14  H    0.138192
    15  H    0.123822
    16  H    0.079035
    17  H    0.114798
    18  H    0.121784
    19  H    0.104574
 Sum of Mulliken charges =   0.00000

 Dipole moment (field-independent basis, Debye):
    X=             -0.3040    Y=             -0.9400    Z=             -1.7163  Tot=              1.9804
 Quadrupole moment (field-independent basis, Debye-Ang):
   XX=            -50.5949   YY=            -60.6871   ZZ=            -51.6884
   XY=             -5.4139   XZ=             -0.1310   YZ=             -1.3106

  Exact polarizability:  84.540  -3.278  72.580   0.701   1.961  68.625
 Approx polarizability: 112.912   0.689 116.136   1.657   6.916 102.052

                      1                      2                      3
                      A                      A                      A
 Frequencies --     77.0149               164.4413               183.8313
 Red. masses --      4.0724                 3.3369                 1.1000
 Frc consts  --      0.0142                 0.0532                 0.0219
 IR Inten    --      5.5657                 1.0635                 0.5529

                      4                      5                      6
                      A                      A                      A
 Frequencies --    210.6671               233.6742               239.7471
 Red. masses --      3.1555                 1.2835                 2.6978
 Frc consts  --      0.0825                 0.0413                 0.0914
 IR Inten    --      0.8057                 0.3076                 4.9163

                      7                      8                      9
                      A                      A                      A
 Frequencies --    277.0147               308.0910               447.4371
 Red. masses --      2.0679                 2.6222                 3.9161
 Frc consts  --      0.0935                 0.1466                 0.4619
 IR Inten    --      1.0923                 1.7144                 5.3566

                     10                     11                     12
                      A                      A                      A
 Frequencies --    491.1556               622.5163               669.0070
 Red. masses --      3.7065                 3.6085                 3.5755
 Frc consts  --      0.5268                 0.8239                 0.9429
 IR Inten    --      1.5711                 1.9566                 0.5143

                     13                     14                     15
                      A                      A                      A
 Frequencies --    723.1609               796.8554               835.8245
 Red. masses --      3.3603                 2.7934                 2.0542
 Frc consts  --      1.0354                 1.0451                 0.8455
 IR Inten    --      0.4699                 2.7238                 5.0225

                     16                     17                     18
                      A                      A                      A
 Frequencies --    890.3419               930.3365               954.0322
 Red. masses --      3.4460                 2.2015                 2.3255
 Frc consts  --      1.6094                 1.1227                 1.2471
 IR Inten    --      8.2620                 8.8037                18.0866

                     19                     20                     21
                      A                      A                      A
 Frequencies --    964.0692               985.3451              1010.1325
 Red. masses --      1.3869                 2.4416                 1.5449
 Frc consts  --      0.7595                 1.3967                 0.9288
 IR Inten    --      4.7070                 4.7502                 9.0526

                     22                     23                     24
                      A                      A                      A
 Frequencies --   1023.2954              1042.4014              1067.1546
 Red. masses --      3.7808                 3.1354                 2.4355
 Frc consts  --      2.3326                 2.0073                 1.6341
 IR Inten    --     62.6214                73.6311                18.4948

                     25                     26                     27
                      A                      A                      A
 Frequencies --   1144.9171              1164.2536              1173.2367
 Red. masses --      1.7214                 1.4765                 1.5998
 Frc consts  --      1.3295                 1.1791                 1.2974
 IR Inten    --      4.9252                12.8506                 1.5216

                     28                     29                     30
                      A                      A                      A
 Frequencies --   1188.8998              1230.0772              1245.4998
 Red. masses --      2.2486                 2.3233                 1.7247
 Frc consts  --      1.8726                 2.0712                 1.5764
 IR Inten    --      2.6229                 9.6041                13.5853

                     31                     32                     33
                      A                      A                      A
 Frequencies --   1276.5090              1309.0677              1352.6137
 Red. masses --      2.0800                 1.6992                 1.4044
 Frc consts  --      1.9969                 1.7156                 1.5138
 IR Inten    --      0.5979                13.6141                 4.6469

                     34                     35                     36
                      A                      A                      A
 Frequencies --   1392.9309              1414.1557              1481.8277
 Red. masses --      1.2293                 1.2118                 1.0476
 Frc consts  --      1.4053                 1.4279                 1.3553
 IR Inten    --      4.0598                 4.8121                 5.0944

                     37                     38                     39
                      A                      A                      A
 Frequencies --   1484.6320              1500.2780              1507.8207
 Red. masses --      1.0457                 1.0600                 1.0541
 Frc consts  --      1.3580                 1.4057                 1.4120
 IR Inten    --      0.1711                 3.6335                 8.5804

                     40                     41                     42
                      A                      A                      A
 Frequencies --   1523.2391              1884.4758              3023.5591
 Red. masses --      1.0930                12.5316                 1.0556
 Frc consts  --      1.4941                26.2203                 5.6859
 IR Inten    --      0.3666               224.3177                74.4824

                     43                     44                     45
                      A                      A                      A
 Frequencies --   3027.7829              3036.6245              3073.0487
 Red. masses --      1.0349                 1.0369                 1.1107
 Frc consts  --      5.5896                 5.6332                 6.1799
 IR Inten    --     17.7504                22.3870                24.8383

                     46                     47                     48
                      A                      A                      A
 Frequencies --   3085.5092              3094.0492              3102.1565
 Red. masses --      1.0892                 1.1011                 1.1003
 Frc consts  --      6.1094                 6.2106                 6.2386
 IR Inten    --     36.9974                19.4995                14.2155

                     49                     50                     51
                      A                      A                      A
 Frequencies --   3114.2323              3129.5907              3132.4281
 Red. masses --      1.1015                 1.1003                 1.0904
 Frc consts  --      6.2939                 6.3495                 6.3038
 IR Inten    --     17.2145                10.7250                14.0660

 - Thermochemistry -
 -------------------
 Temperature   298.150 Kelvin.  Pressure   1.00000 Atm.
 Atom     1 has atomic number  6 and mass  12.00000

 Molecular mass:   126.06808 amu.
 Principal axes and moments of inertia in atomic units:
                           1         2         3
     Eigenvalues --   778.222551077.392321338.22979
           X            0.99356  -0.11324  -0.00476
           Y            0.11295   0.99274  -0.04145
           Z            0.00942   0.04064   0.99913
 This molecule is an asymmetric top.
 Rotational symmetry number  1.
 Warning -- assumption of classical behavior for rotation
           may cause significant error
 Rotational temperatures (Kelvin)      0.11130     0.08039     0.06472
 Rotational constants (GHZ):           2.31906     1.67510     1.34860
 Zero-point vibrational energy     414152.9 (Joules/Mol)
                                   98.98493 (Kcal/Mol)
 Warning -- explicit consideration of  10 degrees of freedom as
           vibrations may cause significant error
 Vibrational temperatures:    110.81   236.59   264.49   303.10   336.20
          (Kelvin)            344.94   398.56   443.27   643.76   706.66
                              895.66   962.55  1040.47  1146.50  1202.56
                             1281.00  1338.55  1372.64  1387.08  1417.69
                             1453.35  1472.29  1499.78  1535.40  1647.28
                             1675.10  1688.02  1710.56  1769.80  1791.99
                             1836.61  1883.45  1946.11  2004.11  2034.65
                             2132.02  2136.05  2158.56  2169.42  2191.60
                             2711.34  4350.22  4356.30  4369.02  4421.43
                             4439.35  4451.64  4463.31  4480.68  4502.78
                             4506.86

 Zero-point correction=                           0.157743 (Hartree/Particle)
 Thermal correction to Energy=                    0.166533
 Thermal correction to Enthalpy=                  0.167477
 Thermal correction to Gibbs Free Energy=         0.124455
 Sum of electronic and zero-point Energies=           -423.014500
 Sum of electronic and thermal Energies=              -423.005710
 Sum of electronic and thermal Enthalpies=            -423.004766
 Sum of electronic and thermal Free Energies=         -423.047788

                     E (Thermal)             CV                S
                      KCal/Mol        Cal/Mol-Kelvin    Cal/Mol-Kelvin
 Total                  104.501             32.868             90.548
 Electronic               0.000              0.000              0.000
 Translational            0.889              2.981             40.409
 Rotational               0.889              2.981             28.508
 Vibrational            102.723             26.906             21.631
 Vibration     1          0.599              1.964              3.966
 Vibration     2          0.623              1.886              2.498
 Vibration     3          0.631              1.862              2.289
 Vibration     4          0.643              1.825              2.038
 Vibration     5          0.654              1.789              1.851
 Vibration     6          0.657              1.780              1.805
 Vibration     7          0.678              1.716              1.552
 Vibration     8          0.698              1.658              1.373
 Vibration     9          0.807              1.367              0.804
 Vibration    10          0.847              1.270              0.681

 Optimization completed.
    -- Stationary point found.
 Normal termination of Gaussian 09 at Mon Jan 27 16:56:44 2020.
 Normal termination of Gaussian 09 at Mon Jan 27 16:11:49 2020.
