 Gaussian 09, Revision D.01,
 Gaussian 09:  ES64L-G09RevD.01 24-Apr-2013

 -----------------------------
 # b3lyp 6-31G(2df,p) opt Freq
 -----------------------------

 -----
 titel
 -----
 Symbolic Z-matrix:
 Charge =  0 Multiplicity = 1

 SCF Done:  E(RB3LYP) =  -423.168746023     A.U. after   13 cycles
 Optimization completed.
    -- Stationary point found.
 Normal termination of Gaussian 09 at Mon Jan 27 22:54:35 2020.

 ----------------------------------------------------------------------
 #N Geom=AllCheck Guess=TCheck SCRF=Check GenChk RB3LYP/6-31G(2df,p) Fr
 eq
 ----------------------------------------------------------------------

 Structure from the checkpoint file:  "/scratch/puck/g09_a7a70ac4-3d16-4c61-8695-e2f35c3a4dbd/Gau-75167.chk"
 -----
 titel
 -----
 Charge =  0 Multiplicity = 1

                         Standard orientation:
 ---------------------------------------------------------------------
 Center     Atomic      Atomic             Coordinates (Angstroms)
 Number     Number       Type             X           Y           Z
 ---------------------------------------------------------------------
      1          6           0       -1.161871    1.627981    0.767626
      2          6           0       -0.411992    0.549409    0.027159
      3          8           0        0.646526    1.035104   -0.765458
      4          6           0        1.954592    0.760591   -0.279418
      5          6           0        2.160621   -0.689625    0.078241
      6          6           0        1.133871   -1.433558    0.486337
      7          6           0       -0.210799   -0.828879    0.621503
      8          6           0       -1.131817   -0.617811   -0.585779
      9          8           0       -2.513164   -0.688502   -0.413137
     10          1           0       -2.052266    1.218641    1.249330
     11          1           0       -0.526990    2.089491    1.531471
     12          1           0       -1.477127    2.408660    0.068188
     13          1           0        2.632459    1.060503   -1.085063
     14          1           0        2.189408    1.400696    0.588955
     15          1           0        3.165115   -1.093150   -0.005509
     16          1           0        1.259400   -2.483723    0.736440
     17          1           0       -0.744646   -1.022645    1.548980
     18          1           0       -0.747578   -0.943088   -1.552008
     19          1           0       -2.760305   -1.616853   -0.346039
 ---------------------------------------------------------------------

 SCF Done:  E(RB3LYP) =  -423.168746023     A.U. after    1 cycles

 The electronic state is 1-A.
 Alpha  occ. eigenvalues --  -19.14676 -19.13740 -10.23391 -10.23109 -10.23007
 Alpha  occ. eigenvalues --  -10.18854 -10.18557 -10.18142 -10.16963  -1.03976
 Alpha  occ. eigenvalues --   -1.02560  -0.84548  -0.78923  -0.70637  -0.67706
 Alpha  occ. eigenvalues --   -0.62188  -0.57592  -0.52019  -0.50569  -0.49287
 Alpha  occ. eigenvalues --   -0.48406  -0.45138  -0.41700  -0.40831  -0.40032
 Alpha  occ. eigenvalues --   -0.39332  -0.38282  -0.36516  -0.34492  -0.32596
 Alpha  occ. eigenvalues --   -0.28799  -0.26674  -0.24752  -0.22488
 Alpha virt. eigenvalues --    0.01348   0.07871   0.09713   0.11880   0.12542
 Alpha virt. eigenvalues --    0.14117   0.15045   0.15558   0.16219   0.17340
 Alpha virt. eigenvalues --    0.18012   0.19701   0.20653   0.21279   0.23921

 Mulliken charges:
               1
     1  C   -0.451415
     2  C    0.376587
     3  O   -0.299493
     4  C   -0.131196
     5  C   -0.081523
     6  C   -0.080877
     7  C   -0.190956
     8  C    0.030968
     9  O   -0.422100
    10  H    0.129575
    11  H    0.112360
    12  H    0.127053
    13  H    0.114328
    14  H    0.102688
    15  H    0.093966
    16  H    0.090038
    17  H    0.095344
    18  H    0.095249
    19  H    0.289404
 Sum of Mulliken charges =   0.00000

 Dipole moment (field-independent basis, Debye):
    X=              0.6756    Y=             -1.7334    Z=              0.9916  Tot=              2.1082
 Quadrupole moment (field-independent basis, Debye-Ang):
   XX=            -50.7294   YY=            -49.6646   ZZ=            -54.2340
   XY=              3.7759   XZ=             -1.1434   YZ=              1.2935

  Exact polarizability:  94.697   3.618  78.053  -2.872  -1.721  59.992
 Approx polarizability: 134.547  12.278 113.694  -4.545  -7.254  94.381

                      1                      2                      3
                      A                      A                      A
 Frequencies --    130.9337               161.7612               189.8343
 Red. masses --      3.1605                 2.4468                 1.0717
 Frc consts  --      0.0319                 0.0377                 0.0228
 IR Inten    --      1.3287                 0.8049                 1.6160

                      4                      5                      6
                      A                      A                      A
 Frequencies --    228.8986               262.9315               298.5121
 Red. masses --      3.3489                 1.8180                 1.6000
 Frc consts  --      0.1034                 0.0740                 0.0840
 IR Inten    --      5.8997                25.2834                66.4706

                      7                      8                      9
                      A                      A                      A
 Frequencies --    344.2239               391.4442               416.6560
 Red. masses --      2.5782                 3.5958                 3.5200
 Frc consts  --      0.1800                 0.3246                 0.3600
 IR Inten    --     18.8274                 9.1991                 2.0549

                     10                     11                     12
                      A                      A                      A
 Frequencies --    471.4249               535.7525               594.5260
 Red. masses --      3.7058                 4.7082                 3.7647
 Frc consts  --      0.4852                 0.7962                 0.7840
 IR Inten    --      2.3978                 6.2582                 4.2659

                     13                     14                     15
                      A                      A                      A
 Frequencies --    686.8023               709.7892               842.3541
 Red. masses --      2.3489                 1.8651                 3.8751
 Frc consts  --      0.6528                 0.5536                 1.6200
 IR Inten    --     18.4918                10.5101                 1.5875

                     16                     17                     18
                      A                      A                      A
 Frequencies --    848.3353               910.2948               945.5801
 Red. masses --      2.6708                 2.9384                 2.6535
 Frc consts  --      1.1325                 1.4346                 1.3978
 IR Inten    --     10.5784                 7.0441                 4.0668

                     19                     20                     21
                      A                      A                      A
 Frequencies --    972.7351               978.2578               987.7449
 Red. masses --      1.7135                 1.3122                 1.7410
 Frc consts  --      0.9553                 0.7399                 1.0008
 IR Inten    --      0.9431                 7.6965                 3.4061

                     22                     23                     24
                      A                      A                      A
 Frequencies --   1042.6342              1061.2541              1079.5452
 Red. masses --      1.6059                 1.7114                 1.8400
 Frc consts  --      1.0285                 1.1357                 1.2634
 IR Inten    --      5.8034                 3.9687                 0.8135

                     25                     26                     27
                      A                      A                      A
 Frequencies --   1103.4518              1136.2892              1150.6878
 Red. masses --      2.2338                 2.5774                 2.5027
 Frc consts  --      1.6025                 1.9607                 1.9524
 IR Inten    --     15.9632               138.0723                55.9628

                     28                     29                     30
                      A                      A                      A
 Frequencies --   1197.8469              1227.3315              1261.4239
 Red. masses --      1.4863                 1.9674                 1.7288
 Frc consts  --      1.2565                 1.7461                 1.6208
 IR Inten    --     29.3714                52.9683                 4.7357

                     31                     32                     33
                      A                      A                      A
 Frequencies --   1268.4934              1284.9665              1343.9830
 Red. masses --      1.1241                 1.3149                 1.4871
 Frc consts  --      1.0657                 1.2792                 1.5826
 IR Inten    --      4.5157                61.8238                10.2773

                     34                     35                     36
                      A                      A                      A
 Frequencies --   1391.8780              1405.3982              1415.2492
 Red. masses --      1.3673                 1.5195                 1.4499
 Frc consts  --      1.5607                 1.7683                 1.7110
 IR Inten    --      2.7614                 5.0421                10.8358

                     37                     38                     39
                      A                      A                      A
 Frequencies --   1466.6693              1482.1488              1493.4493
 Red. masses --      2.1551                 1.0503                 1.0830
 Frc consts  --      2.7314                 1.3594                 1.4232
 IR Inten    --      6.8542                 3.0094                 1.6550

                     40                     41                     42
                      A                      A                      A
 Frequencies --   1501.5311              1709.5663              2952.3471
 Red. masses --      1.2464                 6.6800                 1.0724
 Frc consts  --      1.6557                11.5027                 5.5073
 IR Inten    --      6.7078                 6.2551                55.0618

                     43                     44                     45
                      A                      A                      A
 Frequencies --   3037.6432              3069.3269              3101.0128
 Red. masses --      1.0368                 1.0883                 1.1011
 Frc consts  --      5.6366                 6.0408                 6.2387
 IR Inten    --     25.4042                31.9225                20.1411

                     46                     47                     48
                      A                      A                      A
 Frequencies --   3112.5990              3133.3416              3138.1850
 Red. masses --      1.0882                 1.0965                 1.0887
 Frc consts  --      6.2115                 6.3426                 6.3173
 IR Inten    --     15.5943                 4.1089                18.5503

                     49                     50                     51
                      A                      A                      A
 Frequencies --   3154.8264              3182.2356              3803.2842
 Red. masses --      1.0852                 1.0976                 1.0663
 Frc consts  --      6.3637                 6.5487                 9.0871
 IR Inten    --     12.9093                24.8835                24.8580

 - Thermochemistry -
 -------------------
 Temperature   298.150 Kelvin.  Pressure   1.00000 Atm.
 Atom     1 has atomic number  6 and mass  12.00000

 Molecular mass:   126.06808 amu.
 Principal axes and moments of inertia in atomic units:
                           1         2         3
     Eigenvalues --   642.038871217.023461555.02410
           X            0.99986  -0.01130  -0.01245
           Y            0.01171   0.99936   0.03377
           Z            0.01206  -0.03391   0.99935
 This molecule is an asymmetric top.
 Rotational symmetry number  1.
 Warning -- assumption of classical behavior for rotation
           may cause significant error
 Rotational temperatures (Kelvin)      0.13490     0.07117     0.05570
 Rotational constants (GHZ):           2.81095     1.48291     1.16059
 Zero-point vibrational energy     416404.5 (Joules/Mol)
                                   99.52306 (Kcal/Mol)
 Warning -- explicit consideration of  12 degrees of freedom as
           vibrations may cause significant error
 Vibrational temperatures:    188.38   232.74   273.13   329.33   378.30
          (Kelvin)            429.49   495.26   563.20   599.47   678.27
                              770.83   855.39   988.15  1021.23  1211.96
                             1220.56  1309.71  1360.48  1399.55  1407.49
                             1421.14  1500.12  1526.91  1553.22  1587.62
                             1634.86  1655.58  1723.43  1765.85  1814.91
                             1825.08  1848.78  1933.69  2002.60  2022.05
                             2036.23  2110.21  2132.48  2148.74  2160.37
                             2459.68  4247.76  4370.49  4416.07  4461.66
                             4478.33  4508.17  4515.14  4539.09  4578.52
                             5472.07

 Zero-point correction=                           0.158600 (Hartree/Particle)
 Thermal correction to Energy=                    0.167158
 Thermal correction to Enthalpy=                  0.168103
 Thermal correction to Gibbs Free Energy=         0.125956
 Sum of electronic and zero-point Energies=           -423.010146
 Sum of electronic and thermal Energies=              -423.001588
 Sum of electronic and thermal Enthalpies=            -423.000643
 Sum of electronic and thermal Free Energies=         -423.042790

                     E (Thermal)             CV                S
                      KCal/Mol        Cal/Mol-Kelvin    Cal/Mol-Kelvin
 Total                  104.893             33.216             88.705
 Electronic               0.000              0.000              0.000
 Translational            0.889              2.981             40.409
 Rotational               0.889              2.981             28.587
 Vibrational            103.116             27.254             19.709
 Vibration     1          0.612              1.922              2.932
 Vibration     2          0.622              1.889              2.529
 Vibration     3          0.633              1.854              2.229
 Vibration     4          0.652              1.797              1.888
 Vibration     5          0.670              1.741              1.642
 Vibration     6          0.692              1.676              1.425
 Vibration     7          0.723              1.587              1.193
 Vibration     8          0.759              1.488              0.995
 Vibration     9          0.780              1.434              0.903
 Vibration    10          0.828              1.313              0.734
 Vibration    11          0.891              1.171              0.574
 Vibration    12          0.952              1.043              0.459

 Normal termination of Gaussian 09 at Mon Jan 27 23:39:02 2020.
