 Gaussian 09, Revision D.01,
 Gaussian 09:  ES64L-G09RevD.01 24-Apr-2013

 -----------------------------
 # b3lyp 6-31G(2df,p) opt Freq
 -----------------------------

 -----
 titel
 -----
 Symbolic Z-matrix:
 Charge =  0 Multiplicity = 1

 SCF Done:  E(RB3LYP) =  -423.134522989     A.U. after   14 cycles
 Optimization completed.
    -- Stationary point found.
 Normal termination of Gaussian 09 at Tue Jan 28 02:54:59 2020.

 ----------------------------------------------------------------------
 #N Geom=AllCheck Guess=TCheck SCRF=Check GenChk RB3LYP/6-31G(2df,p) Fr
 eq
 ----------------------------------------------------------------------

 Structure from the checkpoint file:  "/scratch/puck/g09_ddc050d0-e6fe-4a5b-bace-64b88d278e85/Gau-40793.chk"
 -----
 titel
 -----
 Charge =  0 Multiplicity = 1

                         Standard orientation:
 ---------------------------------------------------------------------
 Center     Atomic      Atomic             Coordinates (Angstroms)
 Number     Number       Type             X           Y           Z
 ---------------------------------------------------------------------
      1          6           0        2.403836    0.376788    0.444438
      2          6           0        1.267211   -0.093401   -0.463682
      3          6           0        0.816667   -1.574371   -0.241948
      4          6           0       -0.661866   -1.385781    0.100105
      5          6           0       -1.245026   -0.242649   -0.767455
      6          8           0       -2.113809    0.217511    0.334025
      7          6           0       -0.826780   -0.118997    0.975463
      8          6           0       -0.057818    0.602465   -0.190706
      9          8           0       -0.066843    1.976810   -0.287572
     10          1           0        2.597325    1.443858    0.303471
     11          1           0        2.157095    0.218045    1.500684
     12          1           0        3.327204   -0.171405    0.232002
     13          1           0        1.555503    0.072634   -1.508092
     14          1           0        0.957021   -2.194303   -1.132375
     15          1           0        1.367783   -2.048064    0.577058
     16          1           0       -1.297271   -2.243312    0.313671
     17          1           0       -1.668790   -0.267310   -1.772413
     18          1           0       -0.754793    0.003549    2.056784
     19          1           0       -0.973197    2.247402   -0.079706
 ---------------------------------------------------------------------

 SCF Done:  E(RB3LYP) =  -423.134522989     A.U. after    1 cycles

 The electronic state is 1-A.
 Alpha  occ. eigenvalues --  -19.14624 -19.13637 -10.24153 -10.23950 -10.23926
 Alpha  occ. eigenvalues --  -10.19811 -10.19155 -10.18786 -10.17486  -1.06856
 Alpha  occ. eigenvalues --   -1.02159  -0.85233  -0.74954  -0.69471  -0.65842
 Alpha  occ. eigenvalues --   -0.64875  -0.56932  -0.55080  -0.52232  -0.48328
 Alpha  occ. eigenvalues --   -0.46113  -0.44665  -0.41588  -0.40717  -0.39671
 Alpha  occ. eigenvalues --   -0.38327  -0.36064  -0.35531  -0.34022  -0.33110
 Alpha  occ. eigenvalues --   -0.31507  -0.31091  -0.25526  -0.23730
 Alpha virt. eigenvalues --    0.07120   0.09146   0.11211   0.12367   0.12854
 Alpha virt. eigenvalues --    0.13085   0.14731   0.15053   0.15444   0.16255
 Alpha virt. eigenvalues --    0.16929   0.18064   0.19103   0.19845   0.21624

 Mulliken charges:
               1
     1  C   -0.406838
     2  C   -0.038910
     3  C   -0.271322
     4  C   -0.039135
     5  C   -0.031444
     6  O   -0.344712
     7  C   -0.026277
     8  C    0.467097
     9  O   -0.502918
    10  H    0.133652
    11  H    0.111367
    12  H    0.112182
    13  H    0.079563
    14  H    0.105349
    15  H    0.104390
    16  H    0.082539
    17  H    0.088663
    18  H    0.089776
    19  H    0.286976
 Sum of Mulliken charges =   0.00000

 Dipole moment (field-independent basis, Debye):
    X=              0.9005    Y=             -1.2433    Z=             -0.1395  Tot=              1.5415
 Quadrupole moment (field-independent basis, Debye-Ang):
   XX=            -57.0529   YY=            -53.3900   ZZ=            -50.6449
   XY=             -1.7761   XZ=              1.4052   YZ=              0.9369

  Exact polarizability:  78.897  -0.373  74.365   0.805   0.772  68.007
 Approx polarizability: 110.864  -1.711 109.265  -0.294   0.310 108.811

                      1                      2                      3
                      A                      A                      A
 Frequencies --    115.6094               227.6320               232.5572
 Red. masses --      2.9784                 1.2490                 2.0360
 Frc consts  --      0.0235                 0.0381                 0.0649
 IR Inten    --      0.0016                 0.2246                 2.6865

                      4                      5                      6
                      A                      A                      A
 Frequencies --    303.6193               342.6282               368.3666
 Red. masses --      4.5754                 2.7554                 2.3715
 Frc consts  --      0.2485                 0.1906                 0.1896
 IR Inten    --     15.1581                 0.6346                 0.7160

                      7                      8                      9
                      A                      A                      A
 Frequencies --    473.3253               508.2665               536.2463
 Red. masses --      2.6915                 4.1006                 1.2087
 Frc consts  --      0.3553                 0.6241                 0.2048
 IR Inten    --      5.5838                 0.1239                73.2930

                     10                     11                     12
                      A                      A                      A
 Frequencies --    656.0855               685.1750               702.1287
 Red. masses --      3.5802                 4.6021                 4.5976
 Frc consts  --      0.9080                 1.2729                 1.3354
 IR Inten    --      2.5015                 2.3260                 9.0350

                     13                     14                     15
                      A                      A                      A
 Frequencies --    768.5106               811.6964               844.6952
 Red. masses --      2.9812                 5.1795                 2.6396
 Frc consts  --      1.0374                 2.0106                 1.1097
 IR Inten    --      1.6108                23.3036                 1.5697

                     16                     17                     18
                      A                      A                      A
 Frequencies --    893.9090               897.0525               923.9620
 Red. masses --      2.1886                 2.7190                 2.2080
 Frc consts  --      1.0304                 1.2891                 1.1106
 IR Inten    --      0.9925                27.3057                 4.1779

                     19                     20                     21
                      A                      A                      A
 Frequencies --    939.6118               970.7443              1003.3303
 Red. masses --      1.4009                 1.8776                 1.7000
 Frc consts  --      0.7287                 1.0425                 1.0083
 IR Inten    --      1.6952                 5.6940                19.8870

                     22                     23                     24
                      A                      A                      A
 Frequencies --   1030.5885              1077.1723              1100.7288
 Red. masses --      1.4405                 2.3500                 1.8560
 Frc consts  --      0.9014                 1.6065                 1.3249
 IR Inten    --      3.7939                 0.9768                12.6760

                     25                     26                     27
                      A                      A                      A
 Frequencies --   1113.0406              1136.3504              1157.1959
 Red. masses --      2.0641                 1.9689                 1.3879
 Frc consts  --      1.5066                 1.4980                 1.0950
 IR Inten    --     18.9223                13.1919                 1.3114

                     28                     29                     30
                      A                      A                      A
 Frequencies --   1175.6583              1194.8396              1235.9807
 Red. masses --      1.7555                 2.0493                 1.5897
 Frc consts  --      1.4296                 1.7237                 1.4309
 IR Inten    --      6.1687                41.8667                 4.2426

                     31                     32                     33
                      A                      A                      A
 Frequencies --   1243.6765              1273.3011              1295.2177
 Red. masses --      1.3717                 1.4687                 2.5197
 Frc consts  --      1.2500                 1.4029                 2.4905
 IR Inten    --      4.1562                 3.9455                37.8357

                     34                     35                     36
                      A                      A                      A
 Frequencies --   1323.1345              1351.6903              1373.4007
 Red. masses --      1.6179                 1.5384                 2.0584
 Frc consts  --      1.6688                 1.6560                 2.2876
 IR Inten    --     47.8629                 4.5913                78.9033

                     37                     38                     39
                      A                      A                      A
 Frequencies --   1408.1923              1431.3883              1494.4539
 Red. masses --      1.3116                 1.9437                 1.0509
 Frc consts  --      1.5324                 2.3463                 1.3828
 IR Inten    --      3.9861                16.9204                 4.5633

                     40                     41                     42
                      A                      A                      A
 Frequencies --   1498.1900              1501.4765              3029.6843
 Red. masses --      1.1077                 1.0622                 1.0421
 Frc consts  --      1.4649                 1.4108                 5.6360
 IR Inten    --      2.3748                 5.2633                15.0259

                     43                     44                     45
                      A                      A                      A
 Frequencies --   3036.3908              3048.9402              3089.6486
 Red. masses --      1.0774                 1.0611                 1.1045
 Frc consts  --      5.8527                 5.8116                 6.2118
 IR Inten    --     20.6536                32.5543                16.2615

                     46                     47                     48
                      A                      A                      A
 Frequencies --   3096.8489              3107.9888              3113.2021
 Red. masses --      1.1003                 1.0895                 1.0926
 Frc consts  --      6.2172                 6.2008                 6.2389
 IR Inten    --     36.7744                79.6860                 6.5961

                     49                     50                     51
                      A                      A                      A
 Frequencies --   3115.4833              3144.4022              3734.7964
 Red. masses --      1.1010                 1.0921                 1.0642
 Frc consts  --      6.2963                 6.3620                 8.7461
 IR Inten    --     17.8797                26.2070                28.4551

 - Thermochemistry -
 -------------------
 Temperature   298.150 Kelvin.  Pressure   1.00000 Atm.
 Atom     1 has atomic number  6 and mass  12.00000

 Molecular mass:   126.06808 amu.
 Principal axes and moments of inertia in atomic units:
                           1         2         3
     Eigenvalues --   664.71615 983.539511351.16435
           X            0.99986  -0.00210   0.01680
           Y            0.00186   0.99989   0.01447
           Z           -0.01683  -0.01443   0.99975
 This molecule is an asymmetric top.
 Rotational symmetry number  1.
 Warning -- assumption of classical behavior for rotation
           may cause significant error
 Rotational temperatures (Kelvin)      0.13030     0.08806     0.06410
 Rotational constants (GHZ):           2.71506     1.83495     1.33569
 Zero-point vibrational energy     419519.7 (Joules/Mol)
                                  100.26761 (Kcal/Mol)
 Warning -- explicit consideration of   9 degrees of freedom as
           vibrations may cause significant error
 Vibrational temperatures:    166.34   327.51   334.60   436.84   492.96
          (Kelvin)            530.00   681.01   731.28   771.54   943.96
                              985.81  1010.21  1105.71  1167.85  1215.33
                             1286.13  1290.66  1329.37  1351.89  1396.68
                             1443.57  1482.79  1549.81  1583.70  1601.42
                             1634.95  1664.94  1691.51  1719.11  1778.30
                             1789.37  1831.99  1863.53  1903.69  1944.78
                             1976.01  2026.07  2059.45  2150.18  2155.56
                             2160.29  4359.03  4368.68  4386.74  4445.31
                             4455.67  4471.70  4479.20  4482.48  4524.09
                             5373.53

 Zero-point correction=                           0.159787 (Hartree/Particle)
 Thermal correction to Energy=                    0.167312
 Thermal correction to Enthalpy=                  0.168256
 Thermal correction to Gibbs Free Energy=         0.128210
 Sum of electronic and zero-point Energies=           -422.974736
 Sum of electronic and thermal Energies=              -422.967211
 Sum of electronic and thermal Enthalpies=            -422.966267
 Sum of electronic and thermal Free Energies=         -423.006313

                     E (Thermal)             CV                S
                      KCal/Mol        Cal/Mol-Kelvin    Cal/Mol-Kelvin
 Total                  104.990             30.804             84.283
 Electronic               0.000              0.000              0.000
 Translational            0.889              2.981             40.409
 Rotational               0.889              2.981             28.270
 Vibrational            103.212             24.842             15.604
 Vibration     1          0.608              1.936              3.172
 Vibration     2          0.651              1.799              1.898
 Vibration     3          0.653              1.791              1.859
 Vibration     4          0.695              1.667              1.397
 Vibration     5          0.722              1.590              1.200
 Vibration     6          0.741              1.537              1.087
 Vibration     7          0.830              1.309              0.728
 Vibration     8          0.863              1.232              0.638
 Vibration     9          0.891              1.170              0.573

 Optimization completed.
    -- Stationary point found.
 Normal termination of Gaussian 09 at Tue Jan 28 03:44:41 2020.
