 Gaussian 09, Revision D.01,
 Gaussian 09:  ES64L-G09RevD.01 24-Apr-2013

 -----------------------------
 # b3lyp 6-31G(2df,p) opt Freq
 -----------------------------

 -----
 titel
 -----
 Symbolic Z-matrix:
 Charge =  0 Multiplicity = 1

 SCF Done:  E(RB3LYP) =  -423.180433621     A.U. after   14 cycles
 Optimization completed.
    -- Stationary point found.
 Normal termination of Gaussian 09 at Mon Jan 27 22:00:19 2020.

 ----------------------------------------------------------------------
 #N Geom=AllCheck Guess=TCheck SCRF=Check GenChk RB3LYP/6-31G(2df,p) Fr
 eq
 ----------------------------------------------------------------------

 Structure from the checkpoint file:  "/scratch/puck/g09_bc75f20a-e882-483d-a579-554581a4ae03/Gau-192445.chk"
 -----
 titel
 -----
 Charge =  0 Multiplicity = 1

                         Standard orientation:
 ---------------------------------------------------------------------
 Center     Atomic      Atomic             Coordinates (Angstroms)
 Number     Number       Type             X           Y           Z
 ---------------------------------------------------------------------
      1          6           0       -2.470844    0.171849    0.386793
      2          6           0       -1.281571    0.261047   -0.565636
      3          6           0       -0.285007   -0.964159   -0.617726
      4          8           0       -0.576198   -2.084788    0.183604
      5          6           0        0.845397   -0.033786   -0.140457
      6          6           0        2.312969   -0.006586   -0.501606
      7          6           0        1.912645   -0.346278    0.894366
      8          6           0       -0.094444    1.134001   -0.099570
      9          8           0        0.028318    2.292574    0.192319
     10          1           0       -2.160816   -0.075332    1.407953
     11          1           0       -2.990473    1.132867    0.430316
     12          1           0       -3.178034   -0.594392    0.057370
     13          1           0       -1.622002    0.557075   -1.564339
     14          1           0       -0.145243   -1.358614   -1.627000
     15          1           0       -0.613739   -1.797690    1.102325
     16          1           0        2.671996   -0.803571   -1.144342
     17          1           0        2.743044    0.971503   -0.690915
     18          1           0        1.976569   -1.382596    1.210195
     19          1           0        2.066877    0.391938    1.674056
 ---------------------------------------------------------------------

 SCF Done:  E(RB3LYP) =  -423.180433621     A.U. after    1 cycles

 The electronic state is 1-A.
 Alpha  occ. eigenvalues --  -19.14818 -19.13138 -10.26235 -10.24165 -10.20740
 Alpha  occ. eigenvalues --  -10.20544 -10.20208 -10.19406 -10.18818  -1.04036
 Alpha  occ. eigenvalues --   -1.03028  -0.88052  -0.81414  -0.72027  -0.63312
 Alpha  occ. eigenvalues --   -0.61613  -0.59700  -0.51964  -0.51341  -0.48843
 Alpha  occ. eigenvalues --   -0.47401  -0.43909  -0.43569  -0.41657  -0.40284
 Alpha  occ. eigenvalues --   -0.38508  -0.37850  -0.37467  -0.35809  -0.33280
 Alpha  occ. eigenvalues --   -0.32180  -0.29811  -0.26725  -0.23510
 Alpha virt. eigenvalues --   -0.02452   0.06474   0.09869   0.10064   0.10765
 Alpha virt. eigenvalues --    0.13035   0.14046   0.15343   0.15910   0.17292
 Alpha virt. eigenvalues --    0.18000   0.19204   0.19979   0.20566   0.22057

 Mulliken charges:
               1
     1  C   -0.401171
     2  C   -0.163376
     3  C    0.014080
     4  O   -0.420005
     5  C    0.188498
     6  C   -0.316761
     7  C   -0.312479
     8  C    0.343468
     9  O   -0.322476
    10  H    0.105618
    11  H    0.138028
    12  H    0.132846
    13  H    0.101820
    14  H    0.095285
    15  H    0.281771
    16  H    0.128821
    17  H    0.136984
    18  H    0.131543
    19  H    0.137505
 Sum of Mulliken charges =   0.00000

 Dipole moment (field-independent basis, Debye):
    X=              0.2860    Y=             -1.4695    Z=              0.0683  Tot=              1.4986
 Quadrupole moment (field-independent basis, Debye-Ang):
   XX=            -49.9055   YY=            -64.5422   ZZ=            -48.8834
   XY=             -1.4982   XZ=             -0.4118   YZ=             -2.1850

  Exact polarizability:  89.757  -2.283  75.339   0.973   0.389  66.313
 Approx polarizability: 116.089  -3.131 119.340   2.548   1.975 102.711

                      1                      2                      3
                      A                      A                      A
 Frequencies --     33.3395               162.8924               172.7784
 Red. masses --      3.9592                 1.4959                 2.2297
 Frc consts  --      0.0026                 0.0234                 0.0392
 IR Inten    --      4.0518                 0.8986                 2.4565

                      4                      5                      6
                      A                      A                      A
 Frequencies --    185.4871               208.3102               213.9517
 Red. masses --      3.1119                 3.2948                 2.3596
 Frc consts  --      0.0631                 0.0842                 0.0636
 IR Inten    --      0.4004                 0.3775                 2.4150

                      7                      8                      9
                      A                      A                      A
 Frequencies --    248.7153               300.9477               361.2749
 Red. masses --      2.9115                 1.1411                 4.5579
 Frc consts  --      0.1061                 0.0609                 0.3505
 IR Inten    --      7.2983                92.2203                21.2545

                     10                     11                     12
                      A                      A                      A
 Frequencies --    499.6638               559.1758               596.8786
 Red. masses --      4.4258                 3.5881                 3.2906
 Frc consts  --      0.6510                 0.6610                 0.6907
 IR Inten    --      1.5249                 0.4737                 0.7516

                     13                     14                     15
                      A                      A                      A
 Frequencies --    706.8454               731.8479               792.7503
 Red. masses --      3.9986                 2.9639                 1.2419
 Frc consts  --      1.1771                 0.9353                 0.4598
 IR Inten    --      2.4952                 4.2284                 3.0106

                     16                     17                     18
                      A                      A                      A
 Frequencies --    801.4493               837.4248               892.3917
 Red. masses --      3.0395                 2.0914                 2.2458
 Frc consts  --      1.1503                 0.8641                 1.0538
 IR Inten    --      1.2796                 4.3725                 1.7531

                     19                     20                     21
                      A                      A                      A
 Frequencies --    937.4215               949.5117              1012.9074
 Red. masses --      2.8933                 1.2750                 2.6843
 Frc consts  --      1.4980                 0.6773                 1.6226
 IR Inten    --      7.8392                 3.3002                58.8894

                     22                     23                     24
                      A                      A                      A
 Frequencies --   1032.3449              1053.7455              1073.6975
 Red. masses --      1.9886                 1.2023                 1.5739
 Frc consts  --      1.2487                 0.7866                 1.0690
 IR Inten    --     44.5930                 3.7958                16.3453

                     25                     26                     27
                      A                      A                      A
 Frequencies --   1090.5776              1127.8759              1135.6570
 Red. masses --      1.5814                 2.6027                 2.7633
 Frc consts  --      1.1082                 1.9507                 2.0998
 IR Inten    --     11.1595                99.8678                32.1680

                     28                     29                     30
                      A                      A                      A
 Frequencies --   1181.8545              1202.9151              1240.4556
 Red. masses --      1.5964                 1.2894                 1.3679
 Frc consts  --      1.3138                 1.0993                 1.2402
 IR Inten    --      2.7318                 0.6854                 8.0360

                     31                     32                     33
                      A                      A                      A
 Frequencies --   1255.4272              1286.0451              1318.1991
 Red. masses --      2.4193                 1.5377                 1.6835
 Frc consts  --      2.2466                 1.4984                 1.7236
 IR Inten    --     12.8443                 8.8452                11.6971

                     34                     35                     36
                      A                      A                      A
 Frequencies --   1363.9924              1406.4294              1435.3618
 Red. masses --      2.9571                 1.2189                 1.2411
 Frc consts  --      3.2414                 1.4205                 1.5066
 IR Inten    --     63.6241                 2.8664                58.1191

                     37                     38                     39
                      A                      A                      A
 Frequencies --   1456.4477              1487.9667              1490.1408
 Red. masses --      1.0885                 1.3667                 1.0572
 Frc consts  --      1.3604                 1.7828                 1.3831
 IR Inten    --      2.4942                10.2269                 5.9601

                     40                     41                     42
                      A                      A                      A
 Frequencies --   1498.1993              1872.0744              3037.3307
 Red. masses --      1.0480                12.5797                 1.0373
 Frc consts  --      1.3860                25.9757                 5.6382
 IR Inten    --      5.2252               230.5822                20.7581

                     43                     44                     45
                      A                      A                      A
 Frequencies --   3047.9312              3085.4511              3102.8372
 Red. masses --      1.0829                 1.0871                 1.0986
 Frc consts  --      5.9270                 6.0975                 6.2315
 IR Inten    --      7.5344                27.0723                29.6947

                     46                     47                     48
                      A                      A                      A
 Frequencies --   3122.5106              3129.4263              3130.6536
 Red. masses --      1.1027                 1.0499                 1.0561
 Frc consts  --      6.3343                 6.0580                 6.0987
 IR Inten    --     11.8023                11.5691                 8.5999

                     49                     50                     51
                      A                      A                      A
 Frequencies --   3213.9220              3228.7374              3809.5184
 Red. masses --      1.1189                 1.1169                 1.0657
 Frc consts  --      6.8092                 6.8602                 9.1120
 IR Inten    --      0.1372                 4.8254                11.4443

 - Thermochemistry -
 -------------------
 Temperature   298.150 Kelvin.  Pressure   1.00000 Atm.
 Atom     1 has atomic number  6 and mass  12.00000

 Molecular mass:   126.06808 amu.
 Principal axes and moments of inertia in atomic units:
                           1         2         3
     Eigenvalues --   829.832091089.290271640.98700
           X            0.99948  -0.03168  -0.00659
           Y            0.03163   0.99948  -0.00686
           Z            0.00680   0.00665   0.99995
 This molecule is an asymmetric top.
 Rotational symmetry number  1.
 Warning -- assumption of classical behavior for rotation
           may cause significant error
 Rotational temperatures (Kelvin)      0.10438     0.07951     0.05278
 Rotational constants (GHZ):           2.17483     1.65680     1.09979
 Zero-point vibrational energy     413451.5 (Joules/Mol)
                                   98.81728 (Kcal/Mol)
 Warning -- explicit consideration of  12 degrees of freedom as
           vibrations may cause significant error
 Vibrational temperatures:     47.97   234.37   248.59   266.87   299.71
          (Kelvin)            307.83   357.85   433.00   519.79   718.90
                              804.53   858.77  1016.99  1052.96  1140.59
                             1153.11  1204.87  1283.95  1348.74  1366.13
                             1457.35  1485.31  1516.10  1544.81  1569.10
                             1622.76  1633.96  1700.42  1730.72  1784.74
                             1806.28  1850.33  1896.59  1962.48  2023.54
                             2065.16  2095.50  2140.85  2143.98  2155.57
                             2693.49  4370.04  4385.29  4439.27  4464.29
                             4492.59  4502.54  4504.31  4624.11  4645.43
                             5481.04

 Zero-point correction=                           0.157475 (Hartree/Particle)
 Thermal correction to Energy=                    0.166809
 Thermal correction to Enthalpy=                  0.167753
 Thermal correction to Gibbs Free Energy=         0.122933
 Sum of electronic and zero-point Energies=           -423.022958
 Sum of electronic and thermal Energies=              -423.013624
 Sum of electronic and thermal Enthalpies=            -423.012680
 Sum of electronic and thermal Free Energies=         -423.057501

                     E (Thermal)             CV                S
                      KCal/Mol        Cal/Mol-Kelvin    Cal/Mol-Kelvin
 Total                  104.674             34.347             94.333
 Electronic               0.000              0.000              0.000
 Translational            0.889              2.981             40.409
 Rotational               0.889              2.981             28.785
 Vibrational            102.897             28.386             25.139
 Vibration     1          0.594              1.983              5.620
 Vibration     2          0.623              1.888              2.516
 Vibration     3          0.626              1.876              2.405
 Vibration     4          0.632              1.860              2.272
 Vibration     5          0.642              1.828              2.058
 Vibration     6          0.644              1.820              2.010
 Vibration     7          0.662              1.765              1.740
 Vibration     8          0.693              1.672              1.412
 Vibration     9          0.735              1.552              1.117
 Vibration    10          0.855              1.251              0.659
 Vibration    11          0.915              1.120              0.525
 Vibration    12          0.955              1.038              0.455

 Optimization completed.
    -- Stationary point found.
 Normal termination of Gaussian 09 at Mon Jan 27 22:40:35 2020.
