 Gaussian 09, Revision D.01,
 Gaussian 09:  ES64L-G09RevD.01 24-Apr-2013

 -----------------------------
 # b3lyp 6-31G(2df,p) opt Freq
 -----------------------------

 -----
 titel
 -----
 Symbolic Z-matrix:
 Charge =  0 Multiplicity = 1

 SCF Done:  E(RB3LYP) =  -423.195138176     A.U. after   14 cycles
 Optimization completed.
    -- Stationary point found.
 Normal termination of Gaussian 09 at Tue Jan 28 13:24:26 2020.

 ----------------------------------------------------------------------
 #N Geom=AllCheck Guess=TCheck SCRF=Check GenChk RB3LYP/6-31G(2df,p) Fr
 eq
 ----------------------------------------------------------------------

 Structure from the checkpoint file:  "/scratch/puck/g09_bed036a5-49ff-4b3a-9c9b-676edbb66f74/Gau-30885.chk"
 -----
 titel
 -----
 Charge =  0 Multiplicity = 1

                         Standard orientation:
 ---------------------------------------------------------------------
 Center     Atomic      Atomic             Coordinates (Angstroms)
 Number     Number       Type             X           Y           Z
 ---------------------------------------------------------------------
      1          6           0        2.951889    0.329847   -0.088487
      2          8           0        1.740014   -0.174723   -0.600936
      3          6           0        0.766937   -0.463884    0.388763
      4          6           0        0.021661    0.805545    0.857008
      5          6           0       -1.217217    0.909168   -0.051711
      6          8           0       -1.809227    1.925094   -0.315697
      7          6           0       -1.510152   -0.454369   -0.587955
      8          6           0       -1.560223   -1.560444    0.461003
      9          6           0       -0.295760   -1.319862   -0.291889
     10          1           0        3.410854   -0.370169    0.627349
     11          1           0        3.628071    0.463316   -0.936093
     12          1           0        2.827913    1.300665    0.414056
     13          1           0        1.243980   -0.997748    1.225667
     14          1           0       -0.298742    0.737417    1.902843
     15          1           0        0.627145    1.708569    0.766014
     16          1           0       -2.112515   -0.543868   -1.482198
     17          1           0       -1.629246   -1.289651    1.509610
     18          1           0       -2.142943   -2.433829    0.191718
     19          1           0        0.056378   -2.053671   -1.006289
 ---------------------------------------------------------------------

 SCF Done:  E(RB3LYP) =  -423.195138176     A.U. after    1 cycles

 The electronic state is 1-A.
 Alpha  occ. eigenvalues --  -19.14592 -19.12165 -10.26416 -10.24579 -10.22940
 Alpha  occ. eigenvalues --  -10.20737 -10.20574 -10.20060 -10.18949  -1.04081
 Alpha  occ. eigenvalues --   -1.03258  -0.89330  -0.76874  -0.71136  -0.65818
 Alpha  occ. eigenvalues --   -0.63026  -0.57414  -0.54622  -0.50906  -0.49695
 Alpha  occ. eigenvalues --   -0.47087  -0.45459  -0.43778  -0.42543  -0.41393
 Alpha  occ. eigenvalues --   -0.40186  -0.38595  -0.36632  -0.35702  -0.32209
 Alpha  occ. eigenvalues --   -0.31718  -0.29422  -0.26465  -0.23471
 Alpha virt. eigenvalues --   -0.00929   0.08055   0.08838   0.10100   0.11444
 Alpha virt. eigenvalues --    0.13988   0.14336   0.15206   0.15959   0.17307
 Alpha virt. eigenvalues --    0.17403   0.18300   0.19042   0.21156   0.23249

 Mulliken charges:
               1
     1  C   -0.239317
     2  O   -0.249093
     3  C    0.126833
     4  C   -0.381367
     5  C    0.432596
     6  O   -0.334477
     7  C   -0.135595
     8  C   -0.309003
     9  C   -0.050057
    10  H    0.105617
    11  H    0.131942
    12  H    0.108164
    13  H    0.067116
    14  H    0.126023
    15  H    0.136188
    16  H    0.108212
    17  H    0.121960
    18  H    0.128730
    19  H    0.105529
 Sum of Mulliken charges =   0.00000

 Dipole moment (field-independent basis, Debye):
    X=              1.6589    Y=             -2.5236    Z=              1.5332  Tot=              3.3869
 Quadrupole moment (field-independent basis, Debye-Ang):
   XX=            -52.7001   YY=            -56.8012   ZZ=            -51.9185
   XY=              7.7898   XZ=              0.6149   YZ=              1.7716

  Exact polarizability:  85.251   1.439  78.676   1.991  -0.867  64.314
 Approx polarizability: 111.185  -5.505 120.378   3.201  -4.737 100.973

                      1                      2                      3
                      A                      A                      A
 Frequencies --     75.0675               118.4572               163.3600
 Red. masses --      4.2459                 1.9826                 3.3134
 Frc consts  --      0.0141                 0.0164                 0.0521
 IR Inten    --      1.4473                 3.2382                 2.6836

                      4                      5                      6
                      A                      A                      A
 Frequencies --    197.0178               267.4343               345.1988
 Red. masses --      1.3855                 2.6551                 2.5852
 Frc consts  --      0.0317                 0.1119                 0.1815
 IR Inten    --      1.5324                 1.8908                 0.1628

                      7                      8                      9
                      A                      A                      A
 Frequencies --    401.7906               439.2602               461.2822
 Red. masses --      4.0940                 3.0455                 3.4676
 Frc consts  --      0.3894                 0.3462                 0.4347
 IR Inten    --      0.9070                 9.0396                 3.4029

                     10                     11                     12
                      A                      A                      A
 Frequencies --    537.2945               637.7320               707.1301
 Red. masses --      3.0746                 4.0819                 3.3103
 Frc consts  --      0.5229                 0.9781                 0.9752
 IR Inten    --      3.3180                 4.2766                 3.7334

                     13                     14                     15
                      A                      A                      A
 Frequencies --    767.3241               836.4995               843.0927
 Red. masses --      2.9256                 1.5753                 2.6716
 Frc consts  --      1.0149                 0.6495                 1.1189
 IR Inten    --      8.1792                 2.1697                 6.7514

                     16                     17                     18
                      A                      A                      A
 Frequencies --    854.7324               924.6437               958.6028
 Red. masses --      2.3207                 1.5566                 2.7119
 Frc consts  --      0.9989                 0.7841                 1.4683
 IR Inten    --      5.5248                14.5785                 7.5882

                     19                     20                     21
                      A                      A                      A
 Frequencies --    969.0549              1016.0619              1044.8930
 Red. masses --      2.8589                 2.2459                 2.2730
 Frc consts  --      1.5818                 1.3661                 1.4622
 IR Inten    --     20.1573                15.3280                 8.8653

                     22                     23                     24
                      A                      A                      A
 Frequencies --   1068.1680              1105.0324              1109.2333
 Red. masses --      1.2283                 1.1808                 1.4625
 Frc consts  --      0.8257                 0.8496                 1.0602
 IR Inten    --      1.6555                 2.4008                 1.7807

                     25                     26                     27
                      A                      A                      A
 Frequencies --   1132.7116              1176.7353              1183.6600
 Red. masses --      3.0552                 1.5086                 1.4796
 Frc consts  --      2.3095                 1.2308                 1.2214
 IR Inten    --    118.9517                42.5890                 4.9648

                     28                     29                     30
                      A                      A                      A
 Frequencies --   1185.2471              1195.9301              1228.1160
 Red. masses --      1.3927                 2.1916                 1.6865
 Frc consts  --      1.1527                 1.8468                 1.4987
 IR Inten    --      9.4710                29.4062                47.3320

                     31                     32                     33
                      A                      A                      A
 Frequencies --   1252.5732              1320.9386              1339.4713
 Red. masses --      1.7924                 1.8985                 1.6485
 Frc consts  --      1.6568                 1.9518                 1.7426
 IR Inten    --      7.7047                25.8665                 4.6510

                     34                     35                     36
                      A                      A                      A
 Frequencies --   1355.3739              1394.8608              1445.1566
 Red. masses --      1.8599                 1.4601                 1.1256
 Frc consts  --      2.0131                 1.6737                 1.3850
 IR Inten    --      6.4823                36.5504                 7.8748

                     37                     38                     39
                      A                      A                      A
 Frequencies --   1479.8585              1489.4958              1493.0326
 Red. masses --      1.1218                 1.0791                 1.1843
 Frc consts  --      1.4474                 1.4106                 1.5554
 IR Inten    --      1.9516                 2.5296                 3.9878

                     40                     41                     42
                      A                      A                      A
 Frequencies --   1510.4668              1838.5608              2971.7621
 Red. masses --      1.0657                12.2773                 1.0627
 Frc consts  --      1.4326                24.4517                 5.5293
 IR Inten    --      6.9357               277.0703                20.6099

                     43                     44                     45
                      A                      A                      A
 Frequencies --   2979.5746              3023.9306              3054.4800
 Red. masses --      1.0579                 1.1016                 1.0683
 Frc consts  --      5.5333                 5.9351                 5.8725
 IR Inten    --     89.6867                49.9103                 8.1016

                     46                     47                     48
                      A                      A                      A
 Frequencies --   3117.5887              3127.2981              3133.6800
 Red. masses --      1.0960                 1.0944                 1.0552
 Frc consts  --      6.2764                 6.3062                 6.1049
 IR Inten    --     27.3241                 4.1557                13.6687

                     49                     50                     51
                      A                      A                      A
 Frequencies --   3192.0040              3207.2445              3221.0671
 Red. masses --      1.0911                 1.0967                 1.1116
 Frc consts  --      6.5502                 6.6469                 6.7953
 IR Inten    --      5.1699                 1.8803                 7.3261

 - Thermochemistry -
 -------------------
 Temperature   298.150 Kelvin.  Pressure   1.00000 Atm.
 Atom     1 has atomic number  6 and mass  12.00000

 Molecular mass:   126.06808 amu.
 Principal axes and moments of inertia in atomic units:
                           1         2         3
     Eigenvalues --   679.874681334.666551739.55432
           X            0.99791   0.06429   0.00630
           Y           -0.06438   0.99780   0.01570
           Z           -0.00528  -0.01607   0.99986
 This molecule is an asymmetric top.
 Rotational symmetry number  1.
 Warning -- assumption of classical behavior for rotation
           may cause significant error
 Rotational temperatures (Kelvin)      0.12740     0.06490     0.04979
 Rotational constants (GHZ):           2.65452     1.35220     1.03747
 Zero-point vibrational energy     418090.0 (Joules/Mol)
                                   99.92590 (Kcal/Mol)
 Warning -- explicit consideration of  10 degrees of freedom as
           vibrations may cause significant error
 Vibrational temperatures:    108.01   170.43   235.04   283.46   384.78
          (Kelvin)            496.66   578.09   632.00   663.68   773.05
                              917.55  1017.40  1104.01  1203.53  1213.02
                             1229.77  1330.35  1379.21  1394.25  1461.88
                             1503.37  1536.85  1589.89  1595.94  1629.72
                             1693.06  1703.02  1705.30  1720.67  1766.98
                             1802.17  1900.53  1927.20  1950.08  2006.89
                             2079.26  2129.18  2143.05  2148.14  2173.22
                             2645.28  4275.70  4286.94  4350.76  4394.71
                             4485.51  4499.48  4508.66  4592.58  4614.50
                             4634.39

 Zero-point correction=                           0.159242 (Hartree/Particle)
 Thermal correction to Energy=                    0.167606
 Thermal correction to Enthalpy=                  0.168550
 Thermal correction to Gibbs Free Energy=         0.125984
 Sum of electronic and zero-point Energies=           -423.035896
 Sum of electronic and thermal Energies=              -423.027533
 Sum of electronic and thermal Enthalpies=            -423.026588
 Sum of electronic and thermal Free Energies=         -423.069154

                     E (Thermal)             CV                S
                      KCal/Mol        Cal/Mol-Kelvin    Cal/Mol-Kelvin
 Total                  105.174             31.722             89.587
 Electronic               0.000              0.000              0.000
 Translational            0.889              2.981             40.409
 Rotational               0.889              2.981             28.847
 Vibrational            103.397             25.760             20.332
 Vibration     1          0.599              1.966              4.016
 Vibration     2          0.609              1.934              3.125
 Vibration     3          0.623              1.887              2.511
 Vibration     4          0.636              1.844              2.161
 Vibration     5          0.673              1.733              1.613
 Vibration     6          0.724              1.585              1.188
 Vibration     7          0.767              1.466              0.956
 Vibration     8          0.799              1.385              0.829
 Vibration     9          0.819              1.336              0.762
 Vibration    10          0.892              1.168              0.571

 Optimization completed.
    -- Stationary point found.
 Normal termination of Gaussian 09 at Tue Jan 28 14:05:59 2020.
