 Gaussian 09, Revision D.01,
 Gaussian 09:  ES64L-G09RevD.01 24-Apr-2013

 -----------------------------
 # b3lyp 6-31G(2df,p) opt Freq
 -----------------------------

 -----
 titel
 -----
 Symbolic Z-matrix:
 Charge =  0 Multiplicity = 1

 SCF Done:  E(RB3LYP) =  -423.151759057     A.U. after   13 cycles
 Optimization completed.
    -- Stationary point found.
 Normal termination of Gaussian 09 at Mon Jan 27 12:04:56 2020.

 ----------------------------------------------------------------------
 #N Geom=AllCheck Guess=TCheck SCRF=Check GenChk RB3LYP/6-31G(2df,p) Fr
 eq
 ----------------------------------------------------------------------

 Structure from the checkpoint file:  "/scratch/puck/g09_94b23ec2-c715-481b-8f63-fcda322a64b7/Gau-24873.chk"
 -----
 titel
 -----
 Charge =  0 Multiplicity = 1

                         Standard orientation:
 ---------------------------------------------------------------------
 Center     Atomic      Atomic             Coordinates (Angstroms)
 Number     Number       Type             X           Y           Z
 ---------------------------------------------------------------------
      1          6           0       -1.732471   -1.016495   -0.670747
      2          6           0       -1.621838   -0.827595    0.831408
      3          6           0       -0.742988   -0.049630   -0.112664
      4          8           0       -1.010877    1.318235   -0.319423
      5          6           0        0.091832    2.040110    0.225964
      6          6           0        1.320857    1.207759   -0.162038
      7          6           0        0.768112   -0.214521   -0.100080
      8          6           0        1.507372   -1.394196   -0.553349
      9          8           0        1.336564   -1.125547    0.845006
     10          1           0       -1.372823   -1.940908   -1.109652
     11          1           0       -2.593699   -0.584677   -1.168564
     12          1           0       -2.414369   -0.276181    1.324141
     13          1           0       -1.153034   -1.609155    1.417891
     14          1           0        0.076685    3.044278   -0.202695
     15          1           0        0.000703    2.120006    1.319992
     16          1           0        1.633100    1.449315   -1.182874
     17          1           0        2.174618    1.330197    0.507424
     18          1           0        0.974479   -2.266042   -0.929988
     19          1           0        2.523589   -1.280924   -0.931309
 ---------------------------------------------------------------------

 SCF Done:  E(RB3LYP) =  -423.151759057     A.U. after    1 cycles

 The electronic state is 1-A.
 Alpha  occ. eigenvalues --  -19.15191 -19.14298 -10.24679 -10.23853 -10.23513
 Alpha  occ. eigenvalues --  -10.23096 -10.19030 -10.18565 -10.17971  -1.07403
 Alpha  occ. eigenvalues --   -1.04249  -0.84915  -0.77221  -0.68757  -0.65944
 Alpha  occ. eigenvalues --   -0.60790  -0.59710  -0.54733  -0.51337  -0.49977
 Alpha  occ. eigenvalues --   -0.47528  -0.46411  -0.43431  -0.42908  -0.40003
 Alpha  occ. eigenvalues --   -0.38082  -0.37314  -0.36764  -0.34389  -0.32736
 Alpha  occ. eigenvalues --   -0.30142  -0.29260  -0.26340  -0.23477
 Alpha virt. eigenvalues --    0.07452   0.09168   0.09623   0.10748   0.12010
 Alpha virt. eigenvalues --    0.13412   0.13992   0.15179   0.15739   0.16626
 Alpha virt. eigenvalues --    0.18602   0.19593   0.21006   0.21587   0.22674

 Mulliken charges:
               1
     1  C   -0.347099
     2  C   -0.318900
     3  C    0.388932
     4  O   -0.295695
     5  C   -0.106527
     6  C   -0.308907
     7  C    0.341625
     8  C   -0.251578
     9  O   -0.270042
    10  H    0.113912
    11  H    0.126249
    12  H    0.119948
    13  H    0.129789
    14  H    0.111047
    15  H    0.100874
    16  H    0.116175
    17  H    0.120728
    18  H    0.115982
    19  H    0.113487
 Sum of Mulliken charges =   0.00000

 Dipole moment (field-independent basis, Debye):
    X=              0.8064    Y=              0.2537    Z=             -1.0168  Tot=              1.3223
 Quadrupole moment (field-independent basis, Debye-Ang):
   XX=            -53.0175   YY=            -51.0313   ZZ=            -53.9298
   XY=              2.6718   XZ=             -3.0938   YZ=              3.4368

  Exact polarizability:  78.801   2.051  80.901  -2.664   3.610  64.812
 Approx polarizability: 105.757  -0.117 111.211  -0.658   2.130 103.902

                      1                      2                      3
                      A                      A                      A
 Frequencies --     35.9607               194.3321               242.6506
 Red. masses --      3.3943                 2.3493                 3.4380
 Frc consts  --      0.0026                 0.0523                 0.1193
 IR Inten    --      2.1376                 2.0549                 2.4531

                      4                      5                      6
                      A                      A                      A
 Frequencies --    258.4939               312.9158               396.3817
 Red. masses --      2.2228                 2.6316                 2.8535
 Frc consts  --      0.0875                 0.1518                 0.2642
 IR Inten    --      0.5863                 3.9978                 5.0492

                      7                      8                      9
                      A                      A                      A
 Frequencies --    410.3760               488.0484               557.3239
 Red. masses --      2.8368                 4.9633                 3.3623
 Frc consts  --      0.2815                 0.6965                 0.6153
 IR Inten    --      4.3961                 0.2827                 1.9551

                     10                     11                     12
                      A                      A                      A
 Frequencies --    575.1545               643.4214               770.5485
 Red. masses --      3.8530                 2.5723                 1.0875
 Frc consts  --      0.7510                 0.6274                 0.3804
 IR Inten    --      3.2183                 1.2795                 1.7600

                     13                     14                     15
                      A                      A                      A
 Frequencies --    796.1430               844.6226               874.8325
 Red. masses --      2.6173                 2.4818                 1.9278
 Frc consts  --      0.9774                 1.0432                 0.8693
 IR Inten    --     18.2063                 6.6360                19.7637

                     16                     17                     18
                      A                      A                      A
 Frequencies --    901.3218               917.5687               951.1661
 Red. masses --      1.5410                 1.7610                 2.9767
 Frc consts  --      0.7376                 0.8736                 1.5867
 IR Inten    --      6.7116                 2.4496                26.6235

                     19                     20                     21
                      A                      A                      A
 Frequencies --    964.0287               982.1182               992.5583
 Red. masses --      2.3351                 3.7684                 2.6663
 Frc consts  --      1.2786                 2.1416                 1.5476
 IR Inten    --      4.3434                25.1983                 2.9573

                     22                     23                     24
                      A                      A                      A
 Frequencies --   1044.8809              1068.7821              1076.6287
 Red. masses --      1.5063                 3.5837                 1.5105
 Frc consts  --      0.9689                 2.4119                 1.0316
 IR Inten    --      2.3937                55.4359                 6.4825

                     25                     26                     27
                      A                      A                      A
 Frequencies --   1105.6281              1127.8195              1147.6814
 Red. masses --      1.8796                 1.3149                 2.0572
 Frc consts  --      1.3537                 0.9854                 1.5965
 IR Inten    --      6.4229                 3.2641                22.4559

                     28                     29                     30
                      A                      A                      A
 Frequencies --   1169.8181              1194.2425              1208.5387
 Red. masses --      1.4938                 1.2715                 1.4334
 Frc consts  --      1.2044                 1.0685                 1.2335
 IR Inten    --      1.1638                 0.1676                17.4262

                     31                     32                     33
                      A                      A                      A
 Frequencies --   1246.3161              1255.0879              1309.0392
 Red. masses --      1.5199                 2.2002                 1.3116
 Frc consts  --      1.3910                 2.0420                 1.3242
 IR Inten    --      4.4119                65.1432                 4.1403

                     34                     35                     36
                      A                      A                      A
 Frequencies --   1357.8414              1387.9759              1430.7466
 Red. masses --      2.3298                 1.4515                 2.6323
 Frc consts  --      2.5308                 1.6476                 3.1748
 IR Inten    --      6.7862                 7.2238                 4.9895

                     37                     38                     39
                      A                      A                      A
 Frequencies --   1450.2406              1474.2763              1494.5053
 Red. masses --      1.1026                 1.1043                 1.4912
 Frc consts  --      1.3663                 1.4141                 1.9624
 IR Inten    --      3.0164                 2.8856                10.3333

                     40                     41                     42
                      A                      A                      A
 Frequencies --   1517.5491              1537.8419              2990.1836
 Red. masses --      1.1360                 1.4299                 1.0707
 Frc consts  --      1.5414                 1.9925                 5.6406
 IR Inten    --      0.7516                 3.8603                59.3205

                     43                     44                     45
                      A                      A                      A
 Frequencies --   3057.2602              3077.4289              3107.2643
 Red. masses --      1.0633                 1.0509                 1.0933
 Frc consts  --      5.8554                 5.8640                 6.2193
 IR Inten    --     14.0146                26.8760                31.8566

                     46                     47                     48
                      A                      A                      A
 Frequencies --   3122.7918              3133.3019              3140.9077
 Red. masses --      1.1027                 1.0537                 1.0540
 Frc consts  --      6.3358                 6.0949                 6.1263
 IR Inten    --     14.5201                11.2617                 5.7259

                     49                     50                     51
                      A                      A                      A
 Frequencies --   3161.8298              3218.3515              3238.9130
 Red. masses --      1.1183                 1.1178                 1.1169
 Frc consts  --      6.5870                 6.8217                 6.9032
 IR Inten    --     23.3177                 2.5818                 5.6646

 - Thermochemistry -
 -------------------
 Temperature   298.150 Kelvin.  Pressure   1.00000 Atm.
 Atom     1 has atomic number  6 and mass  12.00000

 Molecular mass:   126.06808 amu.
 Principal axes and moments of inertia in atomic units:
                           1         2         3
     Eigenvalues --   827.70899 896.839781417.50614
           X            0.92432   0.38078  -0.02547
           Y           -0.38003   0.92449   0.02974
           Z            0.03487  -0.01781   0.99923
 This molecule is an asymmetric top.
 Rotational symmetry number  1.
 Warning -- assumption of classical behavior for rotation
           may cause significant error
 Rotational temperatures (Kelvin)      0.10464     0.09658     0.06110
 Rotational constants (GHZ):           2.18041     2.01233     1.27318
 Zero-point vibrational energy     418475.5 (Joules/Mol)
                                  100.01804 (Kcal/Mol)
 Warning -- explicit consideration of  10 degrees of freedom as
           vibrations may cause significant error
 Vibrational temperatures:     51.74   279.60   349.12   371.91   450.22
          (Kelvin)            570.30   590.44   702.19   801.86   827.52
                              925.74  1108.65  1145.47  1215.22  1258.69
                             1296.80  1320.18  1368.51  1387.02  1413.05
                             1428.07  1503.35  1537.74  1549.03  1590.75
                             1622.68  1651.26  1683.11  1718.25  1738.82
                             1793.17  1805.79  1883.41  1953.63  1996.99
                             2058.52  2086.57  2121.15  2150.26  2183.41
                             2212.61  4302.20  4398.71  4427.73  4470.65
                             4493.00  4508.12  4519.06  4549.16  4630.48
                             4660.07

 Zero-point correction=                           0.159389 (Hartree/Particle)
 Thermal correction to Energy=                    0.167228
 Thermal correction to Enthalpy=                  0.168172
 Thermal correction to Gibbs Free Energy=         0.126603
 Sum of electronic and zero-point Energies=           -422.992370
 Sum of electronic and thermal Energies=              -422.984531
 Sum of electronic and thermal Enthalpies=            -422.983587
 Sum of electronic and thermal Free Energies=         -423.025156

                     E (Thermal)             CV                S
                      KCal/Mol        Cal/Mol-Kelvin    Cal/Mol-Kelvin
 Total                  104.937             30.949             87.489
 Electronic               0.000              0.000              0.000
 Translational            0.889              2.981             40.409
 Rotational               0.889              2.981             28.444
 Vibrational            103.159             24.987             18.637
 Vibration     1          0.594              1.982              5.470
 Vibration     2          0.635              1.848              2.186
 Vibration     3          0.659              1.775              1.783
 Vibration     4          0.667              1.748              1.672
 Vibration     5          0.701              1.649              1.347
 Vibration     6          0.763              1.478              0.976
 Vibration     7          0.775              1.448              0.925
 Vibration     8          0.844              1.277              0.689
 Vibration     9          0.913              1.124              0.529
 Vibration    10          0.932              1.085              0.494

 Optimization completed.
    -- Stationary point found.
 Normal termination of Gaussian 09 at Mon Jan 27 12:54:19 2020.
