 Gaussian 09, Revision D.01,
 Gaussian 09:  ES64L-G09RevD.01 24-Apr-2013

 -----------------------------
 # b3lyp 6-31G(2df,p) opt Freq
 -----------------------------

 -----
 titel
 -----
 Symbolic Z-matrix:
 Charge =  0 Multiplicity = 1

 SCF Done:  E(RB3LYP) =  -423.140520905     A.U. after   14 cycles
 Optimization completed.
    -- Stationary point found.
 Normal termination of Gaussian 09 at Mon Jan 27 23:06:44 2020.

 ----------------------------------------------------------------------
 #N Geom=AllCheck Guess=TCheck SCRF=Check GenChk RB3LYP/6-31G(2df,p) Fr
 eq
 ----------------------------------------------------------------------

 Structure from the checkpoint file:  "/scratch/puck/g09_c691521a-ce6e-40dd-bf7d-4e2f0d294257/Gau-56580.chk"
 -----
 titel
 -----
 Charge =  0 Multiplicity = 1

                         Standard orientation:
 ---------------------------------------------------------------------
 Center     Atomic      Atomic             Coordinates (Angstroms)
 Number     Number       Type             X           Y           Z
 ---------------------------------------------------------------------
      1          8           0        0.713894    2.032465   -0.223546
      2          6           0        1.114937    0.730982   -0.553772
      3          6           0        2.026431   -0.116960    0.380065
      4          6           0        1.541542   -1.347430   -0.436549
      5          6           0        0.250163   -0.520539   -0.163696
      6          6           0       -1.163002   -0.848818   -0.599627
      7          6           0       -2.154675    0.221037   -0.183345
      8          8           0       -3.161914    0.008095    0.442190
      9          6           0        0.786452   -0.344255    1.296374
     10          1           0        0.583085    2.097686    0.727995
     11          1           0        1.419726    0.771960   -1.603496
     12          1           0        3.046971    0.104845    0.691695
     13          1           0        1.873447   -1.416878   -1.476785
     14          1           0        1.603089   -2.312148    0.071184
     15          1           0       -1.186206   -0.910440   -1.697934
     16          1           0       -1.498726   -1.810628   -0.198556
     17          1           0       -1.878242    1.250737   -0.499161
     18          1           0        0.410133    0.500455    1.882504
     19          1           0        0.799804   -1.244167    1.916705
 ---------------------------------------------------------------------

 SCF Done:  E(RB3LYP) =  -423.140520905     A.U. after    1 cycles

 The electronic state is 1-A.
 Alpha  occ. eigenvalues --  -19.15017 -19.13732 -10.26888 -10.24536 -10.21783
 Alpha  occ. eigenvalues --  -10.20917 -10.20158 -10.19931 -10.19650  -1.04375
 Alpha  occ. eigenvalues --   -1.03599  -0.91670  -0.76730  -0.68585  -0.66355
 Alpha  occ. eigenvalues --   -0.62023  -0.57472  -0.57097  -0.50211  -0.49407
 Alpha  occ. eigenvalues --   -0.47012  -0.46081  -0.43653  -0.41682  -0.40077
 Alpha  occ. eigenvalues --   -0.38118  -0.37840  -0.37328  -0.33789  -0.33478
 Alpha  occ. eigenvalues --   -0.31988  -0.31329  -0.26419  -0.24571
 Alpha virt. eigenvalues --   -0.02108   0.06564   0.09921   0.10905   0.12671
 Alpha virt. eigenvalues --    0.13100   0.13964   0.14277   0.15068   0.15480
 Alpha virt. eigenvalues --    0.16005   0.17500   0.18631   0.19780   0.22177

 Mulliken charges:
               1
     1  O   -0.446379
     2  C    0.153222
     3  C   -0.099381
     4  C   -0.266855
     5  C    0.284588
     6  C   -0.413067
     7  C    0.146754
     8  O   -0.242736
     9  C   -0.287835
    10  H    0.286504
    11  H    0.083565
    12  H    0.080117
    13  H    0.094681
    14  H    0.101063
    15  H    0.121956
    16  H    0.120914
    17  H    0.096416
    18  H    0.083479
    19  H    0.102994
 Sum of Mulliken charges =   0.00000

 Dipole moment (field-independent basis, Debye):
    X=              2.5749    Y=             -0.9575    Z=             -0.2042  Tot=              2.7548
 Quadrupole moment (field-independent basis, Debye-Ang):
   XX=            -63.6835   YY=            -54.6776   ZZ=            -50.8396
   XY=             -1.2056   XZ=              3.9330   YZ=              2.8958

  Exact polarizability:  83.772  -1.914  74.681  -3.746   0.486  70.177
 Approx polarizability: 117.322  -0.546 111.826 -10.007  -0.703 110.607

                      1                      2                      3
                      A                      A                      A
 Frequencies --     48.5032                64.9271               159.8802
 Red. masses --      4.9305                 3.6279                 3.1310
 Frc consts  --      0.0068                 0.0090                 0.0472
 IR Inten    --      7.1162                 1.9881                 4.4565

                      4                      5                      6
                      A                      A                      A
 Frequencies --    249.1728               261.6696               327.7307
 Red. masses --      1.9126                 1.5785                 2.5169
 Frc consts  --      0.0700                 0.0637                 0.1593
 IR Inten    --     21.3580                48.6732                19.2992

                      7                      8                      9
                      A                      A                      A
 Frequencies --    344.2223               405.1362               482.4154
 Red. masses --      3.3008                 3.0606                 3.2589
 Frc consts  --      0.2304                 0.2960                 0.4468
 IR Inten    --      2.0365                 5.8918                16.3789

                     10                     11                     12
                      A                      A                      A
 Frequencies --    535.7183               615.0302               655.3656
 Red. masses --      2.0869                 2.6782                 2.4032
 Frc consts  --      0.3529                 0.5969                 0.6081
 IR Inten    --      1.6338                 3.2468                 2.3715

                     13                     14                     15
                      A                      A                      A
 Frequencies --    757.6437               820.0228               828.2451
 Red. masses --      2.8541                 2.5127                 2.1228
 Frc consts  --      0.9653                 0.9955                 0.8580
 IR Inten    --      2.9810                 1.5729                 4.6954

                     16                     17                     18
                      A                      A                      A
 Frequencies --    865.7796               907.4235               939.1629
 Red. masses --      2.6063                 2.2974                 1.9497
 Frc consts  --      1.1510                 1.1146                 1.0132
 IR Inten    --     14.9062                 1.9200                 3.3853

                     19                     20                     21
                      A                      A                      A
 Frequencies --    956.8193              1011.5363              1024.1494
 Red. masses --      2.1604                 1.3093                 1.3171
 Frc consts  --      1.1653                 0.7893                 0.8140
 IR Inten    --      8.4608                 3.4298                 0.5462

                     22                     23                     24
                      A                      A                      A
 Frequencies --   1030.7834              1070.8974              1082.7829
 Red. masses --      1.4570                 2.0063                 1.7159
 Frc consts  --      0.9121                 1.3556                 1.1853
 IR Inten    --      7.4661                54.2903                 3.8911

                     25                     26                     27
                      A                      A                      A
 Frequencies --   1135.3807              1144.5613              1152.6011
 Red. masses --      1.5048                 1.6730                 1.7520
 Frc consts  --      1.1429                 1.2913                 1.3713
 IR Inten    --     20.9266                19.9335                20.7635

                     28                     29                     30
                      A                      A                      A
 Frequencies --   1157.3310              1208.6691              1227.1269
 Red. masses --      2.1569                 1.6301                 1.4511
 Frc consts  --      1.7021                 1.4031                 1.2875
 IR Inten    --     49.4868                 3.6939                 3.0402

                     31                     32                     33
                      A                      A                      A
 Frequencies --   1231.5048              1266.6675              1279.3520
 Red. masses --      1.8276                 1.6805                 1.5364
 Frc consts  --      1.6330                 1.5886                 1.4816
 IR Inten    --      9.9545                 2.3995                41.7158

                     34                     35                     36
                      A                      A                      A
 Frequencies --   1294.5977              1327.7330              1434.3223
 Red. masses --      1.6927                 3.4037                 1.1859
 Frc consts  --      1.6715                 3.5353                 1.4375
 IR Inten    --     12.1455                18.2639                 3.7910

                     37                     38                     39
                      A                      A                      A
 Frequencies --   1449.1896              1454.0553              1506.0835
 Red. masses --      1.1825                 1.0978                 1.0991
 Frc consts  --      1.4632                 1.3675                 1.4689
 IR Inten    --     42.8837                17.5212                 5.9901

                     40                     41                     42
                      A                      A                      A
 Frequencies --   1545.5426              1830.9060              2901.4636
 Red. masses --      1.1679                 9.7157                 1.0837
 Frc consts  --      1.6437                19.1891                 5.3752
 IR Inten    --      3.6548               180.2325                62.8279

                     43                     44                     45
                      A                      A                      A
 Frequencies --   3007.3410              3043.2815              3053.3729
 Red. masses --      1.0639                 1.0577                 1.0562
 Frc consts  --      5.6692                 5.7716                 5.8018
 IR Inten    --     12.0358                47.4484                28.3691

                     46                     47                     48
                      A                      A                      A
 Frequencies --   3075.7064              3084.3162              3102.4465
 Red. masses --      1.0851                 1.0965                 1.1062
 Frc consts  --      6.0479                 6.1457                 6.2733
 IR Inten    --     40.8715                10.7136                31.2110

                     49                     50                     51
                      A                      A                      A
 Frequencies --   3118.0110              3124.1948              3816.9805
 Red. masses --      1.0935                 1.1087                 1.0650
 Frc consts  --      6.2638                 6.3759                 9.1422
 IR Inten    --     53.4041                33.0316                14.6141

 - Thermochemistry -
 -------------------
 Temperature   298.150 Kelvin.  Pressure   1.00000 Atm.
 Atom     1 has atomic number  8 and mass  15.99491

 Molecular mass:   126.06808 amu.
 Principal axes and moments of inertia in atomic units:
                           1         2         3
     Eigenvalues --   647.442571498.742001767.46652
           X            0.99986  -0.01360   0.00966
           Y            0.01332   0.99953   0.02767
           Z           -0.01003  -0.02754   0.99957
 This molecule is an asymmetric top.
 Rotational symmetry number  1.
 Warning -- assumption of classical behavior for rotation
           may cause significant error
 Rotational temperatures (Kelvin)      0.13378     0.05779     0.04900
 Rotational constants (GHZ):           2.78749     1.20417     1.02109
 Zero-point vibrational energy     415210.4 (Joules/Mol)
                                   99.23766 (Kcal/Mol)
 Warning -- explicit consideration of  11 degrees of freedom as
           vibrations may cause significant error
 Vibrational temperatures:     69.79    93.42   230.03   358.50   376.48
          (Kelvin)            471.53   495.26   582.90   694.09   770.78
                              884.89   942.92  1090.08  1179.83  1191.66
                             1245.66  1305.58  1351.24  1376.65  1455.37
                             1473.52  1483.07  1540.78  1557.88  1633.56
                             1646.77  1658.33  1665.14  1739.00  1765.56
                             1771.86  1822.45  1840.70  1862.63  1910.31
                             2063.67  2085.06  2092.06  2166.92  2223.69
                             2634.26  4174.55  4326.89  4378.60  4393.12
                             4425.25  4437.64  4463.72  4486.12  4495.01
                             5491.78

 Zero-point correction=                           0.158145 (Hartree/Particle)
 Thermal correction to Energy=                    0.166782
 Thermal correction to Enthalpy=                  0.167726
 Thermal correction to Gibbs Free Energy=         0.124027
 Sum of electronic and zero-point Energies=           -422.982376
 Sum of electronic and thermal Energies=              -422.973739
 Sum of electronic and thermal Enthalpies=            -422.972795
 Sum of electronic and thermal Free Energies=         -423.016494

                     E (Thermal)             CV                S
                      KCal/Mol        Cal/Mol-Kelvin    Cal/Mol-Kelvin
 Total                  104.657             32.457             91.972
 Electronic               0.000              0.000              0.000
 Translational            0.889              2.981             40.409
 Rotational               0.889              2.981             28.930
 Vibrational            102.880             26.495             22.634
 Vibration     1          0.595              1.978              4.878
 Vibration     2          0.597              1.971              4.302
 Vibration     3          0.622              1.891              2.551
 Vibration     4          0.662              1.764              1.736
 Vibration     5          0.669              1.743              1.651
 Vibration     6          0.711              1.620              1.271
 Vibration     7          0.723              1.587              1.193
 Vibration     8          0.770              1.459              0.944
 Vibration     9          0.839              1.289              0.704
 Vibration    10          0.891              1.171              0.575
 Vibration    11          0.975              1.000              0.425

 Optimization completed.
    -- Stationary point found.
 Normal termination of Gaussian 09 at Mon Jan 27 23:52:38 2020.
