 Gaussian 09, Revision D.01,
 Gaussian 09:  ES64L-G09RevD.01 24-Apr-2013

 -----------------------------
 # b3lyp 6-31G(2df,p) opt Freq
 -----------------------------

 -----
 titel
 -----
 Symbolic Z-matrix:
 Charge =  0 Multiplicity = 1

 SCF Done:  E(RB3LYP) =  -423.206152059     A.U. after   14 cycles
 Optimization completed.
    -- Stationary point found.
 Normal termination of Gaussian 09 at Mon Jan 27 16:17:08 2020.

 ----------------------------------------------------------------------
 #N Geom=AllCheck Guess=TCheck SCRF=Check GenChk RB3LYP/6-31G(2df,p) Fr
 eq
 ----------------------------------------------------------------------

 Structure from the checkpoint file:  "/scratch/puck/g09_806c830a-12ad-4a82-9eba-fdf9015322dd/Gau-176472.chk"
 -----
 titel
 -----
 Charge =  0 Multiplicity = 1

                         Standard orientation:
 ---------------------------------------------------------------------
 Center     Atomic      Atomic             Coordinates (Angstroms)
 Number     Number       Type             X           Y           Z
 ---------------------------------------------------------------------
      1          6           0       -2.365157    0.102020   -0.770632
      2          6           0       -1.074510    0.180990    0.046369
      3          6           0       -1.040092    1.448999    0.894815
      4          6           0       -0.769034   -1.165275    0.798448
      5          6           0        0.437870   -1.408641   -0.123478
      6          8           0        1.673975   -0.852241    0.433423
      7          6           0        1.510229    0.329532   -0.259831
      8          8           0        2.240357    1.267757   -0.267057
      9          6           0        0.180740   -0.083823   -0.877967
     10          1           0       -2.389633   -0.792274   -1.402743
     11          1           0       -3.237368    0.067443   -0.108343
     12          1           0       -2.470205    0.976722   -1.421917
     13          1           0       -1.097919    2.344992    0.267475
     14          1           0       -1.891935    1.466245    1.583973
     15          1           0       -0.126065    1.519084    1.491055
     16          1           0       -0.499770   -1.077593    1.853129
     17          1           0       -1.562639   -1.909319    0.693956
     18          1           0        0.617393   -2.379840   -0.580620
     19          1           0        0.063213    0.037599   -1.953248
 ---------------------------------------------------------------------

 SCF Done:  E(RB3LYP) =  -423.206152059     A.U. after    1 cycles

 The electronic state is 1-A.
 Alpha  occ. eigenvalues --  -19.17696 -19.13172 -10.30472 -10.25510 -10.21971
 Alpha  occ. eigenvalues --  -10.20754 -10.19601 -10.18969 -10.18239  -1.10257
 Alpha  occ. eigenvalues --   -1.03004  -0.86147  -0.75193  -0.71276  -0.69879
 Alpha  occ. eigenvalues --   -0.63164  -0.56915  -0.52759  -0.51467  -0.49374
 Alpha  occ. eigenvalues --   -0.46985  -0.44588  -0.43273  -0.42628  -0.41770
 Alpha  occ. eigenvalues --   -0.39966  -0.38436  -0.37039  -0.35489  -0.34407
 Alpha  occ. eigenvalues --   -0.32407  -0.30707  -0.29160  -0.26894
 Alpha virt. eigenvalues --    0.00828   0.07488   0.08218   0.09883   0.11218
 Alpha virt. eigenvalues --    0.12549   0.13628   0.14203   0.15191   0.16153
 Alpha virt. eigenvalues --    0.16789   0.16989   0.18143   0.19544   0.20741

 Mulliken charges:
               1
     1  C   -0.441640
     2  C    0.318795
     3  C   -0.446960
     4  C   -0.297780
     5  C    0.118025
     6  O   -0.260160
     7  C    0.460333
     8  O   -0.334228
     9  C   -0.279084
    10  H    0.114172
    11  H    0.120221
    12  H    0.121725
    13  H    0.124990
    14  H    0.115857
    15  H    0.135928
    16  H    0.119848
    17  H    0.109390
    18  H    0.100165
    19  H    0.100402
 Sum of Mulliken charges =   0.00000

 Dipole moment (field-independent basis, Debye):
    X=             -3.7255    Y=             -1.7850    Z=             -0.6937  Tot=              4.1889
 Quadrupole moment (field-independent basis, Debye-Ang):
   XX=            -60.7211   YY=            -53.7831   ZZ=            -51.5968
   XY=             -3.2250   XZ=             -1.0852   YZ=              1.4042

  Exact polarizability:  81.464   3.556  76.970  -0.279  -1.148  65.577
 Approx polarizability: 113.755  10.044 118.854  -0.015  -5.296  99.369

                      1                      2                      3
                      A                      A                      A
 Frequencies --     84.8924               140.4591               221.0691
 Red. masses --      3.6568                 4.9763                 1.1181
 Frc consts  --      0.0155                 0.0578                 0.0322
 IR Inten    --      0.6519                 3.1794                 0.3087

                      4                      5                      6
                      A                      A                      A
 Frequencies --    241.5954               277.8083               314.0907
 Red. masses --      2.1198                 1.1649                 3.0403
 Frc consts  --      0.0729                 0.0530                 0.1767
 IR Inten    --      0.4379                 0.1740                 0.2056

                      7                      8                      9
                      A                      A                      A
 Frequencies --    358.3054               393.1597               427.4390
 Red. masses --      2.2963                 2.9304                 2.1012
 Frc consts  --      0.1737                 0.2669                 0.2262
 IR Inten    --      0.1761                 1.8605                 0.2811

                     10                     11                     12
                      A                      A                      A
 Frequencies --    493.3860               610.5338               674.5102
 Red. masses --      4.2359                 3.7354                 5.5298
 Frc consts  --      0.6075                 0.8204                 1.4823
 IR Inten    --      2.6448                 0.5538                 1.8453

                     13                     14                     15
                      A                      A                      A
 Frequencies --    764.9755               825.8571               850.3091
 Red. masses --      4.3961                 2.8290                 2.4007
 Frc consts  --      1.5157                 1.1368                 1.0227
 IR Inten    --      1.1974                11.8467                 4.4509

                     16                     17                     18
                      A                      A                      A
 Frequencies --    860.6290               891.6823               929.9539
 Red. masses --      1.9802                 3.1199                 2.2597
 Frc consts  --      0.8642                 1.4615                 1.1514
 IR Inten    --      6.0088                 7.6595                26.4613

                     19                     20                     21
                      A                      A                      A
 Frequencies --    962.0456               968.4082               991.0971
 Red. masses --      1.7616                 1.5459                 2.9647
 Frc consts  --      0.9606                 0.8542                 1.7158
 IR Inten    --      9.6279                 4.6055                27.6571

                     22                     23                     24
                      A                      A                      A
 Frequencies --   1008.3662              1041.8631              1090.3757
 Red. masses --      2.2089                 1.5605                 2.7964
 Frc consts  --      1.3233                 0.9980                 1.9588
 IR Inten    --      2.4117                 2.3540                71.3719

                     25                     26                     27
                      A                      A                      A
 Frequencies --   1116.1035              1159.8057              1179.2885
 Red. masses --      1.4502                 2.1502                 1.6040
 Frc consts  --      1.0643                 1.7041                 1.3143
 IR Inten    --     19.7410                 4.5319                 3.6095

                     28                     29                     30
                      A                      A                      A
 Frequencies --   1195.9646              1247.8208              1262.9935
 Red. masses --      1.8254                 1.9579                 2.1817
 Frc consts  --      1.5383                 1.7961                 2.0505
 IR Inten    --      8.0784                 5.9660                19.1852

                     31                     32                     33
                      A                      A                      A
 Frequencies --   1280.1486              1297.7008              1326.6290
 Red. masses --      2.1783                 2.2361                 1.4954
 Frc consts  --      2.1033                 2.2187                 1.5506
 IR Inten    --     11.5623                13.6121                22.1014

                     34                     35                     36
                      A                      A                      A
 Frequencies --   1405.8794              1425.5326              1466.4627
 Red. masses --      1.2509                 1.2203                 1.1005
 Frc consts  --      1.4566                 1.4611                 1.3944
 IR Inten    --      4.8543                 1.2337                 4.0651

                     37                     38                     39
                      A                      A                      A
 Frequencies --   1482.1678              1486.4943              1502.0869
 Red. masses --      1.0457                 1.0509                 1.0568
 Frc consts  --      1.3535                 1.3682                 1.4048
 IR Inten    --      0.2356                 3.3948                 1.9376

                     40                     41                     42
                      A                      A                      A
 Frequencies --   1505.8614              1929.5380              3022.9453
 Red. masses --      1.0521                12.7921                 1.0346
 Frc consts  --      1.4056                28.0608                 5.5704
 IR Inten    --      5.1803               417.4952                21.3095

                     43                     44                     45
                      A                      A                      A
 Frequencies --   3031.2990              3066.8173              3092.8909
 Red. masses --      1.0364                 1.0592                 1.1017
 Frc consts  --      5.6107                 5.8696                 6.2091
 IR Inten    --     18.9287                18.7677                 3.9713

                     46                     47                     48
                      A                      A                      A
 Frequencies --   3093.9935              3098.3355              3111.6760
 Red. masses --      1.1015                 1.1009                 1.1009
 Frc consts  --      6.2128                 6.2268                 6.2806
 IR Inten    --     20.6271                38.2326                17.1667

                     49                     50                     51
                      A                      A                      A
 Frequencies --   3123.4097              3131.1948              3140.6348
 Red. masses --      1.1053                 1.0902                 1.0933
 Frc consts  --      6.3529                 6.2974                 6.3538
 IR Inten    --     11.3465                18.7987                24.1854

 - Thermochemistry -
 -------------------
 Temperature   298.150 Kelvin.  Pressure   1.00000 Atm.
 Atom     1 has atomic number  6 and mass  12.00000

 Molecular mass:   126.06808 amu.
 Principal axes and moments of inertia in atomic units:
                           1         2         3
     Eigenvalues --   651.367031218.435021472.12287
           X            0.99963  -0.02679   0.00445
           Y            0.02659   0.99883   0.04040
           Z           -0.00553  -0.04026   0.99917
 This molecule is an asymmetric top.
 Rotational symmetry number  1.
 Warning -- assumption of classical behavior for rotation
           may cause significant error
 Rotational temperatures (Kelvin)      0.13297     0.07109     0.05884
 Rotational constants (GHZ):           2.77070     1.48120     1.22594
 Zero-point vibrational energy     416339.2 (Joules/Mol)
                                   99.50747 (Kcal/Mol)
 Warning -- explicit consideration of  11 degrees of freedom as
           vibrations may cause significant error
 Vibrational temperatures:    122.14   202.09   318.07   347.60   399.70
          (Kelvin)            451.91   515.52   565.67   614.99   709.87
                              878.42   970.47  1100.63  1188.22  1223.40
                             1238.25  1282.93  1337.99  1384.17  1393.32
                             1425.97  1450.81  1499.01  1568.81  1605.82
                             1668.70  1696.73  1720.72  1795.33  1817.16
                             1841.85  1867.10  1908.72  2022.74  2051.02
                             2109.91  2132.51  2138.73  2161.17  2166.60
                             2776.17  4349.34  4361.36  4412.46  4449.97
                             4451.56  4457.81  4477.00  4493.88  4505.09
                             4518.67

 Zero-point correction=                           0.158575 (Hartree/Particle)
 Thermal correction to Energy=                    0.166955
 Thermal correction to Enthalpy=                  0.167899
 Thermal correction to Gibbs Free Energy=         0.125803
 Sum of electronic and zero-point Energies=           -423.047577
 Sum of electronic and thermal Energies=              -423.039197
 Sum of electronic and thermal Enthalpies=            -423.038253
 Sum of electronic and thermal Free Energies=         -423.080349

                     E (Thermal)             CV                S
                      KCal/Mol        Cal/Mol-Kelvin    Cal/Mol-Kelvin
 Total                  104.766             32.336             88.599
 Electronic               0.000              0.000              0.000
 Translational            0.889              2.981             40.409
 Rotational               0.889              2.981             28.548
 Vibrational            102.988             26.374             19.643
 Vibration     1          0.601              1.960              3.774
 Vibration     2          0.615              1.913              2.798
 Vibration     3          0.648              1.809              1.950
 Vibration     4          0.658              1.777              1.791
 Vibration     5          0.679              1.715              1.547
 Vibration     6          0.702              1.647              1.341
 Vibration     7          0.733              1.558              1.129
 Vibration     8          0.760              1.485              0.988
 Vibration     9          0.789              1.411              0.867
 Vibration    10          0.849              1.265              0.675
 Vibration    11          0.970              1.010              0.432

 Optimization completed.
    -- Stationary point found.
 Normal termination of Gaussian 09 at Mon Jan 27 16:59:23 2020.
