 Gaussian 09, Revision D.01,
 Gaussian 09:  ES64L-G09RevD.01 24-Apr-2013

 -----------------------------
 # b3lyp 6-31G(2df,p) opt Freq
 -----------------------------

 -----
 titel
 -----
 Symbolic Z-matrix:
 Charge =  0 Multiplicity = 1

 SCF Done:  E(RB3LYP) =  -423.182164714     A.U. after   13 cycles
 Optimization completed.
    -- Stationary point found.
 Normal termination of Gaussian 09 at Mon Jan 27 17:06:28 2020.

 ----------------------------------------------------------------------
 #N Geom=AllCheck Guess=TCheck SCRF=Check GenChk RB3LYP/6-31G(2df,p) Fr
 eq
 ----------------------------------------------------------------------

 Structure from the checkpoint file:  "/scratch/puck/g09_08a77e47-ab15-4dc4-af90-be422642e4d1/Gau-59738.chk"
 -----
 titel
 -----
 Charge =  0 Multiplicity = 1

                         Standard orientation:
 ---------------------------------------------------------------------
 Center     Atomic      Atomic             Coordinates (Angstroms)
 Number     Number       Type             X           Y           Z
 ---------------------------------------------------------------------
      1          8           0       -2.207318   -1.086216   -0.078196
      2          6           0       -1.023738   -0.334489    0.001467
      3          6           0        0.038431   -0.693195    1.086673
      4          6           0        1.084166   -0.283818   -0.000829
      5          8           0        2.318463   -0.944376   -0.079336
      6          6           0        0.036650   -0.710667   -1.060787
      7          6           0        1.174731    1.232498   -0.012594
      8          6           0        0.040510    1.931632   -0.008893
      9          6           0       -1.274985    1.185209   -0.005509
     10          1           0       -2.806770   -0.780403    0.611714
     11          1           0        0.035879   -0.145705    2.033116
     12          1           0        0.053725   -1.772795    1.254419
     13          1           0        2.857598   -0.665302    0.668812
     14          1           0        0.032303   -0.187940   -2.019145
     15          1           0        0.051079   -1.793058   -1.207015
     16          1           0        2.158092    1.692786   -0.043415
     17          1           0        0.027428    3.016985   -0.024123
     18          1           0       -1.875372    1.467607    0.873815
     19          1           0       -1.877704    1.449553   -0.885090
 ---------------------------------------------------------------------

 SCF Done:  E(RB3LYP) =  -423.182164714     A.U. after    1 cycles

 The electronic state is 1-A.
 Alpha  occ. eigenvalues --  -19.13770 -19.13739 -10.23914 -10.23880 -10.18852
 Alpha  occ. eigenvalues --  -10.18412 -10.18006 -10.17353 -10.17287  -1.02599
 Alpha  occ. eigenvalues --   -1.02045  -0.86425  -0.76629  -0.71528  -0.66301
 Alpha  occ. eigenvalues --   -0.60488  -0.58231  -0.53719  -0.51397  -0.47618
 Alpha  occ. eigenvalues --   -0.46736  -0.43887  -0.42946  -0.41510  -0.39441
 Alpha  occ. eigenvalues --   -0.38971  -0.36910  -0.34503  -0.34021  -0.31483
 Alpha  occ. eigenvalues --   -0.30169  -0.27354  -0.25679  -0.23626
 Alpha virt. eigenvalues --    0.01420   0.07508   0.08705   0.10112   0.12510
 Alpha virt. eigenvalues --    0.14185   0.15150   0.15905   0.16085   0.17729
 Alpha virt. eigenvalues --    0.18699   0.20724   0.21886   0.22577   0.23018

 Mulliken charges:
               1
     1  O   -0.486934
     2  C    0.409928
     3  C   -0.341123
     4  C    0.387922
     5  O   -0.494069
     6  C   -0.280586
     7  C   -0.140898
     8  C   -0.069506
     9  C   -0.323696
    10  H    0.273405
    11  H    0.082823
    12  H    0.105505
    13  H    0.274857
    14  H    0.097562
    15  H    0.113625
    16  H    0.087915
    17  H    0.094136
    18  H    0.093671
    19  H    0.115463
 Sum of Mulliken charges =   0.00000

 Dipole moment (field-independent basis, Debye):
    X=             -0.2634    Y=              1.7990    Z=              1.9226  Tot=              2.6462
 Quadrupole moment (field-independent basis, Debye-Ang):
   XX=            -50.0875   YY=            -54.8477   ZZ=            -52.3348
   XY=             -0.3980   XZ=              0.3890   YZ=             -1.6505

  Exact polarizability:  86.125  -3.381  77.681  -0.074  -0.051  62.725
 Approx polarizability: 129.037 -10.010 112.511  -0.323   1.614  97.069

                      1                      2                      3
                      A                      A                      A
 Frequencies --    235.8553               247.8739               258.5436
 Red. masses --      2.2868                 1.3195                 1.1377
 Frc consts  --      0.0749                 0.0478                 0.0448
 IR Inten    --      4.0903                65.0280                23.2527

                      4                      5                      6
                      A                      A                      A
 Frequencies --    284.3059               327.5619               338.5657
 Red. masses --      3.0962                 3.2088                 2.5117
 Frc consts  --      0.1474                 0.2028                 0.1696
 IR Inten    --     19.1645                78.8476                 5.5595

                      7                      8                      9
                      A                      A                      A
 Frequencies --    410.9094               442.0876               454.4505
 Red. masses --      3.8428                 5.5847                 2.0264
 Frc consts  --      0.3823                 0.6431                 0.2466
 IR Inten    --     17.6489                 0.6696                 2.1749

                     10                     11                     12
                      A                      A                      A
 Frequencies --    488.8239               526.8616               577.5890
 Red. masses --      2.3386                 2.0888                 4.9382
 Frc consts  --      0.3292                 0.3416                 0.9706
 IR Inten    --      1.6105                 6.5245                 0.4614

                     13                     14                     15
                      A                      A                      A
 Frequencies --    700.6537               704.8708               714.5852
 Red. masses --      3.7307                 1.9601                 2.0165
 Frc consts  --      1.0791                 0.5738                 0.6067
 IR Inten    --      0.6284                12.9678                13.9496

                     16                     17                     18
                      A                      A                      A
 Frequencies --    863.0363               911.7320               924.4199
 Red. masses --      2.3126                 4.4281                 1.8252
 Frc consts  --      1.0149                 2.1687                 0.9190
 IR Inten    --      0.9783                 1.2164                 7.3100

                     19                     20                     21
                      A                      A                      A
 Frequencies --    937.3876               956.6351               969.5576
 Red. masses --      1.7711                 2.2198                 1.4827
 Frc consts  --      0.9169                 1.1969                 0.8212
 IR Inten    --      2.7468                 1.7522                 7.8411

                     22                     23                     24
                      A                      A                      A
 Frequencies --    971.4524              1014.5571              1046.2066
 Red. masses --      1.5122                 2.2737                 1.2384
 Frc consts  --      0.8408                 1.3789                 0.7986
 IR Inten    --      4.5740                 4.8740                 6.0284

                     25                     26                     27
                      A                      A                      A
 Frequencies --   1073.7280              1078.2249              1156.4732
 Red. masses --      1.8814                 2.2669                 1.1550
 Frc consts  --      1.2780                 1.5527                 0.9101
 IR Inten    --     10.8000               141.4044                11.9051

                     28                     29                     30
                      A                      A                      A
 Frequencies --   1180.4552              1181.8020              1221.5749
 Red. masses --      1.4835                 1.3217                 1.7243
 Frc consts  --      1.2180                 1.0876                 1.5160
 IR Inten    --      7.9765                15.3928                 8.7259

                     31                     32                     33
                      A                      A                      A
 Frequencies --   1241.5595              1256.9428              1267.4192
 Red. masses --      1.8608                 2.2017                 2.4005
 Frc consts  --      1.6900                 2.0495                 2.2719
 IR Inten    --     18.1840                47.3906               140.3572

                     34                     35                     36
                      A                      A                      A
 Frequencies --   1343.6104              1357.5153              1380.0546
 Red. masses --      2.0537                 1.7091                 1.6752
 Frc consts  --      2.1844                 1.8557                 1.8798
 IR Inten    --     57.9784                 9.9507                25.9977

                     37                     38                     39
                      A                      A                      A
 Frequencies --   1399.5885              1469.6706              1472.7606
 Red. masses --      1.7740                 1.0979                 1.0983
 Frc consts  --      2.0474                 1.3972                 1.4035
 IR Inten    --      9.7601                 3.4280                 0.9321

                     40                     41                     42
                      A                      A                      A
 Frequencies --   1512.0042              1694.1280              2984.8979
 Red. masses --      1.1750                 6.7486                 1.0667
 Frc consts  --      1.5827                11.4119                 5.5994
 IR Inten    --      0.0576                 6.4061                44.4488

                     43                     44                     45
                      A                      A                      A
 Frequencies --   3031.6010              3052.8148              3070.1646
 Red. masses --      1.0929                 1.0561                 1.0570
 Frc consts  --      5.9178                 5.7988                 5.8704
 IR Inten    --     20.8082                37.5741                14.5741

                     46                     47                     48
                      A                      A                      A
 Frequencies --   3123.5758              3135.2406              3162.3441
 Red. masses --      1.1098                 1.1101                 1.0843
 Frc consts  --      6.3796                 6.4290                 6.3891
 IR Inten    --     20.4125                20.8930                 5.9048

                     49                     50                     51
                      A                      A                      A
 Frequencies --   3186.2203              3796.5747              3800.7080
 Red. masses --      1.1003                 1.0657                 1.0658
 Frc consts  --      6.5813                 9.0507                 9.0713
 IR Inten    --     24.2356                14.4859                16.3597

 - Thermochemistry -
 -------------------
 Temperature   298.150 Kelvin.  Pressure   1.00000 Atm.
 Atom     1 has atomic number  8 and mass  15.99491

 Molecular mass:   126.06808 amu.
 Principal axes and moments of inertia in atomic units:
                           1         2         3
     Eigenvalues --   687.505511057.978171448.57324
           X            0.99987  -0.01596   0.00065
           Y            0.01597   0.99983  -0.00928
           Z           -0.00050   0.00929   0.99996
 This molecule is an asymmetric top.
 Rotational symmetry number  1.
 Warning -- assumption of classical behavior for rotation
           may cause significant error
 Rotational temperatures (Kelvin)      0.12598     0.08187     0.05979
 Rotational constants (GHZ):           2.62506     1.70584     1.24588
 Zero-point vibrational energy     418335.2 (Joules/Mol)
                                   99.98450 (Kcal/Mol)
 Warning -- explicit consideration of  12 degrees of freedom as
           vibrations may cause significant error
 Vibrational temperatures:    339.34   356.63   371.99   409.05   471.29
          (Kelvin)            487.12   591.21   636.06   653.85   703.31
                              758.04   831.02  1008.08  1014.15  1028.13
                             1241.72  1311.78  1330.03  1348.69  1376.38
                             1394.98  1397.70  1459.72  1505.26  1544.85
                             1551.32  1663.90  1698.41  1700.35  1757.57
                             1786.32  1808.46  1823.53  1933.15  1953.16
                             1985.59  2013.69  2114.53  2118.97  2175.43
                             2437.47  4294.60  4361.79  4392.31  4417.28
                             4494.12  4510.91  4549.90  4584.25  5462.42
                             5468.36

 Zero-point correction=                           0.159335 (Hartree/Particle)
 Thermal correction to Energy=                    0.167229
 Thermal correction to Enthalpy=                  0.168174
 Thermal correction to Gibbs Free Energy=         0.127852
 Sum of electronic and zero-point Energies=           -423.022829
 Sum of electronic and thermal Energies=              -423.014935
 Sum of electronic and thermal Enthalpies=            -423.013991
 Sum of electronic and thermal Free Energies=         -423.054312

                     E (Thermal)             CV                S
                      KCal/Mol        Cal/Mol-Kelvin    Cal/Mol-Kelvin
 Total                  104.938             32.973             84.863
 Electronic               0.000              0.000              0.000
 Translational            0.889              2.981             40.409
 Rotational               0.889              2.981             28.446
 Vibrational            103.161             27.011             16.009
 Vibration     1          0.655              1.786              1.834
 Vibration     2          0.662              1.766              1.746
 Vibration     3          0.667              1.748              1.672
 Vibration     4          0.683              1.703              1.508
 Vibration     5          0.711              1.620              1.272
 Vibration     6          0.719              1.598              1.219
 Vibration     7          0.775              1.447              0.923
 Vibration     8          0.802              1.378              0.820
 Vibration     9          0.813              1.351              0.782
 Vibration    10          0.845              1.275              0.687
 Vibration    11          0.882              1.191              0.594
 Vibration    12          0.934              1.080              0.490

 Normal termination of Gaussian 09 at Mon Jan 27 17:52:02 2020.
