 Gaussian 09, Revision D.01,
 Gaussian 09:  ES64L-G09RevD.01 24-Apr-2013

 -----------------------------
 # b3lyp 6-31G(2df,p) opt Freq
 -----------------------------

 -----
 titel
 -----
 Symbolic Z-matrix:
 Charge =  0 Multiplicity = 1

 SCF Done:  E(RB3LYP) =  -423.188491018     A.U. after   14 cycles
 Optimization completed.
    -- Stationary point found.
 Normal termination of Gaussian 09 at Tue Jan 28 09:18:01 2020.

 ----------------------------------------------------------------------
 #N Geom=AllCheck Guess=TCheck SCRF=Check GenChk RB3LYP/6-31G(2df,p) Fr
 eq
 ----------------------------------------------------------------------

 Structure from the checkpoint file:  "/scratch/puck/g09_721acb9a-cbc7-4ccf-a1e4-60e52f0030b9/Gau-107404.chk"
 -----
 titel
 -----
 Charge =  0 Multiplicity = 1

                         Standard orientation:
 ---------------------------------------------------------------------
 Center     Atomic      Atomic             Coordinates (Angstroms)
 Number     Number       Type             X           Y           Z
 ---------------------------------------------------------------------
      1          6           0        2.748164   -0.809953   -0.384599
      2          6           0        2.023396    0.251222    0.452149
      3          6           0        0.528574    0.254124    0.259666
      4          6           0       -0.382285    1.427343    0.713837
      5          6           0       -1.177274    0.907404   -0.503859
      6          8           0        0.087142    0.524502   -1.128679
      7          6           0       -1.645795   -0.468258   -0.000269
      8          8           0       -2.728211   -0.979794   -0.045035
      9          6           0       -0.315202   -1.002171    0.579489
     10          1           0        3.831215   -0.721992   -0.262048
     11          1           0        2.462057   -1.823992   -0.088908
     12          1           0        2.513883   -0.688834   -1.445860
     13          1           0        2.230400    0.103990    1.519967
     14          1           0        2.400707    1.247034    0.192323
     15          1           0       -0.838883    1.397917    1.706984
     16          1           0        0.073418    2.397451    0.508993
     17          1           0       -1.845783    1.505222   -1.119249
     18          1           0       -0.403317   -1.246705    1.641988
     19          1           0        0.027397   -1.886024    0.037045
 ---------------------------------------------------------------------

 SCF Done:  E(RB3LYP) =  -423.188491019     A.U. after    1 cycles

 The electronic state is 1-A.
 Alpha  occ. eigenvalues --  -19.14748 -19.13777 -10.27186 -10.25504 -10.24641
 Alpha  occ. eigenvalues --  -10.20315 -10.19531 -10.19467 -10.18244  -1.06517
 Alpha  occ. eigenvalues --   -1.04186  -0.80689  -0.78081  -0.72530  -0.69116
 Alpha  occ. eigenvalues --   -0.62541  -0.56597  -0.53120  -0.49980  -0.48247
 Alpha  occ. eigenvalues --   -0.45965  -0.45408  -0.43061  -0.41931  -0.40624
 Alpha  occ. eigenvalues --   -0.39967  -0.38626  -0.36692  -0.35603  -0.34901
 Alpha  occ. eigenvalues --   -0.33389  -0.32211  -0.28246  -0.23037
 Alpha virt. eigenvalues --   -0.01651   0.07346   0.10050   0.11520   0.11612
 Alpha virt. eigenvalues --    0.12138   0.14281   0.14667   0.15086   0.15973
 Alpha virt. eigenvalues --    0.17043   0.17710   0.18813   0.20531   0.21975

 Mulliken charges:
               1
     1  C   -0.388568
     2  C   -0.289866
     3  C    0.428491
     4  C   -0.297834
     5  C   -0.035186
     6  O   -0.333329
     7  C    0.446342
     8  O   -0.322058
     9  C   -0.388721
    10  H    0.117562
    11  H    0.120351
    12  H    0.142104
    13  H    0.104810
    14  H    0.107896
    15  H    0.108546
    16  H    0.118744
    17  H    0.098966
    18  H    0.124252
    19  H    0.137497
 Sum of Mulliken charges =   0.00000

 Dipole moment (field-independent basis, Debye):
    X=              2.3893    Y=              1.2391    Z=              1.6674  Tot=              3.1661
 Quadrupole moment (field-independent basis, Debye-Ang):
   XX=            -59.6832   YY=            -52.0977   ZZ=            -53.4534
   XY=             -4.9596   XZ=              0.7626   YZ=              0.2613

  Exact polarizability:  88.355  -0.040  73.235   1.868  -0.995  64.020
 Approx polarizability: 122.256   4.964 106.804   1.595  -2.930 103.343

                      1                      2                      3
                      A                      A                      A
 Frequencies --     83.6066               114.3020               198.3210
 Red. masses --      2.3254                 4.2994                 3.5009
 Frc consts  --      0.0096                 0.0331                 0.0811
 IR Inten    --      0.2174                 3.5082                 2.9616

                      4                      5                      6
                      A                      A                      A
 Frequencies --    208.3937               300.2192               364.0329
 Red. masses --      1.3101                 1.8695                 2.4927
 Frc consts  --      0.0335                 0.0993                 0.1946
 IR Inten    --      0.1867                 0.3493                 0.6978

                      7                      8                      9
                      A                      A                      A
 Frequencies --    438.2584               461.3997               517.2444
 Red. masses --      2.4447                 3.8931                 2.8649
 Frc consts  --      0.2767                 0.4883                 0.4516
 IR Inten    --      3.7508                 6.3452                 7.6300

                     10                     11                     12
                      A                      A                      A
 Frequencies --    558.6956               631.3547               675.7848
 Red. masses --      3.8754                 3.0712                 3.2855
 Frc consts  --      0.7127                 0.7213                 0.8840
 IR Inten    --      3.7829                 5.3995                 1.5373

                     13                     14                     15
                      A                      A                      A
 Frequencies --    764.4224               773.6319               818.9527
 Red. masses --      1.7855                 2.2293                 2.6728
 Frc consts  --      0.6147                 0.7861                 1.0562
 IR Inten    --      1.0143                 2.1664                 6.1419

                     16                     17                     18
                      A                      A                      A
 Frequencies --    833.8123               889.8970               935.0856
 Red. masses --      3.0103                 2.3044                 2.7700
 Frc consts  --      1.2331                 1.0752                 1.4270
 IR Inten    --     26.5819                18.6764                24.1819

                     19                     20                     21
                      A                      A                      A
 Frequencies --    964.7518               980.7752              1012.3594
 Red. masses --      2.0716                 1.6199                 3.2457
 Frc consts  --      1.1360                 0.9180                 1.9599
 IR Inten    --     13.4869                 1.0840                15.6577

                     22                     23                     24
                      A                      A                      A
 Frequencies --   1026.0669              1059.5753              1096.9610
 Red. masses --      2.3734                 1.5525                 1.5395
 Frc consts  --      1.4722                 1.0269                 1.0915
 IR Inten    --      8.4387                11.6436                 4.8290

                     25                     26                     27
                      A                      A                      A
 Frequencies --   1104.1404              1168.3377              1187.3516
 Red. masses --      2.0648                 1.4974                 1.6103
 Frc consts  --      1.4831                 1.2043                 1.3375
 IR Inten    --      1.9951                 1.5485                 4.6171

                     28                     29                     30
                      A                      A                      A
 Frequencies --   1206.4516              1223.1469              1251.0156
 Red. masses --      1.7022                 2.1183                 1.5578
 Frc consts  --      1.4598                 1.8672                 1.4364
 IR Inten    --     13.8977                 5.8456                 1.3498

                     31                     32                     33
                      A                      A                      A
 Frequencies --   1256.0677              1300.1144              1332.8527
 Red. masses --      1.7308                 1.4792                 1.5714
 Frc consts  --      1.6089                 1.4732                 1.6448
 IR Inten    --      5.8928                22.1828                17.2765

                     34                     35                     36
                      A                      A                      A
 Frequencies --   1392.0832              1411.0073              1450.1285
 Red. masses --      2.0774                 1.2272                 1.1117
 Frc consts  --      2.3719                 1.4396                 1.3774
 IR Inten    --      7.3426                 3.0446                 4.9584

                     37                     38                     39
                      A                      A                      A
 Frequencies --   1474.2762              1487.1680              1500.1792
 Red. masses --      1.0822                 1.1634                 1.0391
 Frc consts  --      1.3858                 1.5160                 1.3778
 IR Inten    --      2.0598                 2.8154                 5.7630

                     40                     41                     42
                      A                      A                      A
 Frequencies --   1509.1789              1884.4444              3027.9777
 Red. masses --      1.0699                12.5875                 1.0603
 Frc consts  --      1.4357                26.3364                 5.7279
 IR Inten    --      6.7852               270.3987                19.0348

                     43                     44                     45
                      A                      A                      A
 Frequencies --   3044.8093              3062.0802              3065.6868
 Red. masses --      1.0353                 1.0585                 1.1009
 Frc consts  --      5.6551                 5.8475                 6.0962
 IR Inten    --     19.0926                22.2347                11.4340

                     46                     47                     48
                      A                      A                      A
 Frequencies --   3069.2098              3112.6558              3122.8704
 Red. masses --      1.0596                 1.1016                 1.1024
 Frc consts  --      5.8807                 6.2882                 6.3342
 IR Inten    --      8.1211                32.3771                20.5493

                     49                     50                     51
                      A                      A                      A
 Frequencies --   3124.2421              3136.9106              3156.9203
 Red. masses --      1.1032                 1.1085                 1.0926
 Frc consts  --      6.3445                 6.4268                 6.4154
 IR Inten    --      5.3887                15.6530                25.4177

 - Thermochemistry -
 -------------------
 Temperature   298.150 Kelvin.  Pressure   1.00000 Atm.
 Atom     1 has atomic number  6 and mass  12.00000

 Molecular mass:   126.06808 amu.
 Principal axes and moments of inertia in atomic units:
                           1         2         3
     Eigenvalues --   533.146631451.617861625.82188
           X            0.99939  -0.03482  -0.00346
           Y            0.03491   0.99888   0.03204
           Z            0.00234  -0.03214   0.99948
 This molecule is an asymmetric top.
 Rotational symmetry number  1.
 Warning -- assumption of classical behavior for rotation
           may cause significant error
 Rotational temperatures (Kelvin)      0.16246     0.05967     0.05327
 Rotational constants (GHZ):           3.38507     1.24326     1.11005
 Zero-point vibrational energy     417312.6 (Joules/Mol)
                                   99.74009 (Kcal/Mol)
 Warning -- explicit consideration of  10 degrees of freedom as
           vibrations may cause significant error
 Vibrational temperatures:    120.29   164.45   285.34   299.83   431.95
          (Kelvin)            523.76   630.56   663.85   744.20   803.84
                              908.38   972.30  1099.83  1113.08  1178.29
                             1199.67  1280.36  1345.38  1388.06  1411.11
                             1456.56  1476.28  1524.49  1578.28  1588.61
                             1680.98  1708.33  1735.81  1759.83  1799.93
                             1807.20  1870.57  1917.68  2002.89  2030.12
                             2086.41  2121.15  2139.70  2158.42  2171.37
                             2711.29  4356.58  4380.80  4405.64  4410.83
                             4415.90  4478.41  4493.11  4495.08  4513.31
                             4542.10

 Zero-point correction=                           0.158946 (Hartree/Particle)
 Thermal correction to Energy=                    0.167129
 Thermal correction to Enthalpy=                  0.168073
 Thermal correction to Gibbs Free Energy=         0.126117
 Sum of electronic and zero-point Energies=           -423.029545
 Sum of electronic and thermal Energies=              -423.021362
 Sum of electronic and thermal Enthalpies=            -423.020418
 Sum of electronic and thermal Free Energies=         -423.062374

                     E (Thermal)             CV                S
                      KCal/Mol        Cal/Mol-Kelvin    Cal/Mol-Kelvin
 Total                  104.875             31.726             88.304
 Electronic               0.000              0.000              0.000
 Translational            0.889              2.981             40.409
 Rotational               0.889              2.981             28.622
 Vibrational            103.098             25.765             19.274
 Vibration     1          0.601              1.960              3.804
 Vibration     2          0.607              1.938              3.195
 Vibration     3          0.637              1.842              2.149
 Vibration     4          0.642              1.828              2.058
 Vibration     5          0.693              1.673              1.416
 Vibration     6          0.738              1.546              1.105
 Vibration     7          0.798              1.387              0.832
 Vibration     8          0.819              1.336              0.762
 Vibration     9          0.872              1.212              0.616
 Vibration    10          0.914              1.121              0.526

 Optimization completed.
    -- Stationary point found.
 Normal termination of Gaussian 09 at Tue Jan 28 09:58:52 2020.
