 Gaussian 09, Revision D.01,
 Gaussian 09:  ES64L-G09RevD.01 24-Apr-2013

 -----------------------------
 # b3lyp 6-31G(2df,p) opt Freq
 -----------------------------

 -----
 titel
 -----
 Symbolic Z-matrix:
 Charge =  0 Multiplicity = 1

 SCF Done:  E(RB3LYP) =  -423.184255990     A.U. after   13 cycles
 Optimization completed.
    -- Stationary point found.
 Normal termination of Gaussian 09 at Mon Jan 27 18:07:01 2020.

 ----------------------------------------------------------------------
 #N Geom=AllCheck Guess=TCheck SCRF=Check GenChk RB3LYP/6-31G(2df,p) Fr
 eq
 ----------------------------------------------------------------------

 Structure from the checkpoint file:  "/scratch/puck/g09_d96c97e5-b6e1-46aa-bbee-e200b2d007c9/Gau-181770.chk"
 -----
 titel
 -----
 Charge =  0 Multiplicity = 1

                         Standard orientation:
 ---------------------------------------------------------------------
 Center     Atomic      Atomic             Coordinates (Angstroms)
 Number     Number       Type             X           Y           Z
 ---------------------------------------------------------------------
      1          6           0        2.175998   -1.040442   -0.160718
      2          6           0        1.002047   -0.116443   -0.014458
      3          6           0        1.082574    1.385217    0.357962
      4          6           0       -0.435559    1.190253    0.563094
      5          6           0       -0.139392   -0.260165    1.061166
      6          6           0       -1.329764   -1.111708    0.622607
      7          8           0       -1.924546   -0.341365   -0.440707
      8          6           0       -0.949488    0.612711   -0.778327
      9          8           0        0.229167   -0.059309   -1.243342
     10          1           0        2.816435   -0.713478   -0.985846
     11          1           0        2.772058   -1.055133    0.756283
     12          1           0        1.841615   -2.060159   -0.376163
     13          1           0        1.607481    1.572031    1.298354
     14          1           0        1.427335    2.065647   -0.424307
     15          1           0       -1.085571    1.887380    1.088220
     16          1           0        0.199483   -0.371025    2.090232
     17          1           0       -1.028788   -2.097826    0.247640
     18          1           0       -2.072495   -1.250622    1.415584
     19          1           0       -1.353017    1.272053   -1.545561
 ---------------------------------------------------------------------

 SCF Done:  E(RB3LYP) =  -423.184255990     A.U. after    1 cycles

 The electronic state is 1-A.
 Alpha  occ. eigenvalues --  -19.13596 -19.13358 -10.26985 -10.24340 -10.22637
 Alpha  occ. eigenvalues --  -10.19534 -10.19487 -10.18560 -10.18092  -1.07732
 Alpha  occ. eigenvalues --   -0.99914  -0.84190  -0.75425  -0.72491  -0.66987
 Alpha  occ. eigenvalues --   -0.61405  -0.57881  -0.53974  -0.51748  -0.49491
 Alpha  occ. eigenvalues --   -0.47245  -0.43844  -0.42756  -0.41837  -0.40415
 Alpha  occ. eigenvalues --   -0.38183  -0.36666  -0.35323  -0.33722  -0.33035
 Alpha  occ. eigenvalues --   -0.32029  -0.30929  -0.26017  -0.24085
 Alpha virt. eigenvalues --    0.08794   0.10606   0.11521   0.11946   0.13257
 Alpha virt. eigenvalues --    0.14011   0.14708   0.15243   0.16549   0.17157
 Alpha virt. eigenvalues --    0.17566   0.18543   0.19376   0.19948   0.22292

 Mulliken charges:
               1
     1  C   -0.499504
     2  C    0.422084
     3  C   -0.277674
     4  C   -0.109120
     5  C   -0.103910
     6  C   -0.112305
     7  O   -0.255666
     8  C    0.214005
     9  O   -0.316166
    10  H    0.132861
    11  H    0.117710
    12  H    0.129514
    13  H    0.099028
    14  H    0.100515
    15  H    0.077528
    16  H    0.079913
    17  H    0.107077
    18  H    0.105236
    19  H    0.088876
 Sum of Mulliken charges =   0.00000

 Dipole moment (field-independent basis, Debye):
    X=              1.2749    Y=              0.4719    Z=              2.1000  Tot=              2.5016
 Quadrupole moment (field-independent basis, Debye-Ang):
   XX=            -54.8199   YY=            -50.7783   ZZ=            -53.5938
   XY=             -1.3218   XZ=             -0.6809   YZ=             -2.0117

  Exact polarizability:  78.999   0.496  74.270  -0.658  -2.305  67.491
 Approx polarizability: 110.096   0.516 107.281   0.727  -3.070 106.282

                      1                      2                      3
                      A                      A                      A
 Frequencies --    205.9763               218.9544               243.1782
 Red. masses --      1.1317                 2.3735                 2.4854
 Frc consts  --      0.0283                 0.0670                 0.0866
 IR Inten    --      0.0590                 0.2608                 2.6981

                      4                      5                      6
                      A                      A                      A
 Frequencies --    315.8185               422.3961               450.7043
 Red. masses --      2.4816                 2.1634                 3.0787
 Frc consts  --      0.1458                 0.2274                 0.3685
 IR Inten    --      2.2684                 0.9271                 0.5645

                      7                      8                      9
                      A                      A                      A
 Frequencies --    537.1128               591.2169               643.3709
 Red. masses --      4.4521                 5.5786                 3.7909
 Frc consts  --      0.7567                 1.1489                 0.9245
 IR Inten    --      4.4544                 4.3694                 1.8919

                     10                     11                     12
                      A                      A                      A
 Frequencies --    703.4215               769.0381               827.0144
 Red. masses --      3.3980                 4.4221                 2.5536
 Frc consts  --      0.9906                 1.5409                 1.0290
 IR Inten    --      0.9490                 2.6937                 0.4183

                     13                     14                     15
                      A                      A                      A
 Frequencies --    852.6080               886.2559               892.6144
 Red. masses --      5.1336                 2.2899                 2.0547
 Frc consts  --      2.1987                 1.0597                 0.9645
 IR Inten    --     28.3544                 2.7799                 2.4668

                     16                     17                     18
                      A                      A                      A
 Frequencies --    908.4985               947.4213               961.5541
 Red. masses --      2.7116                 3.0694                 2.5288
 Frc consts  --      1.3187                 1.6233                 1.3776
 IR Inten    --     43.0388                30.6815                63.7524

                     19                     20                     21
                      A                      A                      A
 Frequencies --    970.7644               987.2146              1011.7489
 Red. masses --      1.9748                 1.7469                 1.4722
 Frc consts  --      1.0965                 1.0031                 0.8879
 IR Inten    --     20.0045                 7.0812                 1.1673

                     22                     23                     24
                      A                      A                      A
 Frequencies --   1040.8951              1067.4399              1092.0372
 Red. masses --      1.8370                 1.6913                 2.9307
 Frc consts  --      1.1727                 1.1354                 2.0592
 IR Inten    --      4.4380                29.1528                51.2414

                     25                     26                     27
                      A                      A                      A
 Frequencies --   1115.1470              1147.8578              1187.5506
 Red. masses --      2.1080                 2.0701                 1.6991
 Frc consts  --      1.5445                 1.6070                 1.4118
 IR Inten    --     30.1963                14.1863                 2.3534

                     28                     29                     30
                      A                      A                      A
 Frequencies --   1207.7214              1211.3561              1239.0006
 Red. masses --      1.5959                 1.3665                 1.4970
 Frc consts  --      1.3715                 1.1814                 1.3540
 IR Inten    --      7.8755                 8.7243                 1.1571

                     31                     32                     33
                      A                      A                      A
 Frequencies --   1261.0046              1290.6730              1305.5395
 Red. masses --      1.6951                 1.6544                 1.8200
 Frc consts  --      1.5881                 1.6238                 1.8277
 IR Inten    --      3.9895                 7.5111                12.3509

                     34                     35                     36
                      A                      A                      A
 Frequencies --   1336.4104              1347.9128              1389.2197
 Red. masses --      1.3133                 2.1735                 1.4457
 Frc consts  --      1.3820                 2.3266                 1.6439
 IR Inten    --      2.5700                23.8589                13.3059

                     37                     38                     39
                      A                      A                      A
 Frequencies --   1420.5477              1481.7715              1490.8934
 Red. masses --      1.5944                 1.0502                 1.0548
 Frc consts  --      1.8956                 1.3585                 1.3814
 IR Inten    --     15.4484                 2.5593                 3.6950

                     40                     41                     42
                      A                      A                      A
 Frequencies --   1491.3026              1515.1344              3023.7925
 Red. masses --      1.1581                 1.0924                 1.0587
 Frc consts  --      1.5175                 1.4775                 5.7032
 IR Inten    --      2.0802                 1.1290                55.1678

                     43                     44                     45
                      A                      A                      A
 Frequencies --   3039.7741              3060.4203              3066.4719
 Red. masses --      1.0352                 1.0561                 1.1066
 Frc consts  --      5.6359                 5.8282                 6.1309
 IR Inten    --     17.4749                31.9206                34.1962

                     46                     47                     48
                      A                      A                      A
 Frequencies --   3109.8439              3116.2598              3122.6295
 Red. masses --      1.1012                 1.1019                 1.1078
 Frc consts  --      6.2745                 6.3045                 6.3643
 IR Inten    --     14.0530                 8.4192                13.9635

                     49                     50                     51
                      A                      A                      A
 Frequencies --   3129.2643              3134.0498              3143.7779
 Red. masses --      1.0899                 1.0896                 1.0932
 Frc consts  --      6.2883                 6.3055                 6.3657
 IR Inten    --     30.3722                32.4030                36.4545

 - Thermochemistry -
 -------------------
 Temperature   298.150 Kelvin.  Pressure   1.00000 Atm.
 Atom     1 has atomic number  6 and mass  12.00000

 Molecular mass:   126.06808 amu.
 Principal axes and moments of inertia in atomic units:
                           1         2         3
     Eigenvalues --   613.280971007.517351103.54380
           X            0.99970  -0.02192  -0.01090
           Y            0.02145   0.99891  -0.04152
           Z            0.01180   0.04128   0.99908
 This molecule is an asymmetric top.
 Rotational symmetry number  1.
 Warning -- assumption of classical behavior for rotation
           may cause significant error
 Rotational temperatures (Kelvin)      0.14123     0.08597     0.07849
 Rotational constants (GHZ):           2.94276     1.79128     1.63541
 Zero-point vibrational energy     424271.1 (Joules/Mol)
                                  101.40322 (Kcal/Mol)
 Warning -- explicit consideration of   8 degrees of freedom as
           vibrations may cause significant error
 Vibrational temperatures:    296.35   315.03   349.88   454.39   607.73
          (Kelvin)            648.46   772.78   850.63   925.67  1012.07
                             1106.47  1189.89  1226.71  1275.12  1284.27
                             1307.13  1363.13  1383.46  1396.71  1420.38
                             1455.68  1497.61  1535.81  1571.20  1604.45
                             1651.51  1708.62  1737.64  1742.87  1782.64
                             1814.30  1856.99  1878.38  1922.79  1939.34
                             1998.77  2043.85  2131.94  2145.06  2145.65
                             2179.94  4350.56  4373.55  4403.26  4411.96
                             4474.37  4483.60  4492.76  4502.31  4509.19
                             4523.19

 Zero-point correction=                           0.161596 (Hartree/Particle)
 Thermal correction to Energy=                    0.168446
 Thermal correction to Enthalpy=                  0.169390
 Thermal correction to Gibbs Free Energy=         0.130805
 Sum of electronic and zero-point Energies=           -423.022660
 Sum of electronic and thermal Energies=              -423.015810
 Sum of electronic and thermal Enthalpies=            -423.014866
 Sum of electronic and thermal Free Energies=         -423.053451

                     E (Thermal)             CV                S
                      KCal/Mol        Cal/Mol-Kelvin    Cal/Mol-Kelvin
 Total                  105.702             28.678             81.209
 Electronic               0.000              0.000              0.000
 Translational            0.889              2.981             40.409
 Rotational               0.889              2.981             28.013
 Vibrational            103.924             22.716             12.787
 Vibration     1          0.640              1.831              2.079
 Vibration     2          0.647              1.812              1.968
 Vibration     3          0.659              1.774              1.780
 Vibration     4          0.703              1.643              1.332
 Vibration     5          0.785              1.422              0.884
 Vibration     6          0.809              1.359              0.794
 Vibration     7          0.892              1.168              0.572
 Vibration     8          0.949              1.050              0.465

 Normal termination of Gaussian 09 at Mon Jan 27 18:51:47 2020.
