 Gaussian 09, Revision D.01,
 Gaussian 09:  ES64L-G09RevD.01 24-Apr-2013

 -----------------------------
 # b3lyp 6-31G(2df,p) opt Freq
 -----------------------------

 -----
 titel
 -----
 Symbolic Z-matrix:
 Charge =  0 Multiplicity = 1

 SCF Done:  E(RB3LYP) =  -423.155252185     A.U. after   14 cycles
 Optimization completed.
    -- Stationary point found.
 Normal termination of Gaussian 09 at Tue Jan 28 14:14:45 2020.

 ----------------------------------------------------------------------
 #N Geom=AllCheck Guess=TCheck SCRF=Check GenChk RB3LYP/6-31G(2df,p) Fr
 eq
 ----------------------------------------------------------------------

 Structure from the checkpoint file:  "/scratch/puck/g09_38138faf-c47f-47ec-b7c1-ae74331543f0/Gau-98582.chk"
 -----
 titel
 -----
 Charge =  0 Multiplicity = 1

                         Standard orientation:
 ---------------------------------------------------------------------
 Center     Atomic      Atomic             Coordinates (Angstroms)
 Number     Number       Type             X           Y           Z
 ---------------------------------------------------------------------
      1          6           0       -3.428729   -0.202553    0.311785
      2          8           0       -2.154614   -0.381592   -0.259253
      3          6           0       -1.251659    0.650216    0.073161
      4          6           0        0.099624    0.331357   -0.566504
      5          6           0        1.138433    1.404479   -0.293891
      6          6           0        2.169619    0.946215    0.421358
      7          6           0        2.014156   -0.518597    0.667487
      8          8           0        1.982785   -1.294401   -0.554055
      9          6           0        0.741397   -0.917019    0.038166
     10          1           0       -3.902323    0.730733   -0.031951
     11          1           0       -4.048194   -1.047508    0.001732
     12          1           0       -3.384323   -0.177921    1.412188
     13          1           0       -1.623184    1.624105   -0.288703
     14          1           0       -1.142143    0.732517    1.168408
     15          1           0       -0.061548    0.195948   -1.643530
     16          1           0        1.036378    2.415289   -0.674113
     17          1           0        3.028859    1.521731    0.742670
     18          1           0        2.460033   -1.021525    1.519945
     19          1           0        0.114021   -1.730015    0.390452
 ---------------------------------------------------------------------

 SCF Done:  E(RB3LYP) =  -423.155252185     A.U. after    1 cycles

 The electronic state is 1-A.
 Alpha  occ. eigenvalues --  -19.14498 -19.14217 -10.23311 -10.23259 -10.22835
 Alpha  occ. eigenvalues --  -10.22790 -10.19467 -10.19012 -10.18677  -1.06326
 Alpha  occ. eigenvalues --   -1.03810  -0.82732  -0.75280  -0.68784  -0.65888
 Alpha  occ. eigenvalues --   -0.63354  -0.56882  -0.54889  -0.52653  -0.48789
 Alpha  occ. eigenvalues --   -0.48084  -0.45552  -0.44583  -0.41321  -0.40110
 Alpha  occ. eigenvalues --   -0.38843  -0.38621  -0.36241  -0.35205  -0.32535
 Alpha  occ. eigenvalues --   -0.30219  -0.26207  -0.25634  -0.24674
 Alpha virt. eigenvalues --   -0.00094   0.08228   0.11384   0.11481   0.13541
 Alpha virt. eigenvalues --    0.13719   0.14463   0.15414   0.15871   0.16372
 Alpha virt. eigenvalues --    0.16984   0.17572   0.17918   0.19066   0.20955

 Mulliken charges:
               1
     1  C   -0.227989
     2  O   -0.232960
     3  C   -0.069336
     4  C   -0.090459
     5  C   -0.099802
     6  C   -0.091994
     7  C   -0.000890
     8  O   -0.262451
     9  C    0.045055
    10  H    0.104947
    11  H    0.129623
    12  H    0.104906
    13  H    0.087886
    14  H    0.088968
    15  H    0.107130
    16  H    0.102329
    17  H    0.104238
    18  H    0.095660
    19  H    0.105139
 Sum of Mulliken charges =   0.00000

 Dipole moment (field-independent basis, Debye):
    X=             -1.4657    Y=              1.7836    Z=              1.6681  Tot=              2.8482
 Quadrupole moment (field-independent basis, Debye-Ang):
   XX=            -50.4250   YY=            -53.1473   ZZ=            -53.2591
   XY=              2.3665   XZ=              2.4382   YZ=             -2.8964

  Exact polarizability:  95.064   1.364  73.606   8.328  -3.616  61.730
 Approx polarizability: 125.560  -3.659 110.091  15.590  -2.686 100.691

                      1                      2                      3
                      A                      A                      A
 Frequencies --     74.3690               102.3381               115.8526
 Red. masses --      3.0814                 2.1500                 3.8556
 Frc consts  --      0.0100                 0.0133                 0.0305
 IR Inten    --      0.2860                 2.8558                 0.1032

                      4                      5                      6
                      A                      A                      A
 Frequencies --    197.0925               237.2158               320.3768
 Red. masses --      2.4835                 1.3337                 3.1737
 Frc consts  --      0.0568                 0.0442                 0.1919
 IR Inten    --      2.2189                 1.6871                 4.1501

                      7                      8                      9
                      A                      A                      A
 Frequencies --    350.4334               395.3520               488.2374
 Red. masses --      4.3460                 3.9086                 3.1161
 Frc consts  --      0.3145                 0.3599                 0.4377
 IR Inten    --      1.7477                 4.8949                 2.7131

                     10                     11                     12
                      A                      A                      A
 Frequencies --    602.4301               707.9773               762.5119
 Red. masses --      3.3684                 3.9323                 1.6724
 Frc consts  --      0.7203                 1.1613                 0.5729
 IR Inten    --     12.3108                 3.7009                19.1504

                     13                     14                     15
                      A                      A                      A
 Frequencies --    799.8559               844.9459               858.6811
 Red. masses --      4.3639                 2.8567                 2.4341
 Frc consts  --      1.6449                 1.2016                 1.0575
 IR Inten    --      3.7907                31.1840                11.3071

                     16                     17                     18
                      A                      A                      A
 Frequencies --    883.1421               949.1092               970.7664
 Red. masses --      2.8205                 1.6651                 1.6185
 Frc consts  --      1.2961                 0.8837                 0.8986
 IR Inten    --      6.5838                12.1840                13.1541

                     19                     20                     21
                      A                      A                      A
 Frequencies --    977.0766              1009.3206              1035.3542
 Red. masses --      3.0635                 2.4545                 1.6014
 Frc consts  --      1.7232                 1.4732                 1.0114
 IR Inten    --     14.1801                 5.4613                11.6190

                     22                     23                     24
                      A                      A                      A
 Frequencies --   1078.5843              1099.6993              1119.9004
 Red. masses --      1.7925                 1.8739                 1.6222
 Frc consts  --      1.2286                 1.3352                 1.1987
 IR Inten    --      5.8829                 5.5640                 3.6197

                     25                     26                     27
                      A                      A                      A
 Frequencies --   1144.5540              1161.5810              1184.2644
 Red. masses --      1.2663                 5.0066                 1.2861
 Frc consts  --      0.9774                 3.9801                 1.0627
 IR Inten    --      0.6513               158.1513                 3.1217

                     28                     29                     30
                      A                      A                      A
 Frequencies --   1220.2883              1239.0220              1256.4512
 Red. masses --      1.5628                 1.3148                 1.3159
 Frc consts  --      1.3711                 1.1893                 1.2239
 IR Inten    --     36.2464                 7.4782                 7.9938

                     31                     32                     33
                      A                      A                      A
 Frequencies --   1263.3442              1286.8358              1333.9078
 Red. masses --      1.7379                 1.2302                 1.4837
 Frc consts  --      1.6343                 1.2003                 1.5554
 IR Inten    --     11.6800                 0.1644                 0.7834

                     34                     35                     36
                      A                      A                      A
 Frequencies --   1376.2555              1404.9920              1413.6285
 Red. masses --      1.8841                 2.7214                 1.4083
 Frc consts  --      2.1026                 3.1651                 1.6581
 IR Inten    --      7.4699                 5.8893                35.7229

                     37                     38                     39
                      A                      A                      A
 Frequencies --   1479.7290              1485.2573              1502.9134
 Red. masses --      1.1544                 1.0480                 1.0605
 Frc consts  --      1.4893                 1.3621                 1.4114
 IR Inten    --      1.4036                 5.0550                10.6374

                     40                     41                     42
                      A                      A                      A
 Frequencies --   1526.9551              1658.4153              2949.0738
 Red. masses --      1.0895                 6.3341                 1.0525
 Frc consts  --      1.4967                10.2641                 5.3930
 IR Inten    --      1.4865                 2.1689                30.4899

                     43                     44                     45
                      A                      A                      A
 Frequencies --   2971.7365              2978.5143              3014.4142
 Red. masses --      1.0386                 1.1049                 1.1032
 Frc consts  --      5.4042                 5.7752                 5.9062
 IR Inten    --     76.9646                52.4545                55.0968

                     46                     47                     48
                      A                      A                      A
 Frequencies --   3040.4432              3115.3501              3160.0589
 Red. masses --      1.0832                 1.0960                 1.0871
 Frc consts  --      5.8997                 6.2669                 6.3960
 IR Inten    --     16.8329                28.4857                12.9806

                     49                     50                     51
                      A                      A                      A
 Frequencies --   3170.9253              3185.7507              3217.7273
 Red. masses --      1.0946                 1.0873                 1.1026
 Frc consts  --      6.4846                 6.5014                 6.7264
 IR Inten    --     25.1050                 9.4061                14.6969

 - Thermochemistry -
 -------------------
 Temperature   298.150 Kelvin.  Pressure   1.00000 Atm.
 Atom     1 has atomic number  6 and mass  12.00000

 Molecular mass:   126.06808 amu.
 Principal axes and moments of inertia in atomic units:
                           1         2         3
     Eigenvalues --   464.499491846.120922102.63282
           X            0.99998   0.00691  -0.00077
           Y           -0.00694   0.99919  -0.03966
           Z            0.00049   0.03966   0.99921
 This molecule is an asymmetric top.
 Rotational symmetry number  1.
 Warning -- assumption of classical behavior for rotation
           may cause significant error
 Rotational temperatures (Kelvin)      0.18647     0.04692     0.04119
 Rotational constants (GHZ):           3.88535     0.97759     0.85832
 Zero-point vibrational energy     417036.2 (Joules/Mol)
                                   99.67405 (Kcal/Mol)
 Warning -- explicit consideration of  10 degrees of freedom as
           vibrations may cause significant error
 Vibrational temperatures:    107.00   147.24   166.69   283.57   341.30
          (Kelvin)            460.95   504.19   568.82   702.46   866.76
                             1018.62  1097.08  1150.81  1215.69  1235.45
                             1270.64  1365.55  1396.71  1405.79  1452.19
                             1489.64  1551.84  1582.22  1611.28  1646.76
                             1671.25  1703.89  1755.72  1782.67  1807.75
                             1817.67  1851.47  1919.19  1980.12  2021.47
                             2033.89  2129.00  2136.95  2162.35  2196.95
                             2386.09  4243.05  4275.66  4285.41  4337.06
                             4374.51  4482.29  4546.61  4562.25  4583.58
                             4629.59

 Zero-point correction=                           0.158841 (Hartree/Particle)
 Thermal correction to Energy=                    0.167339
 Thermal correction to Enthalpy=                  0.168284
 Thermal correction to Gibbs Free Energy=         0.125082
 Sum of electronic and zero-point Energies=           -422.996411
 Sum of electronic and thermal Energies=              -422.987913
 Sum of electronic and thermal Enthalpies=            -422.986969
 Sum of electronic and thermal Free Energies=         -423.030170

                     E (Thermal)             CV                S
                      KCal/Mol        Cal/Mol-Kelvin    Cal/Mol-Kelvin
 Total                  105.007             31.425             90.926
 Electronic               0.000              0.000              0.000
 Translational            0.889              2.981             40.409
 Rotational               0.889              2.981             28.979
 Vibrational            103.230             25.463             21.538
 Vibration     1          0.599              1.966              4.034
 Vibration     2          0.604              1.947              3.409
 Vibration     3          0.608              1.936              3.168
 Vibration     4          0.636              1.844              2.160
 Vibration     5          0.656              1.784              1.824
 Vibration     6          0.706              1.635              1.308
 Vibration     7          0.727              1.574              1.164
 Vibration     8          0.762              1.480              0.980
 Vibration     9          0.844              1.276              0.688
 Vibration    10          0.961              1.027              0.445

 Optimization completed.
    -- Stationary point found.
 Normal termination of Gaussian 09 at Tue Jan 28 14:58:41 2020.
