 Gaussian 09, Revision D.01,
 Gaussian 09:  ES64L-G09RevD.01 24-Apr-2013

 -----------------------------
 # b3lyp 6-31G(2df,p) opt Freq
 -----------------------------

 -----
 titel
 -----
 Symbolic Z-matrix:
 Charge =  0 Multiplicity = 1

 SCF Done:  E(RB3LYP) =  -423.191772205     A.U. after   13 cycles
 Optimization completed.
    -- Stationary point found.
 Normal termination of Gaussian 09 at Mon Jan 27 22:07:12 2020.

 ----------------------------------------------------------------------
 #N Geom=AllCheck Guess=TCheck SCRF=Check GenChk RB3LYP/6-31G(2df,p) Fr
 eq
 ----------------------------------------------------------------------

 Structure from the checkpoint file:  "/scratch/puck/g09_9d29ba4d-bd25-4f5c-b3dc-83d2df780e53/Gau-116815.chk"
 -----
 titel
 -----
 Charge =  0 Multiplicity = 1

                         Standard orientation:
 ---------------------------------------------------------------------
 Center     Atomic      Atomic             Coordinates (Angstroms)
 Number     Number       Type             X           Y           Z
 ---------------------------------------------------------------------
      1          8           0        2.415134   -0.259882   -0.430414
      2          6           0        1.022065   -0.282286   -0.691090
      3          6           0        0.411624    1.105762   -0.580107
      4          6           0       -1.089481    1.136201   -0.310877
      5          6           0       -1.925408   -0.110349   -0.561899
      6          6           0       -1.186061   -1.390851   -0.083520
      7          6           0        0.223833   -1.036988    0.394400
      8          8           0        0.127192   -0.082412    1.470066
      9          6           0       -0.116677    1.156283    0.835583
     10          1           0        2.523279    0.093798    0.460580
     11          1           0        0.908187   -0.748064   -1.674002
     12          1           0        0.912739    1.936168   -1.062041
     13          1           0       -1.577160    2.080957   -0.533480
     14          1           0       -2.883992   -0.012864   -0.041848
     15          1           0       -2.162449   -0.175883   -1.629548
     16          1           0       -1.719432   -1.856532    0.749782
     17          1           0       -1.127154   -2.136342   -0.883801
     18          1           0        0.766521   -1.906259    0.771063
     19          1           0       -0.018516    1.996754    1.511141
 ---------------------------------------------------------------------

 SCF Done:  E(RB3LYP) =  -423.191772205     A.U. after    1 cycles

 The electronic state is 1-A.
 Alpha  occ. eigenvalues --  -19.14409 -19.13213 -10.23322 -10.23159 -10.22811
 Alpha  occ. eigenvalues --  -10.19345 -10.18902 -10.18525 -10.18421  -1.05186
 Alpha  occ. eigenvalues --   -1.01032  -0.85402  -0.78542  -0.73147  -0.64293
 Alpha  occ. eigenvalues --   -0.62175  -0.57855  -0.54529  -0.52690  -0.48833
 Alpha  occ. eigenvalues --   -0.46034  -0.45294  -0.42440  -0.41917  -0.40078
 Alpha  occ. eigenvalues --   -0.38881  -0.36729  -0.35904  -0.33968  -0.32936
 Alpha  occ. eigenvalues --   -0.31906  -0.27454  -0.26447  -0.22788
 Alpha virt. eigenvalues --    0.08080   0.09363   0.10758   0.11953   0.13197
 Alpha virt. eigenvalues --    0.13744   0.14893   0.15298   0.16885   0.17458
 Alpha virt. eigenvalues --    0.17808   0.18182   0.21204   0.21541   0.22812

 Mulliken charges:
               1
     1  O   -0.446500
     2  C    0.148735
     3  C   -0.154484
     4  C   -0.081493
     5  C   -0.230947
     6  C   -0.220428
     7  C    0.019828
     8  O   -0.278131
     9  C    0.083882
    10  H    0.284975
    11  H    0.088028
    12  H    0.092373
    13  H    0.085790
    14  H    0.108229
    15  H    0.105045
    16  H    0.110673
    17  H    0.100864
    18  H    0.084205
    19  H    0.099357
 Sum of Mulliken charges =   0.00000

 Dipole moment (field-independent basis, Debye):
    X=             -1.4212    Y=              0.6083    Z=             -0.3459  Tot=              1.5841
 Quadrupole moment (field-independent basis, Debye-Ang):
   XX=            -55.8351   YY=            -49.2679   ZZ=            -55.0105
   XY=              1.3732   XZ=              3.2916   YZ=              0.8554

  Exact polarizability:  77.417  -0.028  74.146   1.437   0.924  65.688
 Approx polarizability: 108.855  -1.670 104.722   0.813   1.832 106.925

                      1                      2                      3
                      A                      A                      A
 Frequencies --    114.8015               186.3336               304.5920
 Red. masses --      2.1074                 3.3518                 2.0248
 Frc consts  --      0.0164                 0.0686                 0.1107
 IR Inten    --      0.5503                 6.4140                11.0514

                      4                      5                      6
                      A                      A                      A
 Frequencies --    349.3978               387.7275               429.6980
 Red. masses --      2.7410                 1.6000                 5.4665
 Frc consts  --      0.1971                 0.1417                 0.5947
 IR Inten    --      1.7689                72.3254                 2.4893

                      7                      8                      9
                      A                      A                      A
 Frequencies --    489.3484               571.5964               688.7460
 Red. masses --      3.4652                 5.3739                 5.8906
 Frc consts  --      0.4889                 1.0345                 1.6464
 IR Inten    --      1.7709                 0.6401                 3.7768

                     10                     11                     12
                      A                      A                      A
 Frequencies --    743.1968               759.5195               796.7660
 Red. masses --      3.3031                 2.5519                 1.8301
 Frc consts  --      1.0749                 0.8674                 0.6845
 IR Inten    --      4.1373                16.5707                 2.8923

                     13                     14                     15
                      A                      A                      A
 Frequencies --    811.8544               835.5906               875.4218
 Red. masses --      1.9496                 2.6354                 2.3766
 Frc consts  --      0.7571                 1.0841                 1.0731
 IR Inten    --     24.6226                16.5320                 0.5448

                     16                     17                     18
                      A                      A                      A
 Frequencies --    918.6183               929.5694               943.6637
 Red. masses --      2.3190                 2.5483                 2.5087
 Frc consts  --      1.1530                 1.2974                 1.3162
 IR Inten    --      9.6865                11.3320                10.4492

                     19                     20                     21
                      A                      A                      A
 Frequencies --   1007.2849              1026.2632              1055.1895
 Red. masses --      1.8173                 2.1205                 2.2627
 Frc consts  --      1.0864                 1.3159                 1.4843
 IR Inten    --      7.6033                 7.9993                50.8223

                     22                     23                     24
                      A                      A                      A
 Frequencies --   1077.3383              1082.7752              1093.0230
 Red. masses --      2.0017                 1.9330                 1.7735
 Frc consts  --      1.3688                 1.3352                 1.2483
 IR Inten    --      0.8860                 3.9380                32.8453

                     25                     26                     27
                      A                      A                      A
 Frequencies --   1100.3019              1114.9090              1156.3363
 Red. masses --      2.0283                 2.0953                 1.4481
 Frc consts  --      1.4468                 1.5345                 1.1408
 IR Inten    --     40.5701                47.1093                15.7479

                     28                     29                     30
                      A                      A                      A
 Frequencies --   1206.6900              1257.6180              1266.5011
 Red. masses --      1.2752                 1.5666                 1.4027
 Frc consts  --      1.0940                 1.4599                 1.3256
 IR Inten    --     16.7532                 1.3366                 6.1362

                     31                     32                     33
                      A                      A                      A
 Frequencies --   1275.0512              1276.4652              1301.7510
 Red. masses --      1.4647                 1.3582                 1.4144
 Frc consts  --      1.4030                 1.3038                 1.4121
 IR Inten    --      4.4949                 6.9441                 2.7868

                     34                     35                     36
                      A                      A                      A
 Frequencies --   1322.6604              1354.9605              1362.2093
 Red. masses --      1.4132                 1.6636                 1.6056
 Frc consts  --      1.4567                 1.7995                 1.7554
 IR Inten    --      2.6141                 2.4872                 4.4590

                     37                     38                     39
                      A                      A                      A
 Frequencies --   1384.1805              1428.9772              1436.0737
 Red. masses --      1.3893                 2.3233                 1.2822
 Frc consts  --      1.5683                 2.7951                 1.5580
 IR Inten    --     11.2530                 9.7249                60.8280

                     40                     41                     42
                      A                      A                      A
 Frequencies --   1479.1892              1506.1304              3033.4797
 Red. masses --      1.0856                 1.0907                 1.0611
 Frc consts  --      1.3994                 1.4577                 5.7528
 IR Inten    --      2.1530                 2.5541                31.5018

                     43                     44                     45
                      A                      A                      A
 Frequencies --   3048.8884              3064.7537              3077.9923
 Red. masses --      1.0617                 1.1030                 1.0861
 Frc consts  --      5.8149                 6.1043                 6.0623
 IR Inten    --     35.2005                 6.7752                21.4890

                     46                     47                     48
                      A                      A                      A
 Frequencies --   3095.3876              3099.3670              3147.8489
 Red. masses --      1.1024                 1.0891                 1.0884
 Frc consts  --      6.2234                 6.1641                 6.3541
 IR Inten    --     41.6986                33.3353                15.9374

                     49                     50                     51
                      A                      A                      A
 Frequencies --   3185.8868              3196.7947              3792.3093
 Red. masses --      1.0897                 1.0956                 1.0655
 Frc consts  --      6.5163                 6.5966                 9.0285
 IR Inten    --     10.1320                19.6853                19.3753

 - Thermochemistry -
 -------------------
 Temperature   298.150 Kelvin.  Pressure   1.00000 Atm.
 Atom     1 has atomic number  8 and mass  15.99491

 Molecular mass:   126.06808 amu.
 Principal axes and moments of inertia in atomic units:
                           1         2         3
     Eigenvalues --   653.117681024.450261150.24226
           X            0.99939   0.02415   0.02527
           Y           -0.02454   0.99958   0.01514
           Z           -0.02489  -0.01575   0.99957
 This molecule is an asymmetric top.
 Rotational symmetry number  1.
 Warning -- assumption of classical behavior for rotation
           may cause significant error
 Rotational temperatures (Kelvin)      0.13262     0.08455     0.07530
 Rotational constants (GHZ):           2.76327     1.76167     1.56901
 Zero-point vibrational energy     427372.1 (Joules/Mol)
                                  102.14437 (Kcal/Mol)
 Warning -- explicit consideration of   8 degrees of freedom as
           vibrations may cause significant error
 Vibrational temperatures:    165.17   268.09   438.24   502.70   557.85
          (Kelvin)            618.24   704.06   822.40   990.95  1069.29
                             1092.78  1146.37  1168.08  1202.23  1259.54
                             1321.69  1337.44  1357.72  1449.26  1476.56
                             1518.18  1550.05  1557.87  1572.61  1583.09
                             1604.10  1663.71  1736.16  1809.43  1822.21
                             1834.51  1836.55  1872.93  1903.01  1949.48
                             1959.91  1991.52  2055.98  2066.19  2128.22
                             2166.98  4364.50  4386.66  4409.49  4428.54
                             4453.57  4459.29  4529.05  4583.77  4599.47
                             5456.28

 Zero-point correction=                           0.162777 (Hartree/Particle)
 Thermal correction to Energy=                    0.169802
 Thermal correction to Enthalpy=                  0.170746
 Thermal correction to Gibbs Free Energy=         0.131550
 Sum of electronic and zero-point Energies=           -423.028995
 Sum of electronic and thermal Energies=              -423.021970
 Sum of electronic and thermal Enthalpies=            -423.021026
 Sum of electronic and thermal Free Energies=         -423.060222

                     E (Thermal)             CV                S
                      KCal/Mol        Cal/Mol-Kelvin    Cal/Mol-Kelvin
 Total                  106.553             28.925             82.496
 Electronic               0.000              0.000              0.000
 Translational            0.889              2.981             40.409
 Rotational               0.889              2.981             28.133
 Vibrational            104.775             22.963             13.954
 Vibration     1          0.608              1.937              3.186
 Vibration     2          0.632              1.859              2.264
 Vibration     3          0.696              1.665              1.392
 Vibration     4          0.727              1.576              1.169
 Vibration     5          0.756              1.496              1.009
 Vibration     6          0.791              1.406              0.860
 Vibration     7          0.845              1.274              0.685
 Vibration     8          0.928              1.093              0.501

 Normal termination of Gaussian 09 at Mon Jan 27 23:07:13 2020.
