 Gaussian 09, Revision D.01,
 Gaussian 09:  ES64L-G09RevD.01 24-Apr-2013

 -----------------------------
 # b3lyp 6-31G(2df,p) opt Freq
 -----------------------------

 -----
 titel
 -----
 Symbolic Z-matrix:
 Charge =  0 Multiplicity = 1

 SCF Done:  E(RB3LYP) =  -423.171744163     A.U. after   12 cycles
 Optimization completed.
    -- Stationary point found.
 Normal termination of Gaussian 09 at Mon Jan 27 22:02:59 2020.

 ----------------------------------------------------------------------
 #N Geom=AllCheck Guess=TCheck SCRF=Check GenChk RB3LYP/6-31G(2df,p) Fr
 eq
 ----------------------------------------------------------------------

 Structure from the checkpoint file:  "/scratch/puck/g09_ef00b629-5850-486e-a19c-6fa35b9911a5/Gau-180990.chk"
 -----
 titel
 -----
 Charge =  0 Multiplicity = 1

                         Standard orientation:
 ---------------------------------------------------------------------
 Center     Atomic      Atomic             Coordinates (Angstroms)
 Number     Number       Type             X           Y           Z
 ---------------------------------------------------------------------
      1          6           0        0.133833    2.265700   -0.000483
      2          6           0        0.679619    0.874080    0.000043
      3          6           0        1.950777    0.478918    0.000953
      4          6           0        2.031250   -1.017777    0.000391
      5          8           0        0.671521   -1.454907   -0.002446
      6          6           0       -0.204483   -0.347212   -0.000657
      7          6           0       -1.364740   -0.397145   -1.033416
      8          8           0       -2.338251   -0.155100    0.001298
      9          6           0       -1.363064   -0.398388    1.034134
     10          1           0       -0.491295    2.450764   -0.881768
     11          1           0       -0.501611    2.447744    0.873963
     12          1           0        0.938700    3.004639    0.005325
     13          1           0        2.823201    1.120796    0.002126
     14          1           0        2.550218   -1.417730   -0.884239
     15          1           0        2.547123   -1.418309    0.886628
     16          1           0       -1.392026    0.367386   -1.817992
     17          1           0       -1.466514   -1.393865   -1.481961
     18          1           0       -1.388996    0.365222    1.819661
     19          1           0       -1.464113   -1.395648    1.481647
 ---------------------------------------------------------------------

 SCF Done:  E(RB3LYP) =  -423.171744163     A.U. after    1 cycles

 The electronic state is 1-A.
 Alpha  occ. eigenvalues --  -19.14200 -19.13135 -10.24231 -10.23389 -10.22377
 Alpha  occ. eigenvalues --  -10.22375 -10.19607 -10.19099 -10.18591  -1.05109
 Alpha  occ. eigenvalues --   -1.02616  -0.81056  -0.75692  -0.70573  -0.68944
 Alpha  occ. eigenvalues --   -0.64297  -0.57509  -0.53608  -0.49962  -0.47629
 Alpha  occ. eigenvalues --   -0.47479  -0.45823  -0.43302  -0.42615  -0.41951
 Alpha  occ. eigenvalues --   -0.39102  -0.38373  -0.36893  -0.35672  -0.32754
 Alpha  occ. eigenvalues --   -0.30643  -0.27224  -0.24667  -0.23227
 Alpha virt. eigenvalues --    0.01502   0.07886   0.08547   0.11416   0.12074
 Alpha virt. eigenvalues --    0.12789   0.13658   0.14645   0.16630   0.17214
 Alpha virt. eigenvalues --    0.18215   0.18794   0.19278   0.21688   0.22875

 Mulliken charges:
               1
     1  C   -0.494659
     2  C    0.272632
     3  C   -0.226572
     4  C   -0.138904
     5  O   -0.310154
     6  C    0.287606
     7  C   -0.126619
     8  O   -0.274452
     9  C   -0.126623
    10  H    0.137914
    11  H    0.138009
    12  H    0.127321
    13  H    0.102992
    14  H    0.109049
    15  H    0.108968
    16  H    0.099985
    17  H    0.106783
    18  H    0.099972
    19  H    0.106752
 Sum of Mulliken charges =   0.00000

 Dipole moment (field-independent basis, Debye):
    X=              2.1509    Y=              1.2915    Z=              0.0014  Tot=              2.5089
 Quadrupole moment (field-independent basis, Debye-Ang):
   XX=            -55.6349   YY=            -53.1647   ZZ=            -51.2072
   XY=              0.4839   XZ=              0.0113   YZ=             -0.0080

  Exact polarizability:  91.498  -5.643  76.821   0.027  -0.012  64.446
 Approx polarizability: 135.379 -12.200 107.125   0.040  -0.011  96.110

                      1                      2                      3
                      A                      A                      A
 Frequencies --     77.0634                86.9288               143.9065
 Red. masses --      2.5294                 4.5491                 1.2316
 Frc consts  --      0.0089                 0.0203                 0.0150
 IR Inten    --      0.4196                 5.3008                 1.5338

                      4                      5                      6
                      A                      A                      A
 Frequencies --    226.6055               259.8804               273.1015
 Red. masses --      2.1929                 2.1005                 2.3085
 Frc consts  --      0.0663                 0.0836                 0.1014
 IR Inten    --      1.1680                 1.0324                 1.0042

                      7                      8                      9
                      A                      A                      A
 Frequencies --    365.8680               415.1484               463.5711
 Red. masses --      3.8492                 2.2769                 5.2879
 Frc consts  --      0.3036                 0.2312                 0.6695
 IR Inten    --      2.9721                 0.6358                 0.5937

                     10                     11                     12
                      A                      A                      A
 Frequencies --    575.0596               637.3264               778.0027
 Red. masses --      3.0975                 4.2838                 4.9386
 Frc consts  --      0.6035                 1.0252                 1.7612
 IR Inten    --      4.4327                 1.2303                 1.8754

                     13                     14                     15
                      A                      A                      A
 Frequencies --    802.2046               810.8396               895.2655
 Red. masses --      3.5915                 1.1484                 2.5001
 Frc consts  --      1.3617                 0.4448                 1.1806
 IR Inten    --     10.5651                 9.7770                19.3689

                     16                     17                     18
                      A                      A                      A
 Frequencies --    942.5701               950.5786               984.7926
 Red. masses --      1.3365                 2.1976                 3.3047
 Frc consts  --      0.6996                 1.1700                 1.8883
 IR Inten    --      0.2439                 8.3619                 5.4702

                     19                     20                     21
                      A                      A                      A
 Frequencies --   1022.4227              1025.2506              1029.8562
 Red. masses --      1.7043                 6.3897                 2.8787
 Frc consts  --      1.0497                 3.9572                 1.7989
 IR Inten    --      4.1344                42.9232                51.8918

                     22                     23                     24
                      A                      A                      A
 Frequencies --   1052.7462              1072.0076              1078.7939
 Red. masses --      1.9128                 4.8674                 2.0177
 Frc consts  --      1.2490                 3.2957                 1.3835
 IR Inten    --      0.0016                42.3751                 0.0084

                     25                     26                     27
                      A                      A                      A
 Frequencies --   1143.3357              1144.7242              1173.8895
 Red. masses --      2.3059                 1.0852                 1.4364
 Frc consts  --      1.7760                 0.8378                 1.1662
 IR Inten    --      0.6701                 0.1599                 6.2281

                     28                     29                     30
                      A                      A                      A
 Frequencies --   1193.9666              1196.8513              1250.6979
 Red. masses --      4.4064                 1.0820                 1.8785
 Frc consts  --      3.7010                 0.9132                 1.7313
 IR Inten    --    111.3953                 0.5535                 7.9681

                     31                     32                     33
                      A                      A                      A
 Frequencies --   1287.6582              1352.0284              1365.1727
 Red. masses --      1.2976                 3.0932                 1.5715
 Frc consts  --      1.2676                 3.3314                 1.7256
 IR Inten    --      1.0155                 0.6099                 1.1161

                     34                     35                     36
                      A                      A                      A
 Frequencies --   1380.2378              1419.7886              1476.1026
 Red. masses --      1.5186                 1.2845                 1.0487
 Frc consts  --      1.7045                 1.5256                 1.3463
 IR Inten    --      9.2673                 3.6275                 6.3229

                     37                     38                     39
                      A                      A                      A
 Frequencies --   1484.6053              1501.3800              1521.9085
 Red. masses --      1.0626                 1.0703                 1.0860
 Frc consts  --      1.3799                 1.4215                 1.4821
 IR Inten    --      6.8511                 1.0498                 1.7268

                     40                     41                     42
                      A                      A                      A
 Frequencies --   1527.2153              1728.6611              2981.0103
 Red. masses --      1.1152                 7.5828                 1.0558
 Frc consts  --      1.5326                13.3506                 5.5281
 IR Inten    --      2.3989                 3.0591                93.1579

                     43                     44                     45
                      A                      A                      A
 Frequencies --   2998.6975              3008.1540              3020.0243
 Red. masses --      1.1062                 1.0531                 1.0583
 Frc consts  --      5.8606                 5.6144                 5.6867
 IR Inten    --     38.0031                95.8951                10.7389

                     46                     47                     48
                      A                      A                      A
 Frequencies --   3031.9757              3068.7097              3069.4680
 Red. masses --      1.0375                 1.1084                 1.1113
 Frc consts  --      5.6196                 6.1500                 6.1690
 IR Inten    --     16.5858                 6.5749                64.9896

                     49                     50                     51
                      A                      A                      A
 Frequencies --   3081.2746              3119.4154              3209.8406
 Red. masses --      1.0984                 1.1001                 1.0953
 Frc consts  --      6.1442                 6.3069                 6.6488
 IR Inten    --     18.2024                16.5818                 7.5129

 - Thermochemistry -
 -------------------
 Temperature   298.150 Kelvin.  Pressure   1.00000 Atm.
 Atom     1 has atomic number  6 and mass  12.00000

 Molecular mass:   126.06808 amu.
 Principal axes and moments of inertia in atomic units:
                           1         2         3
     Eigenvalues --   699.498641111.763171526.46008
           X            0.99999  -0.00464   0.00007
           Y            0.00464   0.99999  -0.00011
           Z           -0.00007   0.00011   1.00000
 This molecule is an asymmetric top.
 Rotational symmetry number  1.
 Warning -- assumption of classical behavior for rotation
           may cause significant error
 Rotational temperatures (Kelvin)      0.12382     0.07791     0.05674
 Rotational constants (GHZ):           2.58005     1.62331     1.18230
 Zero-point vibrational energy     416938.0 (Joules/Mol)
                                   99.65056 (Kcal/Mol)
 Warning -- explicit consideration of  10 degrees of freedom as
           vibrations may cause significant error
 Vibrational temperatures:    110.88   125.07   207.05   326.03   373.91
          (Kelvin)            392.93   526.40   597.31   666.97   827.38
                              916.97  1119.37  1154.19  1166.62  1288.09
                             1356.15  1367.67  1416.90  1471.04  1475.11
                             1481.73  1514.67  1542.38  1552.14  1645.00
                             1647.00  1688.96  1717.85  1722.00  1799.47
                             1852.65  1945.26  1964.18  1985.85  2042.76
                             2123.78  2136.01  2160.15  2189.68  2197.32
                             2487.15  4289.00  4314.45  4328.06  4345.14
                             4362.33  4415.18  4416.27  4433.26  4488.14
                             4618.24

 Zero-point correction=                           0.158803 (Hartree/Particle)
 Thermal correction to Energy=                    0.167270
 Thermal correction to Enthalpy=                  0.168214
 Thermal correction to Gibbs Free Energy=         0.125350
 Sum of electronic and zero-point Energies=           -423.012941
 Sum of electronic and thermal Energies=              -423.004474
 Sum of electronic and thermal Enthalpies=            -423.003530
 Sum of electronic and thermal Free Energies=         -423.046394

                     E (Thermal)             CV                S
                      KCal/Mol        Cal/Mol-Kelvin    Cal/Mol-Kelvin
 Total                  104.963             31.454             90.215
 Electronic               0.000              0.000              0.000
 Translational            0.889              2.981             40.409
 Rotational               0.889              2.981             28.564
 Vibrational            103.186             25.492             21.243
 Vibration     1          0.599              1.964              3.964
 Vibration     2          0.601              1.958              3.728
 Vibration     3          0.616              1.909              2.751
 Vibration     4          0.650              1.800              1.906
 Vibration     5          0.668              1.746              1.663
 Vibration     6          0.676              1.723              1.577
 Vibration     7          0.739              1.542              1.097
 Vibration     8          0.779              1.437              0.909
 Vibration     9          0.821              1.331              0.756
 Vibration    10          0.931              1.085              0.495

 Normal termination of Gaussian 09 at Mon Jan 27 22:48:48 2020.
