 Gaussian 09, Revision D.01,
 Gaussian 09:  ES64L-G09RevD.01 24-Apr-2013

 -----------------------------
 # b3lyp 6-31G(2df,p) opt Freq
 -----------------------------

 -----
 titel
 -----
 Symbolic Z-matrix:
 Charge =  0 Multiplicity = 1

 SCF Done:  E(RB3LYP) =  -423.183262643     A.U. after   14 cycles
 Optimization completed.
    -- Stationary point found.
 Normal termination of Gaussian 09 at Mon Jan 27 17:10:33 2020.

 ----------------------------------------------------------------------
 #N Geom=AllCheck Guess=TCheck SCRF=Check GenChk RB3LYP/6-31G(2df,p) Fr
 eq
 ----------------------------------------------------------------------

 Structure from the checkpoint file:  "/scratch/puck/g09_b2eceae8-8647-4ea2-994b-2a9903d08ada/Gau-112206.chk"
 -----
 titel
 -----
 Charge =  0 Multiplicity = 1

                         Standard orientation:
 ---------------------------------------------------------------------
 Center     Atomic      Atomic             Coordinates (Angstroms)
 Number     Number       Type             X           Y           Z
 ---------------------------------------------------------------------
      1          6           0       -0.164377    2.139098   -0.029381
      2          6           0       -0.516140    0.679536   -0.092651
      3          6           0       -1.785403    0.119884   -0.780753
      4          6           0       -1.530063   -0.954666    0.291749
      5          6           0       -0.240330   -1.652267   -0.183145
      6          6           0        0.581988   -0.360083   -0.514550
      7          6           0        1.833725   -0.236779    0.314993
      8          8           0        2.941861   -0.073979   -0.131506
      9          8           0       -1.000847    0.092939    1.162477
     10          1           0        0.147482    2.494694   -1.016665
     11          1           0       -1.024119    2.728567    0.299473
     12          1           0        0.661234    2.315350    0.667409
     13          1           0       -2.660300    0.730029   -0.552018
     14          1           0       -1.747806   -0.154055   -1.838341
     15          1           0       -2.317650   -1.555046    0.745252
     16          1           0        0.209125   -2.241989    0.620381
     17          1           0       -0.380143   -2.298509   -1.052791
     18          1           0        0.852023   -0.270553   -1.569255
     19          1           0        1.655637   -0.308502    1.411213
 ---------------------------------------------------------------------

 SCF Done:  E(RB3LYP) =  -423.183262643     A.U. after    1 cycles

 The electronic state is 1-A.
 Alpha  occ. eigenvalues --  -19.14201 -19.13449 -10.26418 -10.25627 -10.24694
 Alpha  occ. eigenvalues --  -10.19903 -10.19868 -10.19590 -10.18900  -1.05846
 Alpha  occ. eigenvalues --   -1.04036  -0.81393  -0.76564  -0.73759  -0.67848
 Alpha  occ. eigenvalues --   -0.60935  -0.57058  -0.54963  -0.50068  -0.48567
 Alpha  occ. eigenvalues --   -0.46230  -0.45764  -0.43832  -0.42201  -0.40320
 Alpha  occ. eigenvalues --   -0.39026  -0.38502  -0.36762  -0.35468  -0.34402
 Alpha  occ. eigenvalues --   -0.32849  -0.32031  -0.26341  -0.24162
 Alpha virt. eigenvalues --   -0.02126   0.08248   0.09615   0.10655   0.11369
 Alpha virt. eigenvalues --    0.13338   0.14604   0.14695   0.15316   0.16019
 Alpha virt. eigenvalues --    0.16669   0.17407   0.18307   0.18905   0.20218

 Mulliken charges:
               1
     1  C   -0.499278
     2  C    0.385800
     3  C   -0.271789
     4  C    0.081267
     5  C   -0.256644
     6  C   -0.101452
     7  C    0.145975
     8  O   -0.262790
     9  O   -0.325743
    10  H    0.132128
    11  H    0.131286
    12  H    0.139106
    13  H    0.112932
    14  H    0.098010
    15  H    0.085252
    16  H    0.115879
    17  H    0.111591
    18  H    0.088881
    19  H    0.089588
 Sum of Mulliken charges =   0.00000

 Dipole moment (field-independent basis, Debye):
    X=             -2.8879    Y=             -0.3852    Z=             -1.0856  Tot=              3.1091
 Quadrupole moment (field-independent basis, Debye-Ang):
   XX=            -62.4721   YY=            -49.1918   ZZ=            -54.1690
   XY=              0.7600   XZ=              3.0374   YZ=             -0.7262

  Exact polarizability:  85.393   2.363  75.024  -0.087  -0.828  66.204
 Approx polarizability: 123.666   4.890 103.801  -5.572  -0.646 108.144

                      1                      2                      3
                      A                      A                      A
 Frequencies --     72.3487               126.4459               190.0510
 Red. masses --      4.9397                 3.1059                 1.1240
 Frc consts  --      0.0152                 0.0293                 0.0239
 IR Inten    --      5.1787                 2.7313                 0.1718

                      4                      5                      6
                      A                      A                      A
 Frequencies --    238.5282               302.9088               342.7404
 Red. masses --      2.2129                 2.6539                 2.4652
 Frc consts  --      0.0742                 0.1435                 0.1706
 IR Inten    --      1.3945                 2.7334                 1.7267

                      7                      8                      9
                      A                      A                      A
 Frequencies --    397.0652               412.1325               473.2506
 Red. masses --      2.1026                 4.2378                 2.8415
 Frc consts  --      0.1953                 0.4241                 0.3750
 IR Inten    --      3.4215                 0.7175                13.0906

                     10                     11                     12
                      A                      A                      A
 Frequencies --    582.5827               608.2966               741.8630
 Red. masses --      3.3762                 3.6790                 3.6210
 Frc consts  --      0.6751                 0.8021                 1.1742
 IR Inten    --      3.1241                 4.2753                11.5639

                     13                     14                     15
                      A                      A                      A
 Frequencies --    806.2373               830.6788               864.0337
 Red. masses --      2.8599                 3.3209                 2.5656
 Frc consts  --      1.0953                 1.3501                 1.1285
 IR Inten    --      2.3413                20.0318                15.9697

                     16                     17                     18
                      A                      A                      A
 Frequencies --    876.4598               901.5315               935.9657
 Red. masses --      2.1428                 2.2129                 2.6178
 Frc consts  --      0.9698                 1.0597                 1.3512
 IR Inten    --      4.0977                16.1009                14.9467

                     19                     20                     21
                      A                      A                      A
 Frequencies --    961.8649               995.4720              1020.3315
 Red. masses --      1.9115                 2.6680                 1.7724
 Frc consts  --      1.0419                 1.5577                 1.0872
 IR Inten    --      7.5103                18.7851                 4.5096

                     22                     23                     24
                      A                      A                      A
 Frequencies --   1040.8610              1065.9368              1099.6486
 Red. masses --      1.3597                 1.8391                 1.7255
 Frc consts  --      0.8679                 1.2312                 1.2294
 IR Inten    --      1.6807                 9.0882                 8.8151

                     25                     26                     27
                      A                      A                      A
 Frequencies --   1120.3288              1177.5491              1202.7437
 Red. masses --      1.5766                 1.7468                 1.8820
 Frc consts  --      1.1659                 1.4271                 1.6041
 IR Inten    --      8.0706                40.5838                10.8088

                     28                     29                     30
                      A                      A                      A
 Frequencies --   1209.2611              1236.1262              1275.9778
 Red. masses --      1.5388                 1.3523                 1.7887
 Frc consts  --      1.3258                 1.2175                 1.7159
 IR Inten    --      4.5132                 3.0698                 5.2061

                     31                     32                     33
                      A                      A                      A
 Frequencies --   1285.2795              1298.3432              1308.9092
 Red. masses --      1.4850                 1.4696                 2.1012
 Frc consts  --      1.4454                 1.4596                 2.1210
 IR Inten    --      2.0791                 2.7231                23.9132

                     34                     35                     36
                      A                      A                      A
 Frequencies --   1337.9291              1417.4791              1418.4107
 Red. masses --      1.9062                 1.4202                 1.2205
 Frc consts  --      2.0104                 1.6812                 1.4468
 IR Inten    --      6.7659                13.5732                 4.4441

                     37                     38                     39
                      A                      A                      A
 Frequencies --   1476.9290              1480.1719              1492.2299
 Red. masses --      1.0510                 1.1228                 1.0625
 Frc consts  --      1.3508                 1.4494                 1.3939
 IR Inten    --      2.0724                 2.2922                 5.6059

                     40                     41                     42
                      A                      A                      A
 Frequencies --   1496.0411              1824.2103              2888.0900
 Red. masses --      1.1284                10.0441                 1.0825
 Frc consts  --      1.4880                19.6930                 5.3198
 IR Inten    --      1.5312               197.9075                61.7567

                     43                     44                     45
                      A                      A                      A
 Frequencies --   3041.3327              3063.8345              3065.7715
 Red. masses --      1.0356                 1.0590                 1.0597
 Frc consts  --      5.6438                 5.8570                 5.8682
 IR Inten    --     10.5656                31.6470                14.9044

                     46                     47                     48
                      A                      A                      A
 Frequencies --   3090.4547              3110.4343              3116.7953
 Red. masses --      1.0869                 1.1005                 1.1051
 Frc consts  --      6.1162                 6.2733                 6.3248
 IR Inten    --      9.7851                10.5656                19.2279

                     49                     50                     51
                      A                      A                      A
 Frequencies --   3122.2375              3132.4225              3141.0526
 Red. masses --      1.1020                 1.0933                 1.1063
 Frc consts  --      6.3295                 6.3207                 6.4307
 IR Inten    --     11.6395                37.3199                28.1735

 - Thermochemistry -
 -------------------
 Temperature   298.150 Kelvin.  Pressure   1.00000 Atm.
 Atom     1 has atomic number  6 and mass  12.00000

 Molecular mass:   126.06808 amu.
 Principal axes and moments of inertia in atomic units:
                           1         2         3
     Eigenvalues --   665.381551203.476191534.37198
           X            0.99982   0.00440   0.01851
           Y           -0.00431   0.99998  -0.00479
           Z           -0.01853   0.00471   0.99982
 This molecule is an asymmetric top.
 Rotational symmetry number  1.
 Warning -- assumption of classical behavior for rotation
           may cause significant error
 Rotational temperatures (Kelvin)      0.13017     0.07197     0.05645
 Rotational constants (GHZ):           2.71234     1.49961     1.17621
 Zero-point vibrational energy     417003.7 (Joules/Mol)
                                   99.66628 (Kcal/Mol)
 Warning -- explicit consideration of  11 degrees of freedom as
           vibrations may cause significant error
 Vibrational temperatures:    104.09   181.93   273.44   343.19   435.82
          (Kelvin)            493.13   571.29   592.97   680.90   838.21
                              875.20  1067.37  1159.99  1195.16  1243.15
                             1261.03  1297.10  1346.64  1383.91  1432.26
                             1468.03  1497.56  1533.64  1582.15  1611.90
                             1694.23  1730.48  1739.85  1778.51  1835.85
                             1849.23  1868.02  1883.23  1924.98  2039.43
                             2040.77  2124.97  2129.63  2146.98  2152.47
                             2624.63  4155.31  4375.79  4408.17  4410.96
                             4446.47  4475.22  4484.37  4492.20  4506.85
                             4519.27

 Zero-point correction=                           0.158828 (Hartree/Particle)
 Thermal correction to Energy=                    0.167025
 Thermal correction to Enthalpy=                  0.167969
 Thermal correction to Gibbs Free Energy=         0.125949
 Sum of electronic and zero-point Energies=           -423.024434
 Sum of electronic and thermal Energies=              -423.016238
 Sum of electronic and thermal Enthalpies=            -423.015294
 Sum of electronic and thermal Free Energies=         -423.057314

                     E (Thermal)             CV                S
                      KCal/Mol        Cal/Mol-Kelvin    Cal/Mol-Kelvin
 Total                  104.810             31.518             88.439
 Electronic               0.000              0.000              0.000
 Translational            0.889              2.981             40.409
 Rotational               0.889              2.981             28.598
 Vibrational            103.032             25.556             19.432
 Vibration     1          0.598              1.967              4.088
 Vibration     2          0.611              1.927              2.999
 Vibration     3          0.633              1.854              2.227
 Vibration     4          0.657              1.782              1.814
 Vibration     5          0.694              1.668              1.401
 Vibration     6          0.722              1.590              1.199
 Vibration     7          0.764              1.476              0.974
 Vibration     8          0.776              1.444              0.919
 Vibration     9          0.830              1.309              0.729
 Vibration    10          0.939              1.069              0.481
 Vibration    11          0.967              1.014              0.436

 Normal termination of Gaussian 09 at Mon Jan 27 17:52:15 2020.
