 Gaussian 09, Revision D.01,
 Gaussian 09:  ES64L-G09RevD.01 24-Apr-2013

 -----------------------------
 # b3lyp 6-31G(2df,p) opt Freq
 -----------------------------

 -----
 titel
 -----
 Symbolic Z-matrix:
 Charge =  0 Multiplicity = 1

 SCF Done:  E(RB3LYP) =  -423.128407760     A.U. after   13 cycles
 SCF Done:  E(RB3LYP) =  -423.128408238     A.U. after    7 cycles
 Optimization completed.
    -- Stationary point found.
 Normal termination of Gaussian 09 at Mon Jan 27 12:22:38 2020.

 ----------------------------------------------------------------------
 #N Geom=AllCheck Guess=TCheck SCRF=Check GenChk RB3LYP/6-31G(2df,p) Fr
 eq
 ----------------------------------------------------------------------

 Structure from the checkpoint file:  "/scratch/puck/g09_f10c1096-006b-40ce-8050-c852c0832e3e/Gau-166944.chk"
 -----
 titel
 -----
 Charge =  0 Multiplicity = 1

                         Standard orientation:
 ---------------------------------------------------------------------
 Center     Atomic      Atomic             Coordinates (Angstroms)
 Number     Number       Type             X           Y           Z
 ---------------------------------------------------------------------
      1          6           0       -2.046774   -0.340819   -0.560034
      2          8           0       -1.820866    0.882659    0.211839
      3          6           0       -0.435464    0.542605    0.290169
      4          6           0       -0.097101   -0.600421    1.308450
      5          6           0        0.445217   -1.335883    0.067514
      6          8           0        1.760635   -0.809667   -0.180679
      7          6           0        1.855764    0.601592   -0.442499
      8          6           0        0.724022    1.494599    0.177202
      9          6           0       -0.528279   -0.534539   -0.821090
     10          1           0       -2.552334   -1.111624    0.032357
     11          1           0       -2.637184   -0.129069   -1.455347
     12          1           0        0.634755   -0.391173    2.090120
     13          1           0       -0.997626   -1.041133    1.738747
     14          1           0        0.540709   -2.423214    0.036098
     15          1           0        2.840400    0.902836   -0.075484
     16          1           0        1.848361    0.757796   -1.528668
     17          1           0        1.011823    1.908941    1.148900
     18          1           0        0.513805    2.325896   -0.503101
     19          1           0       -0.225172   -0.346008   -1.851172
 ---------------------------------------------------------------------

 SCF Done:  E(RB3LYP) =  -423.128408238     A.U. after    1 cycles

 The electronic state is 1-A.
 Alpha  occ. eigenvalues --  -19.13794 -19.13635 -10.24198 -10.24051 -10.23955
 Alpha  occ. eigenvalues --  -10.23518 -10.19128 -10.18615 -10.17630  -1.04709
 Alpha  occ. eigenvalues --   -1.02350  -0.82890  -0.77437  -0.71321  -0.65069
 Alpha  occ. eigenvalues --   -0.62822  -0.60001  -0.51717  -0.50803  -0.47898
 Alpha  occ. eigenvalues --   -0.47430  -0.46717  -0.44070  -0.41496  -0.40921
 Alpha  occ. eigenvalues --   -0.38889  -0.38558  -0.35347  -0.33902  -0.33826
 Alpha  occ. eigenvalues --   -0.30241  -0.26678  -0.24585  -0.24332
 Alpha virt. eigenvalues --    0.07225   0.08222   0.09962   0.10763   0.11573
 Alpha virt. eigenvalues --    0.12909   0.13999   0.15181   0.16696   0.17119
 Alpha virt. eigenvalues --    0.17519   0.18464   0.19961   0.20407   0.21443

 Mulliken charges:
               1
     1  C   -0.150390
     2  O   -0.357248
     3  C    0.483754
     4  C   -0.296356
     5  C    0.095778
     6  O   -0.290706
     7  C   -0.057759
     8  C   -0.338534
     9  C   -0.117403
    10  H    0.108470
    11  H    0.115548
    12  H    0.099496
    13  H    0.108920
    14  H    0.073983
    15  H    0.111707
    16  H    0.105542
    17  H    0.108642
    18  H    0.111407
    19  H    0.085149
 Sum of Mulliken charges =   0.00000

 Dipole moment (field-independent basis, Debye):
    X=              0.0093    Y=             -0.1795    Z=             -0.5767  Tot=              0.6040
 Quadrupole moment (field-independent basis, Debye-Ang):
   XX=            -56.2775   YY=            -53.2859   ZZ=            -51.5087
   XY=              6.8406   XZ=              1.9764   YZ=             -1.1170

  Exact polarizability:  81.138   5.387  71.143   2.461  -1.554  68.559
 Approx polarizability: 113.219   2.463 106.987   2.843  -0.158 103.900

                      1                      2                      3
                      A                      A                      A
 Frequencies --    175.9650               265.5418               299.1161
 Red. masses --      2.0102                 2.5624                 3.5376
 Frc consts  --      0.0367                 0.1065                 0.1865
 IR Inten    --      2.4033                 5.4936                 3.9599

                      4                      5                      6
                      A                      A                      A
 Frequencies --    339.1586               426.8914               436.1827
 Red. masses --      3.5994                 3.0890                 3.6381
 Frc consts  --      0.2439                 0.3317                 0.4078
 IR Inten    --      4.0673                 2.8823                 0.0842

                      7                      8                      9
                      A                      A                      A
 Frequencies --    461.7217               569.1842               650.1782
 Red. masses --      2.5047                 3.8267                 3.0819
 Frc consts  --      0.3146                 0.7304                 0.7676
 IR Inten    --      1.0057                 2.7168                 0.4287

                     10                     11                     12
                      A                      A                      A
 Frequencies --    764.3252               804.7247               817.2742
 Red. masses --      2.8567                 3.3250                 1.7659
 Frc consts  --      0.9833                 1.2686                 0.6950
 IR Inten    --      6.8237                11.4762                 4.0838

                     13                     14                     15
                      A                      A                      A
 Frequencies --    832.8068               889.9827               903.3790
 Red. masses --      1.9681                 2.5261                 2.7505
 Frc consts  --      0.8043                 1.1789                 1.3225
 IR Inten    --      4.6591                11.7488                15.7834

                     16                     17                     18
                      A                      A                      A
 Frequencies --    926.1367               941.7455               957.1357
 Red. masses --      2.6697                 2.3170                 4.6132
 Frc consts  --      1.3491                 1.2107                 2.4900
 IR Inten    --     13.0360                12.0824                20.1674

                     19                     20                     21
                      A                      A                      A
 Frequencies --    974.6128              1015.3641              1036.6024
 Red. masses --      2.0135                 2.9640                 1.9211
 Frc consts  --      1.1269                 1.8004                 1.2163
 IR Inten    --     21.2806                66.0833                15.0628

                     22                     23                     24
                      A                      A                      A
 Frequencies --   1058.8492              1093.8395              1126.8787
 Red. masses --      1.9368                 1.8333                 2.0036
 Frc consts  --      1.2794                 1.2924                 1.4991
 IR Inten    --     17.8835                 6.7236                35.1251

                     25                     26                     27
                      A                      A                      A
 Frequencies --   1138.2935              1157.5294              1174.6971
 Red. masses --      1.7444                 2.1545                 1.4649
 Frc consts  --      1.3317                 1.7008                 1.1910
 IR Inten    --      0.7760                25.6621                 5.1310

                     28                     29                     30
                      A                      A                      A
 Frequencies --   1208.0928              1227.1130              1265.4944
 Red. masses --      1.6305                 1.4070                 1.2201
 Frc consts  --      1.4020                 1.2483                 1.1512
 IR Inten    --     11.5789                 8.0922                11.4932

                     31                     32                     33
                      A                      A                      A
 Frequencies --   1276.3963              1293.9100              1308.6195
 Red. masses --      1.6996                 1.4593                 1.2905
 Frc consts  --      1.6314                 1.4394                 1.3021
 IR Inten    --     20.4412                11.1121                 1.3462

                     34                     35                     36
                      A                      A                      A
 Frequencies --   1335.8110              1346.8179              1355.8776
 Red. masses --      2.0045                 1.7559                 1.4118
 Frc consts  --      2.1074                 1.8766                 1.5292
 IR Inten    --     11.3816                41.0695                 1.1039

                     37                     38                     39
                      A                      A                      A
 Frequencies --   1407.7479              1474.7712              1498.1757
 Red. masses --      1.3431                 1.1198                 1.1030
 Frc consts  --      1.5682                 1.4349                 1.4586
 IR Inten    --      5.1929                 5.0898                 2.4009

                     40                     41                     42
                      A                      A                      A
 Frequencies --   1518.3399              1518.8731              3014.3530
 Red. masses --      1.0980                 1.1001                 1.0698
 Frc consts  --      1.4913                 1.4953                 5.7271
 IR Inten    --      0.7032                 1.4212                44.9964

                     43                     44                     45
                      A                      A                      A
 Frequencies --   3036.1156              3043.1255              3076.0420
 Red. masses --      1.0590                 1.0594                 1.0605
 Frc consts  --      5.7518                 5.7804                 5.9121
 IR Inten    --     58.0028                30.0913                18.5613

                     46                     47                     48
                      A                      A                      A
 Frequencies --   3082.6834              3088.6841              3092.7923
 Red. masses --      1.0945                 1.0928                 1.0987
 Frc consts  --      6.1279                 6.1423                 6.1921
 IR Inten    --     32.7384                16.7065                49.5971

                     49                     50                     51
                      A                      A                      A
 Frequencies --   3097.6824              3110.7535              3141.7498
 Red. masses --      1.1046                 1.0921                 1.1101
 Frc consts  --      6.2452                 6.2262                 6.4560
 IR Inten    --     35.5987                44.6442                19.0091

 - Thermochemistry -
 -------------------
 Temperature   298.150 Kelvin.  Pressure   1.00000 Atm.
 Atom     1 has atomic number  6 and mass  12.00000

 Molecular mass:   126.06808 amu.
 Principal axes and moments of inertia in atomic units:
                           1         2         3
     Eigenvalues --   574.704151042.322921229.04640
           X            0.99716   0.07501   0.00686
           Y           -0.07469   0.99646  -0.03855
           Z           -0.00973   0.03793   0.99923
 This molecule is an asymmetric top.
 Rotational symmetry number  1.
 Warning -- assumption of classical behavior for rotation
           may cause significant error
 Rotational temperatures (Kelvin)      0.15071     0.08310     0.07047
 Rotational constants (GHZ):           3.14030     1.73146     1.46841
 Zero-point vibrational energy     425022.1 (Joules/Mol)
                                  101.58271 (Kcal/Mol)
 Warning -- explicit consideration of   8 degrees of freedom as
           vibrations may cause significant error
 Vibrational temperatures:    253.17   382.06   430.36   487.97   614.20
          (Kelvin)            627.57   664.31   818.93   935.46  1099.69
                             1157.82  1175.87  1198.22  1280.49  1299.76
                             1332.50  1354.96  1377.10  1402.25  1460.88
                             1491.44  1523.45  1573.79  1621.33  1637.75
                             1665.42  1690.13  1738.17  1765.54  1820.76
                             1836.45  1861.65  1882.81  1921.93  1937.77
                             1950.80  2025.43  2121.86  2155.54  2184.55
                             2185.32  4336.98  4368.29  4378.37  4425.73
                             4435.29  4443.92  4449.83  4456.87  4475.67
                             4520.27

 Zero-point correction=                           0.161882 (Hartree/Particle)
 Thermal correction to Energy=                    0.168635
 Thermal correction to Enthalpy=                  0.169579
 Thermal correction to Gibbs Free Energy=         0.131154
 Sum of electronic and zero-point Energies=           -422.966526
 Sum of electronic and thermal Energies=              -422.959773
 Sum of electronic and thermal Enthalpies=            -422.958829
 Sum of electronic and thermal Free Energies=         -422.997254

                     E (Thermal)             CV                S
                      KCal/Mol        Cal/Mol-Kelvin    Cal/Mol-Kelvin
 Total                  105.820             28.390             80.872
 Electronic               0.000              0.000              0.000
 Translational            0.889              2.981             40.409
 Rotational               0.889              2.981             28.089
 Vibrational            104.043             22.428             12.374
 Vibration     1          0.628              1.872              2.371
 Vibration     2          0.671              1.736              1.625
 Vibration     3          0.692              1.675              1.422
 Vibration     4          0.719              1.597              1.216
 Vibration     5          0.789              1.412              0.869
 Vibration     6          0.797              1.391              0.839
 Vibration     7          0.819              1.335              0.761
 Vibration     8          0.925              1.098              0.506

 Optimization completed.
    -- Stationary point found.
 Normal termination of Gaussian 09 at Mon Jan 27 13:10:42 2020.
