 Gaussian 09, Revision D.01,
 Gaussian 09:  ES64L-G09RevD.01 24-Apr-2013

 -----------------------------
 # b3lyp 6-31G(2df,p) opt Freq
 -----------------------------

 -----
 titel
 -----
 Symbolic Z-matrix:
 Charge =  0 Multiplicity = 1

 SCF Done:  E(RB3LYP) =  -423.192303458     A.U. after   13 cycles
 Optimization completed.
    -- Stationary point found.
 Normal termination of Gaussian 09 at Mon Jan 27 18:10:36 2020.

 ----------------------------------------------------------------------
 #N Geom=AllCheck Guess=TCheck SCRF=Check GenChk RB3LYP/6-31G(2df,p) Fr
 eq
 ----------------------------------------------------------------------

 Structure from the checkpoint file:  "/scratch/puck/g09_1770cd42-a5d1-43a3-800a-f3a95265538f/Gau-89236.chk"
 -----
 titel
 -----
 Charge =  0 Multiplicity = 1

                         Standard orientation:
 ---------------------------------------------------------------------
 Center     Atomic      Atomic             Coordinates (Angstroms)
 Number     Number       Type             X           Y           Z
 ---------------------------------------------------------------------
      1          6           0       -2.557841    0.109330   -0.332958
      2          6           0       -1.067808   -0.004188   -0.143382
      3          6           0       -0.250776   -0.992339   -0.965749
      4          6           0        1.080991   -0.971462   -0.192627
      5          8           0        0.704608   -0.922554    1.177241
      6          6           0       -0.387546   -0.026160    1.204723
      7          6           0       -0.223873    1.181126    0.317831
      8          6           0        1.143968    1.395516   -0.307474
      9          8           0        1.837728    0.163569   -0.538623
     10          1           0       -3.041952   -0.870148   -0.242203
     11          1           0       -3.004643    0.772494    0.415161
     12          1           0       -2.807809    0.513459   -1.320960
     13          1           0       -0.709828   -1.986896   -0.937653
     14          1           0       -0.098716   -0.702095   -2.008712
     15          1           0        1.733413   -1.832035   -0.339551
     16          1           0       -0.897590   -0.004244    2.159798
     17          1           0       -0.754624    2.088845    0.589775
     18          1           0        1.053122    1.932354   -1.262698
     19          1           0        1.767257    2.009205    0.355912
 ---------------------------------------------------------------------

 SCF Done:  E(RB3LYP) =  -423.192303458     A.U. after    1 cycles

 The electronic state is 1-A.
 Alpha  occ. eigenvalues --  -19.14282 -19.13691 -10.27393 -10.23257 -10.23207
 Alpha  occ. eigenvalues --  -10.19890 -10.19313 -10.18524 -10.18483  -1.07733
 Alpha  occ. eigenvalues --   -1.00240  -0.86353  -0.76665  -0.71367  -0.68550
 Alpha  occ. eigenvalues --   -0.64413  -0.56698  -0.53275  -0.51776  -0.48453
 Alpha  occ. eigenvalues --   -0.47061  -0.44171  -0.43291  -0.41800  -0.41385
 Alpha  occ. eigenvalues --   -0.40137  -0.38976  -0.37249  -0.34549  -0.33613
 Alpha  occ. eigenvalues --   -0.31062  -0.28779  -0.24689  -0.23000
 Alpha virt. eigenvalues --    0.08685   0.10559   0.11389   0.12309   0.13430
 Alpha virt. eigenvalues --    0.13936   0.14980   0.15055   0.16198   0.17261
 Alpha virt. eigenvalues --    0.18209   0.18663   0.18937   0.19329   0.21750

 Mulliken charges:
               1
     1  C   -0.494266
     2  C    0.274635
     3  C   -0.304748
     4  C    0.169552
     5  O   -0.254084
     6  C    0.064075
     7  C   -0.164808
     8  C   -0.089618
     9  O   -0.265330
    10  H    0.120043
    11  H    0.116237
    12  H    0.120470
    13  H    0.104598
    14  H    0.109683
    15  H    0.093265
    16  H    0.100239
    17  H    0.087681
    18  H    0.100916
    19  H    0.111461
 Sum of Mulliken charges =   0.00000

 Dipole moment (field-independent basis, Debye):
    X=             -2.0674    Y=              0.7738    Z=             -0.5989  Tot=              2.2873
 Quadrupole moment (field-independent basis, Debye-Ang):
   XX=            -55.7336   YY=            -50.1848   ZZ=            -53.7471
   XY=             -0.0784   XZ=             -1.1294   YZ=              2.3145

  Exact polarizability:  77.734   1.014  75.052  -0.599   2.069  67.206
 Approx polarizability: 105.318   0.255 110.952  -0.381   0.262 104.482

                      1                      2                      3
                      A                      A                      A
 Frequencies --    143.5628               201.6568               222.7150
 Red. masses --      2.5527                 1.3108                 1.7112
 Frc consts  --      0.0310                 0.0314                 0.0500
 IR Inten    --      3.0165                 0.0390                 0.2439

                      4                      5                      6
                      A                      A                      A
 Frequencies --    288.8142               391.0353               419.9118
 Red. masses --      2.4775                 2.6783                 3.6819
 Frc consts  --      0.1218                 0.2413                 0.3825
 IR Inten    --      0.4155                 1.4391                 2.1262

                      7                      8                      9
                      A                      A                      A
 Frequencies --    500.3537               550.6802               603.9252
 Red. masses --      2.8404                 6.1905                 4.2398
 Frc consts  --      0.4190                 1.1061                 0.9111
 IR Inten    --      3.5862                 5.6306                 0.3981

                     10                     11                     12
                      A                      A                      A
 Frequencies --    686.2801               711.8701               794.2142
 Red. masses --      4.2271                 5.0104                 3.1746
 Frc consts  --      1.1730                 1.4960                 1.1798
 IR Inten    --      1.9077                 7.7158                 5.5993

                     13                     14                     15
                      A                      A                      A
 Frequencies --    846.6312               873.1554               881.9112
 Red. masses --      4.3536                 2.2695                 2.1615
 Frc consts  --      1.8386                 1.0194                 0.9905
 IR Inten    --      7.6993                33.9332                25.6594

                     16                     17                     18
                      A                      A                      A
 Frequencies --    915.8367               954.5164               987.2917
 Red. masses --      2.1666                 2.1248                 1.9073
 Frc consts  --      1.0707                 1.1406                 1.0954
 IR Inten    --      8.2738                 2.9003                27.0081

                     19                     20                     21
                      A                      A                      A
 Frequencies --    995.7461              1024.1731              1033.8471
 Red. masses --      1.9025                 2.2215                 1.6668
 Frc consts  --      1.1114                 1.3729                 1.0496
 IR Inten    --     26.1090                15.7300                10.1580

                     22                     23                     24
                      A                      A                      A
 Frequencies --   1051.4173              1097.7520              1113.8287
 Red. masses --      2.1355                 1.9476                 1.6526
 Frc consts  --      1.3909                 1.3828                 1.2079
 IR Inten    --     16.6009                 2.5426                29.3368

                     25                     26                     27
                      A                      A                      A
 Frequencies --   1123.1456              1156.0491              1203.0999
 Red. masses --      2.1737                 3.8728                 1.4942
 Frc consts  --      1.6156                 3.0495                 1.2742
 IR Inten    --      4.0525               102.2487                20.6297

                     28                     29                     30
                      A                      A                      A
 Frequencies --   1220.1768              1251.5019              1266.3616
 Red. masses --      2.0361                 1.1035                 1.6667
 Frc consts  --      1.7860                 1.0183                 1.5748
 IR Inten    --     11.9161                 2.2612                 0.5848

                     31                     32                     33
                      A                      A                      A
 Frequencies --   1303.3136              1313.1327              1351.1335
 Red. masses --      1.7090                 2.0215                 1.5437
 Frc consts  --      1.7104                 2.0537                 1.6604
 IR Inten    --      4.9914                22.1466                 8.2683

                     34                     35                     36
                      A                      A                      A
 Frequencies --   1371.5127              1412.7697              1421.9949
 Red. masses --      1.3265                 1.4082                 1.3446
 Frc consts  --      1.4701                 1.6560                 1.6019
 IR Inten    --      2.7041                18.8134                 4.5372

                     37                     38                     39
                      A                      A                      A
 Frequencies --   1451.8447              1488.2436              1489.7372
 Red. masses --      2.0815                 1.1297                 1.0847
 Frc consts  --      2.5851                 1.4742                 1.4183
 IR Inten    --      6.1749                 1.8614                 5.5005

                     40                     41                     42
                      A                      A                      A
 Frequencies --   1503.1320              1524.7948              2993.7957
 Red. masses --      1.1099                 1.0878                 1.0626
 Frc consts  --      1.4776                 1.4901                 5.6112
 IR Inten    --      3.8782                 0.8133                78.0825

                     43                     44                     45
                      A                      A                      A
 Frequencies --   3020.8731              3029.8276              3044.2638
 Red. masses --      1.0356                 1.1015                 1.0615
 Frc consts  --      5.5682                 5.9576                 5.7961
 IR Inten    --     37.0950                42.5075                28.8413

                     46                     47                     48
                      A                      A                      A
 Frequencies --   3080.7066              3093.5978              3100.6939
 Red. masses --      1.1010                 1.1005                 1.1030
 Frc consts  --      6.1564                 6.2054                 6.2478
 IR Inten    --     23.2302                21.6482                18.8412

                     49                     50                     51
                      A                      A                      A
 Frequencies --   3126.3716              3152.5568              3192.8198
 Red. masses --      1.0908                 1.0887                 1.0935
 Frc consts  --      6.2817                 6.3753                 6.5676
 IR Inten    --     39.0393                11.6889                15.7426

 - Thermochemistry -
 -------------------
 Temperature   298.150 Kelvin.  Pressure   1.00000 Atm.
 Atom     1 has atomic number  6 and mass  12.00000

 Molecular mass:   126.06808 amu.
 Principal axes and moments of inertia in atomic units:
                           1         2         3
     Eigenvalues --   616.729441055.063811149.07874
           X            0.99996   0.00829   0.00436
           Y           -0.00876   0.99253   0.12169
           Z           -0.00332  -0.12173   0.99256
 This molecule is an asymmetric top.
 Rotational symmetry number  1.
 Warning -- assumption of classical behavior for rotation
           may cause significant error
 Rotational temperatures (Kelvin)      0.14044     0.08209     0.07538
 Rotational constants (GHZ):           2.92631     1.71055     1.57060
 Zero-point vibrational energy     424546.2 (Joules/Mol)
                                  101.46897 (Kcal/Mol)
 Warning -- explicit consideration of   9 degrees of freedom as
           vibrations may cause significant error
 Vibrational temperatures:    206.55   290.14   320.44   415.54   562.61
          (Kelvin)            604.16   719.90   792.31   868.91   987.40
                             1024.22  1142.70  1218.11  1256.27  1268.87
                             1317.68  1373.33  1420.49  1432.65  1473.55
                             1487.47  1512.75  1579.42  1602.55  1615.95
                             1663.29  1730.99  1755.56  1800.63  1822.01
                             1875.18  1889.30  1943.98  1973.30  2032.66
                             2045.93  2088.88  2141.25  2143.40  2162.67
                             2193.84  4307.40  4346.36  4359.24  4380.01
                             4432.44  4450.99  4461.20  4498.15  4535.82
                             4593.75

 Zero-point correction=                           0.161701 (Hartree/Particle)
 Thermal correction to Energy=                    0.168872
 Thermal correction to Enthalpy=                  0.169816
 Thermal correction to Gibbs Free Energy=         0.130436
 Sum of electronic and zero-point Energies=           -423.030602
 Sum of electronic and thermal Energies=              -423.023432
 Sum of electronic and thermal Enthalpies=            -423.022488
 Sum of electronic and thermal Free Energies=         -423.061868

                     E (Thermal)             CV                S
                      KCal/Mol        Cal/Mol-Kelvin    Cal/Mol-Kelvin
 Total                  105.968             29.096             82.883
 Electronic               0.000              0.000              0.000
 Translational            0.889              2.981             40.409
 Rotational               0.889              2.981             28.105
 Vibrational            104.191             23.135             14.369
 Vibration     1          0.616              1.910              2.756
 Vibration     2          0.639              1.838              2.118
 Vibration     3          0.648              1.806              1.937
 Vibration     4          0.685              1.695              1.481
 Vibration     5          0.759              1.489              0.996
 Vibration     6          0.783              1.427              0.892
 Vibration     7          0.856              1.249              0.657
 Vibration     8          0.906              1.138              0.543
 Vibration     9          0.962              1.023              0.443

 Optimization completed.
    -- Stationary point found.
 Normal termination of Gaussian 09 at Mon Jan 27 18:56:58 2020.
