 Gaussian 09, Revision D.01,
 Gaussian 09:  ES64L-G09RevD.01 24-Apr-2013

 -----------------------------
 # b3lyp 6-31G(2df,p) opt Freq
 -----------------------------

 -----
 titel
 -----
 Symbolic Z-matrix:
 Charge =  0 Multiplicity = 1

 SCF Done:  E(RB3LYP) =  -423.115879485     A.U. after   12 cycles
 SCF Done:  E(RB3LYP) =  -423.115879845     A.U. after    6 cycles
 Optimization completed.
    -- Stationary point found.
 Normal termination of Gaussian 09 at Tue Jan 28 13:29:25 2020.

 ----------------------------------------------------------------------
 #N Geom=AllCheck Guess=TCheck SCRF=Check GenChk RB3LYP/6-31G(2df,p) Fr
 eq
 ----------------------------------------------------------------------

 Structure from the checkpoint file:  "/scratch/puck/g09_078c5955-5cb7-4b93-9ad1-279c212b3c53/Gau-144743.chk"
 -----
 titel
 -----
 Charge =  0 Multiplicity = 1

                         Standard orientation:
 ---------------------------------------------------------------------
 Center     Atomic      Atomic             Coordinates (Angstroms)
 Number     Number       Type             X           Y           Z
 ---------------------------------------------------------------------
      1          8           0        1.750492   -1.636484   -0.076666
      2          6           0        2.154902   -0.278568   -0.006886
      3          6           0        1.127212    0.656223   -0.626881
      4          6           0        0.638861    1.877678    0.153743
      5          6           0       -0.224389    0.675219    0.001393
      6          8           0       -0.515746   -0.196264    1.125939
      7          6           0       -1.864665   -0.336262    0.647166
      8          6           0       -1.896652   -0.966268   -0.709800
      9          6           0       -1.610653    0.519206   -0.569221
     10          1           0        0.963469   -1.691388    0.481434
     11          1           0        2.345020    0.021973    1.034173
     12          1           0        3.106210   -0.208143   -0.543502
     13          1           0        1.155602    0.734561   -1.710263
     14          1           0        1.080353    2.052246    1.130077
     15          1           0        0.370566    2.777000   -0.391338
     16          1           0       -2.655876   -0.355092    1.386123
     17          1           0       -1.100311   -1.643190   -1.006840
     18          1           0       -2.884689   -1.208825   -1.088543
     19          1           0       -2.206018    1.299472   -1.022590
 ---------------------------------------------------------------------

 SCF Done:  E(RB3LYP) =  -423.115879845     A.U. after    1 cycles

 The electronic state is 1-A.
 Alpha  occ. eigenvalues --  -19.15316 -19.11887 -10.24879 -10.24829 -10.22303
 Alpha  occ. eigenvalues --  -10.20433 -10.19590 -10.19180 -10.18894  -1.06380
 Alpha  occ. eigenvalues --   -1.00137  -0.85922  -0.84081  -0.69046  -0.64577
 Alpha  occ. eigenvalues --   -0.61162  -0.58657  -0.53102  -0.52677  -0.51110
 Alpha  occ. eigenvalues --   -0.47791  -0.45980  -0.43594  -0.42346  -0.40528
 Alpha  occ. eigenvalues --   -0.38339  -0.36907  -0.35754  -0.34312  -0.31974
 Alpha  occ. eigenvalues --   -0.29589  -0.26544  -0.25544  -0.23578
 Alpha virt. eigenvalues --    0.06667   0.09424   0.10150   0.10721   0.11381
 Alpha virt. eigenvalues --    0.13301   0.14088   0.14537   0.15671   0.16262
 Alpha virt. eigenvalues --    0.17216   0.18926   0.20394   0.21517   0.23176

 Mulliken charges:
               1
     1  O   -0.425554
     2  C   -0.083021
     3  C   -0.114762
     4  C   -0.391979
     5  C    0.477168
     6  O   -0.331938
     7  C    0.102284
     8  C   -0.309433
     9  C   -0.221641
    10  H    0.289535
    11  H    0.091958
    12  H    0.109209
    13  H    0.095843
    14  H    0.126394
    15  H    0.117965
    16  H    0.112584
    17  H    0.130872
    18  H    0.117633
    19  H    0.106883
 Sum of Mulliken charges =   0.00000

 Dipole moment (field-independent basis, Debye):
    X=             -1.9708    Y=              1.8190    Z=             -0.4802  Tot=              2.7246
 Quadrupole moment (field-independent basis, Debye-Ang):
   XX=            -50.0526   YY=            -54.6771   ZZ=            -53.4056
   XY=              4.0984   XZ=              0.7333   YZ=             -1.3646

  Exact polarizability:  85.455   5.279  75.706   0.054   1.233  64.827
 Approx polarizability: 111.663   5.760 111.776  -1.750   0.517 103.883

                      1                      2                      3
                      A                      A                      A
 Frequencies --     95.9166               119.0755               183.9449
 Red. masses --      3.9621                 3.5144                 3.5353
 Frc consts  --      0.0215                 0.0294                 0.0705
 IR Inten    --      1.0440                 3.9280                 2.7773

                      4                      5                      6
                      A                      A                      A
 Frequencies --    197.9344               324.7456               393.5042
 Red. masses --      2.7355                 3.3276                 2.3248
 Frc consts  --      0.0631                 0.2068                 0.2121
 IR Inten    --      0.4343                 1.6397                 1.1510

                      7                      8                      9
                      A                      A                      A
 Frequencies --    446.5424               502.0092               512.4702
 Red. masses --      3.2673                 3.0637                 2.8161
 Frc consts  --      0.3839                 0.4549                 0.4357
 IR Inten    --      3.0681                 3.0462                 2.1314

                     10                     11                     12
                      A                      A                      A
 Frequencies --    565.9566               637.4476               759.1268
 Red. masses --      1.1547                 3.7627                 1.6073
 Frc consts  --      0.2179                 0.9008                 0.5457
 IR Inten    --    135.4623                 5.8429                 7.2738

                     13                     14                     15
                      A                      A                      A
 Frequencies --    794.5599               808.5745               855.9811
 Red. masses --      1.7543                 1.8252                 2.3204
 Frc consts  --      0.6525                 0.7031                 1.0017
 IR Inten    --     16.8436                 7.6543                14.5529

                     16                     17                     18
                      A                      A                      A
 Frequencies --    903.3073               909.6695               937.8312
 Red. masses --      2.1006                 1.7713                 1.5185
 Frc consts  --      1.0099                 0.8636                 0.7869
 IR Inten    --      1.3636                20.3924                 2.0169

                     19                     20                     21
                      A                      A                      A
 Frequencies --    964.5415               977.4748              1006.4770
 Red. masses --      2.4391                 3.3070                 2.7784
 Frc consts  --      1.3370                 1.8616                 1.6582
 IR Inten    --     14.8033                22.7788                13.3268

                     22                     23                     24
                      A                      A                      A
 Frequencies --   1040.0248              1048.6135              1053.5682
 Red. masses --      1.5519                 1.3090                 1.7282
 Frc consts  --      0.9890                 0.8480                 1.1302
 IR Inten    --      4.2289                 7.0050                45.5758

                     25                     26                     27
                      A                      A                      A
 Frequencies --   1063.7543              1073.3026              1090.7241
 Red. masses --      3.3200                 1.8015                 2.0757
 Frc consts  --      2.2135                 1.2227                 1.4550
 IR Inten    --     73.6221                10.8913                22.6321

                     28                     29                     30
                      A                      A                      A
 Frequencies --   1094.3152              1136.4979              1168.4060
 Red. masses --      1.9213                 1.5138                 1.6825
 Frc consts  --      1.3556                 1.1520                 1.3533
 IR Inten    --     34.1469                15.1929                 3.7406

                     31                     32                     33
                      A                      A                      A
 Frequencies --   1189.3036              1240.9181              1273.4699
 Red. masses --      1.8383                 1.2919                 1.8837
 Frc consts  --      1.5320                 1.1721                 1.7998
 IR Inten    --     20.3400                 4.6200                 3.3662

                     34                     35                     36
                      A                      A                      A
 Frequencies --   1314.2772              1344.7116              1392.1821
 Red. masses --      1.5089                 1.9026                 1.2575
 Frc consts  --      1.5356                 2.0271                 1.4360
 IR Inten    --      7.6169                 8.4540                 2.2669

                     37                     38                     39
                      A                      A                      A
 Frequencies --   1426.1977              1446.2905              1468.1900
 Red. masses --      1.4331                 1.2278                 1.2658
 Frc consts  --      1.7175                 1.5131                 1.6077
 IR Inten    --      5.3457                60.2220                 4.1467

                     40                     41                     42
                      A                      A                      A
 Frequencies --   1493.2579              1506.8804              2993.1510
 Red. masses --      1.6674                 1.3576                 1.0689
 Frc consts  --      2.1905                 1.8163                 5.6422
 IR Inten    --     14.0998                 9.7269                48.0473

                     43                     44                     45
                      A                      A                      A
 Frequencies --   3076.8108              3117.7153              3123.9063
 Red. masses --      1.0941                 1.0538                 1.0539
 Frc consts  --      6.1024                 6.0350                 6.0597
 IR Inten    --     36.8089                 7.9845                10.3370

                     46                     47                     48
                      A                      A                      A
 Frequencies --   3146.8237              3192.1176              3207.5391
 Red. masses --      1.0894                 1.0922                 1.1063
 Frc consts  --      6.3560                 6.5569                 6.7058
 IR Inten    --     12.0313                18.1872                 1.3410

                     49                     50                     51
                      A                      A                      A
 Frequencies --   3212.5182              3216.7728              3760.9377
 Red. masses --      1.1163                 1.1076                 1.0655
 Frc consts  --      6.7878                 6.7524                 8.8794
 IR Inten    --      5.0881                14.7890                54.0656

 - Thermochemistry -
 -------------------
 Temperature   298.150 Kelvin.  Pressure   1.00000 Atm.
 Atom     1 has atomic number  8 and mass  15.99491

 Molecular mass:   126.06808 amu.
 Principal axes and moments of inertia in atomic units:
                           1         2         3
     Eigenvalues --   663.884561206.767881503.05454
           X            0.99933   0.03404   0.01330
           Y           -0.03412   0.99940   0.00587
           Z           -0.01309  -0.00632   0.99989
 This molecule is an asymmetric top.
 Rotational symmetry number  1.
 Warning -- assumption of classical behavior for rotation
           may cause significant error
 Rotational temperatures (Kelvin)      0.13047     0.07177     0.05763
 Rotational constants (GHZ):           2.71846     1.49552     1.20072
 Zero-point vibrational energy     417558.1 (Joules/Mol)
                                   99.79879 (Kcal/Mol)
 Warning -- explicit consideration of  10 degrees of freedom as
           vibrations may cause significant error
 Vibrational temperatures:    138.00   171.32   264.66   284.78   467.24
          (Kelvin)            566.16   642.47   722.28   737.33   814.28
                              917.14  1092.21  1143.19  1163.36  1231.56
                             1299.66  1308.81  1349.33  1387.76  1406.37
                             1448.09  1496.36  1508.72  1515.85  1530.50
                             1544.24  1569.31  1574.47  1635.16  1681.07
                             1711.14  1785.40  1832.24  1890.95  1934.74
                             2003.04  2051.98  2080.89  2112.40  2148.46
                             2168.06  4306.47  4426.84  4485.69  4494.60
                             4527.57  4592.74  4614.93  4622.09  4628.21
                             5411.14

 Zero-point correction=                           0.159039 (Hartree/Particle)
 Thermal correction to Energy=                    0.167116
 Thermal correction to Enthalpy=                  0.168060
 Thermal correction to Gibbs Free Energy=         0.126390
 Sum of electronic and zero-point Energies=           -422.956840
 Sum of electronic and thermal Energies=              -422.948764
 Sum of electronic and thermal Enthalpies=            -422.947820
 Sum of electronic and thermal Free Energies=         -422.989490

                     E (Thermal)             CV                S
                      KCal/Mol        Cal/Mol-Kelvin    Cal/Mol-Kelvin
 Total                  104.867             31.762             87.701
 Electronic               0.000              0.000              0.000
 Translational            0.889              2.981             40.409
 Rotational               0.889              2.981             28.578
 Vibrational            103.089             25.800             18.715
 Vibration     1          0.603              1.952              3.536
 Vibration     2          0.609              1.933              3.115
 Vibration     3          0.631              1.862              2.288
 Vibration     4          0.637              1.843              2.152
 Vibration     5          0.709              1.626              1.286
 Vibration     6          0.761              1.484              0.987
 Vibration     7          0.806              1.369              0.806
 Vibration     8          0.857              1.246              0.653
 Vibration     9          0.868              1.222              0.628
 Vibration    10          0.922              1.105              0.512

 Normal termination of Gaussian 09 at Tue Jan 28 14:12:26 2020.
