 Gaussian 09, Revision D.01,
 Gaussian 09:  ES64L-G09RevD.01 24-Apr-2013

 -----------------------------
 # b3lyp 6-31G(2df,p) opt Freq
 -----------------------------

 -----
 titel
 -----
 Symbolic Z-matrix:
 Charge =  0 Multiplicity = 1

 SCF Done:  E(RB3LYP) =  -423.126784548     A.U. after   13 cycles
 SCF Done:  E(RB3LYP) =  -423.126784860     A.U. after    7 cycles
 SCF Done:  E(RB3LYP) =  -423.126785061     A.U. after    6 cycles
 SCF Done:  E(RB3LYP) =  -423.126785125     A.U. after    6 cycles
 Optimization completed.
    -- Stationary point found.
 Normal termination of Gaussian 09 at Mon Jan 27 18:08:18 2020.

 ----------------------------------------------------------------------
 #N Geom=AllCheck Guess=TCheck SCRF=Check GenChk RB3LYP/6-31G(2df,p) Fr
 eq
 ----------------------------------------------------------------------

 Structure from the checkpoint file:  "/scratch/puck/g09_a7d3d149-90fc-41f9-a30b-3f22558f6b4b/Gau-169712.chk"
 -----
 titel
 -----
 Charge =  0 Multiplicity = 1

                         Standard orientation:
 ---------------------------------------------------------------------
 Center     Atomic      Atomic             Coordinates (Angstroms)
 Number     Number       Type             X           Y           Z
 ---------------------------------------------------------------------
      1          8           0       -0.944951    1.889248    0.001525
      2          6           0       -0.883604    0.515092    0.090955
      3          6           0       -1.905707   -0.253094    0.882054
      4          6           0       -1.635653   -0.625570   -0.555394
      5          8           0       -0.452360   -1.427667   -0.640263
      6          6           0        0.363563   -0.351632   -0.113135
      7          6           0        1.376824   -0.615124    1.016418
      8          6           0        2.340626    0.381175    0.310786
      9          6           0        1.507866    0.204707   -0.989025
     10          1           0       -0.648015    2.150566   -0.877551
     11          1           0       -1.619772   -0.930345    1.682746
     12          1           0       -2.824766    0.303428    1.040757
     13          1           0       -2.373692   -0.707848   -1.343781
     14          1           0        1.056475   -0.399905    2.038870
     15          1           0        1.746062   -1.643231    0.964493
     16          1           0        2.249171    1.391193    0.717081
     17          1           0        3.396982    0.111532    0.266403
     18          1           0        1.309451    1.086868   -1.605652
     19          1           0        1.903102   -0.588234   -1.629416
 ---------------------------------------------------------------------

 SCF Done:  E(RB3LYP) =  -423.126785125     A.U. after    1 cycles

 The electronic state is 1-A.
 Alpha  occ. eigenvalues --  -19.15886 -19.13631 -10.24170 -10.23703 -10.23328
 Alpha  occ. eigenvalues --  -10.18661 -10.18568 -10.18484 -10.17956  -1.05954
 Alpha  occ. eigenvalues --   -1.03199  -0.84070  -0.82304  -0.66606  -0.66522
 Alpha  occ. eigenvalues --   -0.60389  -0.58824  -0.56157  -0.51350  -0.50259
 Alpha  occ. eigenvalues --   -0.46832  -0.44879  -0.42866  -0.40509  -0.38948
 Alpha  occ. eigenvalues --   -0.38013  -0.36338  -0.35202  -0.33952  -0.32972
 Alpha  occ. eigenvalues --   -0.32092  -0.28376  -0.25868  -0.22374
 Alpha virt. eigenvalues --    0.05819   0.07518   0.11163   0.11460   0.12201
 Alpha virt. eigenvalues --    0.12712   0.14348   0.16079   0.16977   0.17813
 Alpha virt. eigenvalues --    0.18407   0.19019   0.20271   0.21631   0.22497

 Mulliken charges:
               1
     1  O   -0.444871
     2  C    0.250378
     3  C   -0.334910
     4  C   -0.002651
     5  O   -0.332314
     6  C    0.401742
     7  C   -0.291089
     8  C   -0.211760
     9  C   -0.303136
    10  H    0.290582
    11  H    0.115334
    12  H    0.120306
    13  H    0.107920
    14  H    0.102429
    15  H    0.115085
    16  H    0.114017
    17  H    0.103314
    18  H    0.081223
    19  H    0.118400
 Sum of Mulliken charges =   0.00000

 Dipole moment (field-independent basis, Debye):
    X=              0.3538    Y=              0.9413    Z=             -0.6973  Tot=              1.2238
 Quadrupole moment (field-independent basis, Debye-Ang):
   XX=            -50.1506   YY=            -56.6985   ZZ=            -51.3792
   XY=              0.1171   XZ=              0.9354   YZ=             -4.2606

  Exact polarizability:  86.417   1.811  67.932  -1.715  -2.017  70.172
 Approx polarizability: 111.889   2.453 107.115  -2.285   0.872 105.812

                      1                      2                      3
                      A                      A                      A
 Frequencies --     98.8007               141.2921               194.0884
 Red. masses --      2.5818                 3.1875                 2.5194
 Frc consts  --      0.0148                 0.0375                 0.0559
 IR Inten    --      0.1300                 1.4389                 0.7771

                      4                      5                      6
                      A                      A                      A
 Frequencies --    264.1595               324.8491               382.8253
 Red. masses --      2.5139                 1.2452                 2.7828
 Frc consts  --      0.1034                 0.0774                 0.2403
 IR Inten    --      0.9650                76.6884                31.9171

                      7                      8                      9
                      A                      A                      A
 Frequencies --    433.8932               448.7843               473.5682
 Red. masses --      2.8315                 3.3447                 2.7917
 Frc consts  --      0.3141                 0.3969                 0.3689
 IR Inten    --     25.9715                 0.7425                 2.4270

                     10                     11                     12
                      A                      A                      A
 Frequencies --    534.7831               646.5415               697.6253
 Red. masses --      3.3874                 2.9870                 1.7248
 Frc consts  --      0.5708                 0.7357                 0.4946
 IR Inten    --      1.0647                 6.8324                 6.2634

                     13                     14                     15
                      A                      A                      A
 Frequencies --    781.5421               802.7783               855.7482
 Red. masses --      1.2419                 2.4300                 2.4789
 Frc consts  --      0.4469                 0.9227                 1.0696
 IR Inten    --      0.3626                 9.2097                 6.8179

                     16                     17                     18
                      A                      A                      A
 Frequencies --    898.0708               905.7699               923.2063
 Red. masses --      2.1787                 1.9624                 2.6156
 Frc consts  --      1.0353                 0.9486                 1.3135
 IR Inten    --      6.9455                 5.1180                 1.6702

                     19                     20                     21
                      A                      A                      A
 Frequencies --    928.9192               962.2760               981.0027
 Red. masses --      2.4161                 3.0442                 1.6540
 Frc consts  --      1.2284                 1.6608                 0.9378
 IR Inten    --     17.9245                10.3481                 1.7807

                     22                     23                     24
                      A                      A                      A
 Frequencies --   1010.9988              1029.1921              1054.5677
 Red. masses --      1.7047                 1.2157                 2.3574
 Frc consts  --      1.0266                 0.7587                 1.5446
 IR Inten    --     29.7476                 4.3150                58.6312

                     25                     26                     27
                      A                      A                      A
 Frequencies --   1083.9479              1098.0221              1138.2908
 Red. masses --      1.5756                 4.1171                 2.2573
 Frc consts  --      1.0908                 2.9246                 1.7232
 IR Inten    --     16.9185                13.3012                14.4173

                     28                     29                     30
                      A                      A                      A
 Frequencies --   1176.1511              1195.5861              1208.0783
 Red. masses --      2.6571                 1.4004                 1.6854
 Frc consts  --      2.1656                 1.1794                 1.4492
 IR Inten    --     20.1773                 0.7916                 2.6680

                     31                     32                     33
                      A                      A                      A
 Frequencies --   1244.0367              1261.7900              1271.8362
 Red. masses --      1.2187                 1.6118                 1.4959
 Frc consts  --      1.1112                 1.5119                 1.4256
 IR Inten    --      0.9600                63.0181                 8.2098

                     34                     35                     36
                      A                      A                      A
 Frequencies --   1274.9373              1294.1913              1356.5921
 Red. masses --      1.7711                 1.6998                 2.7327
 Frc consts  --      1.6962                 1.6774                 2.9630
 IR Inten    --     33.4192                20.6847                73.8614

                     37                     38                     39
                      A                      A                      A
 Frequencies --   1410.2995              1464.4442              1479.3078
 Red. masses --      1.6677                 1.0928                 1.0882
 Frc consts  --      1.9543                 1.3809                 1.4030
 IR Inten    --      9.9571                 4.9527                 2.5656

                     40                     41                     42
                      A                      A                      A
 Frequencies --   1489.6186              1502.0857              3047.5852
 Red. masses --      1.7857                 1.1643                 1.0603
 Frc consts  --      2.3345                 1.5478                 5.8023
 IR Inten    --     25.5696                 1.3316                44.9397

                     43                     44                     45
                      A                      A                      A
 Frequencies --   3059.3824              3072.6417              3103.6439
 Red. masses --      1.0577                 1.0602                 1.1046
 Frc consts  --      5.8331                 5.8974                 6.2688
 IR Inten    --     14.6605                30.9231                11.5399

                     46                     47                     48
                      A                      A                      A
 Frequencies --   3110.7073              3111.6901              3131.4964
 Red. masses --      1.0584                 1.1034                 1.1078
 Frc consts  --      6.0342                 6.2947                 6.4004
 IR Inten    --      6.2720                12.4582                38.9839

                     49                     50                     51
                      A                      A                      A
 Frequencies --   3190.1389              3208.8396              3792.6758
 Red. masses --      1.0957                 1.1142                 1.0658
 Frc consts  --      6.5700                 6.7592                 9.0324
 IR Inten    --     15.9001                 8.7217                17.2844

 - Thermochemistry -
 -------------------
 Temperature   298.150 Kelvin.  Pressure   1.00000 Atm.
 Atom     1 has atomic number  8 and mass  15.99491

 Molecular mass:   126.06808 amu.
 Principal axes and moments of inertia in atomic units:
                           1         2         3
     Eigenvalues --   649.101381161.576101365.48523
           X            0.99994   0.00980  -0.00406
           Y           -0.01008   0.99709  -0.07559
           Z            0.00331   0.07563   0.99713
 This molecule is an asymmetric top.
 Rotational symmetry number  1.
 Warning -- assumption of classical behavior for rotation
           may cause significant error
 Rotational temperatures (Kelvin)      0.13344     0.07457     0.06343
 Rotational constants (GHZ):           2.78037     1.55370     1.32168
 Zero-point vibrational energy     416021.1 (Joules/Mol)
                                   99.43143 (Kcal/Mol)
 Warning -- explicit consideration of  10 degrees of freedom as
           vibrations may cause significant error
 Vibrational temperatures:    142.15   203.29   279.25   380.07   467.38
          (Kelvin)            550.80   624.27   645.70   681.36   769.43
                              930.23  1003.73  1124.46  1155.02  1231.23
                             1292.12  1303.20  1328.29  1336.51  1384.50
                             1411.44  1454.60  1480.78  1517.29  1559.56
                             1579.81  1637.74  1692.22  1720.18  1738.15
                             1789.89  1815.43  1829.89  1834.35  1862.05
                             1951.83  2029.10  2107.01  2128.39  2143.23
                             2161.16  4384.79  4401.76  4420.84  4465.45
                             4475.61  4477.02  4505.52  4589.89  4616.80
                             5456.81

 Zero-point correction=                           0.158454 (Hartree/Particle)
 Thermal correction to Energy=                    0.166508
 Thermal correction to Enthalpy=                  0.167452
 Thermal correction to Gibbs Free Energy=         0.126115
 Sum of electronic and zero-point Energies=           -422.968331
 Sum of electronic and thermal Energies=              -422.960277
 Sum of electronic and thermal Enthalpies=            -422.959333
 Sum of electronic and thermal Free Energies=         -423.000671

                     E (Thermal)             CV                S
                      KCal/Mol        Cal/Mol-Kelvin    Cal/Mol-Kelvin
 Total                  104.485             32.038             87.002
 Electronic               0.000              0.000              0.000
 Translational            0.889              2.981             40.409
 Rotational               0.889              2.981             28.423
 Vibrational            102.708             26.076             18.171
 Vibration     1          0.604              1.950              3.478
 Vibration     2          0.615              1.912              2.786
 Vibration     3          0.635              1.848              2.188
 Vibration     4          0.671              1.739              1.634
 Vibration     5          0.709              1.626              1.286
 Vibration     6          0.752              1.507              1.028
 Vibration     7          0.795              1.396              0.846
 Vibration     8          0.808              1.364              0.799
 Vibration     9          0.830              1.309              0.728
 Vibration    10          0.890              1.173              0.577

 Optimization completed.
    -- Stationary point found.
 Normal termination of Gaussian 09 at Mon Jan 27 18:52:28 2020.
