 Gaussian 09, Revision D.01,
 Gaussian 09:  ES64L-G09RevD.01 24-Apr-2013

 -----------------------------
 # b3lyp 6-31G(2df,p) opt Freq
 -----------------------------

 -----
 titel
 -----
 Symbolic Z-matrix:
 Charge =  0 Multiplicity = 1

 SCF Done:  E(RB3LYP) =  -423.112021914     A.U. after   12 cycles
 Optimization completed.
    -- Stationary point found.
 Normal termination of Gaussian 09 at Tue Jan 28 12:46:54 2020.

 ----------------------------------------------------------------------
 #N Geom=AllCheck Guess=TCheck SCRF=Check GenChk RB3LYP/6-31G(2df,p) Fr
 eq
 ----------------------------------------------------------------------

 Structure from the checkpoint file:  "/scratch/puck/g09_82b35fb7-b189-4dca-877f-5d127d29ebe8/Gau-10872.chk"
 -----
 titel
 -----
 Charge =  0 Multiplicity = 1

                         Standard orientation:
 ---------------------------------------------------------------------
 Center     Atomic      Atomic             Coordinates (Angstroms)
 Number     Number       Type             X           Y           Z
 ---------------------------------------------------------------------
      1          6           0        3.145114    0.104126   -0.103031
      2          8           0        1.990011   -0.687676    0.055488
      3          6           0        0.829655   -0.093886   -0.474869
      4          6           0       -0.374657   -0.974343   -0.193481
      5          6           0       -0.678492   -0.241659    1.105223
      6          6           0        0.146956    0.947781    0.468483
      7          6           0       -1.121277    1.376374   -0.325848
      8          6           0       -1.592008   -0.055783   -0.085168
      9          8           0       -2.835927   -0.595267   -0.334923
     10          1           0        3.074583    1.061649    0.434744
     11          1           0        3.984829   -0.463552    0.305008
     12          1           0        3.346014    0.321961   -1.163908
     13          1           0        1.014725    0.234726   -1.511475
     14          1           0       -0.502471   -2.026692   -0.409881
     15          1           0       -0.829458   -0.600511    2.111878
     16          1           0        0.735572    1.679298    1.016899
     17          1           0       -1.726210    2.097886    0.233957
     18          1           0       -0.985350    1.727468   -1.355780
     19          1           0       -3.476649   -0.144353    0.226188
 ---------------------------------------------------------------------

 SCF Done:  E(RB3LYP) =  -423.112021914     A.U. after    1 cycles

 The electronic state is 1-A.
 Alpha  occ. eigenvalues --  -19.14982 -19.13602 -10.24037 -10.22949 -10.22099
 Alpha  occ. eigenvalues --  -10.19434 -10.18498 -10.18467 -10.18435  -1.03797
 Alpha  occ. eigenvalues --   -1.03043  -0.91889  -0.72533  -0.71277  -0.65507
 Alpha  occ. eigenvalues --   -0.62435  -0.55941  -0.53376  -0.53084  -0.48510
 Alpha  occ. eigenvalues --   -0.47206  -0.45505  -0.43268  -0.41541  -0.40424
 Alpha  occ. eigenvalues --   -0.40260  -0.36640  -0.35126  -0.32224  -0.30719
 Alpha  occ. eigenvalues --   -0.29865  -0.26572  -0.24800  -0.23195
 Alpha virt. eigenvalues --    0.07520   0.09398   0.10903   0.12094   0.12790
 Alpha virt. eigenvalues --    0.13462   0.13992   0.15261   0.15552   0.16993
 Alpha virt. eigenvalues --    0.18029   0.19070   0.19926   0.20566   0.22308

 Mulliken charges:
               1
     1  C   -0.239737
     2  O   -0.255451
     3  C    0.166907
     4  C   -0.134535
     5  C   -0.157615
     6  C   -0.117058
     7  C   -0.305102
     8  C    0.383505
     9  O   -0.462445
    10  H    0.103515
    11  H    0.126791
    12  H    0.103979
    13  H    0.054289
    14  H    0.095759
    15  H    0.094384
    16  H    0.075362
    17  H    0.089924
    18  H    0.092310
    19  H    0.285219
 Sum of Mulliken charges =   0.00000

 Dipole moment (field-independent basis, Debye):
    X=             -0.1509    Y=              1.8446    Z=              0.7716  Tot=              2.0052
 Quadrupole moment (field-independent basis, Debye-Ang):
   XX=            -48.0261   YY=            -53.9959   ZZ=            -52.8234
   XY=             -0.4905   XZ=             -4.4074   YZ=             -0.0843

  Exact polarizability:  91.678  -0.756  69.338  -1.408  -0.381  65.987
 Approx polarizability: 116.716  -0.760 105.278   0.063   1.017 105.321

                      1                      2                      3
                      A                      A                      A
 Frequencies --    100.7326               151.1923               178.4086
 Red. masses --      2.7046                 2.4586                 1.4641
 Frc consts  --      0.0162                 0.0331                 0.0275
 IR Inten    --      2.0482                 1.9044                 0.2567

                      4                      5                      6
                      A                      A                      A
 Frequencies --    255.0835               312.2344               320.6250
 Red. masses --      2.7390                 1.6067                 2.3619
 Frc consts  --      0.1050                 0.0923                 0.1431
 IR Inten    --      6.9256                44.2154                12.9807

                      7                      8                      9
                      A                      A                      A
 Frequencies --    373.9745               418.5748               473.1416
 Red. masses --      2.5734                 2.9194                 2.3790
 Frc consts  --      0.2121                 0.3014                 0.3138
 IR Inten    --     35.6663                12.2665                 3.4068

                     10                     11                     12
                      A                      A                      A
 Frequencies --    500.4004               620.5589               755.8006
 Red. masses --      3.7015                 4.0265                 3.4335
 Frc consts  --      0.5461                 0.9136                 1.1556
 IR Inten    --      4.7509                 8.9170                 2.0103

                     13                     14                     15
                      A                      A                      A
 Frequencies --    796.1740               830.0256               850.4972
 Red. masses --      2.5283                 1.3827                 2.7887
 Frc consts  --      0.9443                 0.5613                 1.1885
 IR Inten    --      3.1192                 4.0471                 4.3605

                     16                     17                     18
                      A                      A                      A
 Frequencies --    898.9354               917.4810               932.1300
 Red. masses --      2.0247                 2.1353                 2.2870
 Frc consts  --      0.9640                 1.0590                 1.1707
 IR Inten    --      7.4685                 2.7790                16.4896

                     19                     20                     21
                      A                      A                      A
 Frequencies --    950.9543               984.4322              1025.9900
 Red. masses --      1.8465                 2.7553                 1.8949
 Frc consts  --      0.9838                 1.5732                 1.1753
 IR Inten    --      0.2018                12.0336                 1.8745

                     22                     23                     24
                      A                      A                      A
 Frequencies --   1037.7121              1056.6324              1108.8485
 Red. masses --      2.6689                 1.9584                 1.3956
 Frc consts  --      1.6933                 1.2883                 1.0110
 IR Inten    --      8.6819                 2.4114                70.6360

                     25                     26                     27
                      A                      A                      A
 Frequencies --   1122.7525              1134.9199              1151.1459
 Red. masses --      1.7701                 2.0267                 2.9314
 Frc consts  --      1.3146                 1.5381                 2.2887
 IR Inten    --      3.4989                19.6693               136.4970

                     28                     29                     30
                      A                      A                      A
 Frequencies --   1180.9463              1183.7348              1216.3759
 Red. masses --      1.6778                 1.3134                 1.6053
 Frc consts  --      1.3786                 1.0843                 1.3994
 IR Inten    --      3.7698                 5.1888                15.5096

                     31                     32                     33
                      A                      A                      A
 Frequencies --   1224.7987              1254.3634              1284.7683
 Red. masses --      1.7212                 1.7510                 1.6444
 Frc consts  --      1.5213                 1.6233                 1.5992
 IR Inten    --     41.0569                10.4503                22.0048

                     34                     35                     36
                      A                      A                      A
 Frequencies --   1295.0701              1329.9134              1393.0901
 Red. masses --      2.5926                 1.7545                 1.4022
 Frc consts  --      2.5619                 1.8284                 1.6033
 IR Inten    --      5.4231                95.7482                59.1073

                     37                     38                     39
                      A                      A                      A
 Frequencies --   1436.7823              1481.3603              1489.0201
 Red. masses --      2.7219                 1.1396                 1.0680
 Frc consts  --      3.3106                 1.4734                 1.3951
 IR Inten    --     57.8571                 2.7220                 3.3980

                     40                     41                     42
                      A                      A                      A
 Frequencies --   1505.8754              1510.1014              2956.2825
 Red. masses --      1.2456                 1.0622                 1.0799
 Frc consts  --      1.6642                 1.4272                 5.5607
 IR Inten    --      8.0399                 6.7643                51.1946

                     43                     44                     45
                      A                      A                      A
 Frequencies --   2976.0759              3020.8616              3026.0272
 Red. masses --      1.0400                 1.1020                 1.0570
 Frc consts  --      5.4270                 5.9250                 5.7028
 IR Inten    --     77.3099                52.8017                60.7658

                     46                     47                     48
                      A                      A                      A
 Frequencies --   3080.2729              3114.2296              3145.8846
 Red. masses --      1.1072                 1.0960                 1.0912
 Frc consts  --      6.1897                 6.2628                 6.3625
 IR Inten    --     34.2387                31.3213                26.9903

                     49                     50                     51
                      A                      A                      A
 Frequencies --   3209.2344              3235.2452              3794.3642
 Red. masses --      1.0918                 1.0987                 1.0659
 Frc consts  --      6.6250                 6.7758                 9.0413
 IR Inten    --      7.6786                 5.0222                22.2021

 - Thermochemistry -
 -------------------
 Temperature   298.150 Kelvin.  Pressure   1.00000 Atm.
 Atom     1 has atomic number  6 and mass  12.00000

 Molecular mass:   126.06808 amu.
 Principal axes and moments of inertia in atomic units:
                           1         2         3
     Eigenvalues --   395.237771652.056621794.89755
           X            0.99996   0.00202  -0.00898
           Y           -0.00224   0.99967  -0.02563
           Z            0.00892   0.02565   0.99963
 This molecule is an asymmetric top.
 Rotational symmetry number  1.
 Rotational temperatures (Kelvin)      0.21914     0.05243     0.04826
 Rotational constants (GHZ):           4.56622     1.09242     1.00548
 Zero-point vibrational energy     416324.6 (Joules/Mol)
                                   99.50397 (Kcal/Mol)
 Warning -- explicit consideration of  11 degrees of freedom as
           vibrations may cause significant error
 Vibrational temperatures:    144.93   217.53   256.69   367.01   449.24
          (Kelvin)            461.31   538.07   602.24   680.74   719.96
                              892.84  1087.43  1145.52  1194.22  1223.67
                             1293.37  1320.05  1341.13  1368.21  1416.38
                             1476.17  1493.03  1520.26  1595.38  1615.39
                             1632.89  1656.24  1699.12  1703.13  1750.09
                             1762.21  1804.75  1848.49  1863.31  1913.45
                             2004.34  2067.21  2131.34  2142.37  2166.62
                             2172.70  4253.43  4281.90  4346.34  4353.77
                             4431.82  4480.68  4526.22  4617.37  4654.79
                             5459.24

 Zero-point correction=                           0.158570 (Hartree/Particle)
 Thermal correction to Energy=                    0.166771
 Thermal correction to Enthalpy=                  0.167715
 Thermal correction to Gibbs Free Energy=         0.126019
 Sum of electronic and zero-point Energies=           -422.953452
 Sum of electronic and thermal Energies=              -422.945251
 Sum of electronic and thermal Enthalpies=            -422.944307
 Sum of electronic and thermal Free Energies=         -422.986003

                     E (Thermal)             CV                S
                      KCal/Mol        Cal/Mol-Kelvin    Cal/Mol-Kelvin
 Total                  104.650             32.009             87.756
 Electronic               0.000              0.000              0.000
 Translational            0.889              2.981             40.409
 Rotational               0.889              2.981             28.551
 Vibrational            102.873             26.048             18.796
 Vibration     1          0.604              1.949              3.440
 Vibration     2          0.619              1.901              2.657
 Vibration     3          0.629              1.869              2.345
 Vibration     4          0.665              1.754              1.695
 Vibration     5          0.701              1.650              1.350
 Vibration     6          0.706              1.634              1.307
 Vibration     7          0.745              1.526              1.063
 Vibration     8          0.781              1.430              0.897
 Vibration     9          0.830              1.310              0.729
 Vibration    10          0.856              1.249              0.657
 Vibration    11          0.981              0.989              0.416

 Optimization completed.
    -- Stationary point found.
 Normal termination of Gaussian 09 at Tue Jan 28 14:39:41 2020.
