 Gaussian 09, Revision D.01,
 Gaussian 09:  ES64L-G09RevD.01 24-Apr-2013

 -----------------------------
 # b3lyp 6-31G(2df,p) opt Freq
 -----------------------------

 -----
 titel
 -----
 Symbolic Z-matrix:
 Charge =  0 Multiplicity = 1

 SCF Done:  E(RB3LYP) =  -423.119921761     A.U. after   14 cycles
 SCF Done:  E(RB3LYP) =  -423.119921761     A.U. after    6 cycles
 SCF Done:  E(RB3LYP) =  -423.119921584     A.U. after    7 cycles
 SCF Done:  E(RB3LYP) =  -423.119921778     A.U. after    7 cycles
 Optimization completed.
    -- Stationary point found.
 Normal termination of Gaussian 09 at Mon Jan 27 22:09:27 2020.

 ----------------------------------------------------------------------
 #N Geom=AllCheck Guess=TCheck SCRF=Check GenChk RB3LYP/6-31G(2df,p) Fr
 eq
 ----------------------------------------------------------------------

 Structure from the checkpoint file:  "/scratch/puck/g09_0ce928f2-f71b-4661-ab6a-042496d0cb92/Gau-192437.chk"
 -----
 titel
 -----
 Charge =  0 Multiplicity = 1

                         Standard orientation:
 ---------------------------------------------------------------------
 Center     Atomic      Atomic             Coordinates (Angstroms)
 Number     Number       Type             X           Y           Z
 ---------------------------------------------------------------------
      1          8           0       -0.916888    1.895560   -0.232727
      2          6           0       -1.523070    0.793360    0.378669
      3          6           0       -1.977089   -0.383744   -0.456220
      4          8           0       -3.068113   -1.154623   -0.045697
      5          6           0       -0.730735   -0.494382    0.378240
      6          6           0        0.636926   -0.562295   -0.265779
      7          6           0        1.739006   -0.004629    0.662370
      8          6           0        3.073159   -0.114288    0.085965
      9          6           0        4.161919   -0.217955   -0.413315
     10          1           0       -1.596783    2.409374   -0.680771
     11          1           0       -2.110247    1.010383    1.271565
     12          1           0       -1.832848   -0.293673   -1.534422
     13          1           0       -3.874948   -0.676524   -0.265674
     14          1           0       -0.855622   -1.093592    1.276729
     15          1           0        0.872041   -1.599972   -0.527153
     16          1           0        0.642212    0.012628   -1.195254
     17          1           0        1.514310    1.045711    0.882180
     18          1           0        1.712325   -0.535113    1.623482
     19          1           0        5.128870   -0.303122   -0.842877
 ---------------------------------------------------------------------

 SCF Done:  E(RB3LYP) =  -423.119921778     A.U. after    1 cycles

 The electronic state is 1-A.
 Alpha  occ. eigenvalues --  -19.15097 -19.14740 -10.23452 -10.23420 -10.19883
 Alpha  occ. eigenvalues --  -10.19001 -10.18613 -10.17186 -10.16047  -1.03935
 Alpha  occ. eigenvalues --   -1.02593  -0.84756  -0.78732  -0.71715  -0.64906
 Alpha  occ. eigenvalues --   -0.61134  -0.57038  -0.53121  -0.52055  -0.51428
 Alpha  occ. eigenvalues --   -0.47743  -0.45411  -0.43585  -0.40877  -0.39500
 Alpha  occ. eigenvalues --   -0.38481  -0.37181  -0.34882  -0.32342  -0.32041
 Alpha  occ. eigenvalues --   -0.27123  -0.25499  -0.25413  -0.24242
 Alpha virt. eigenvalues --    0.05763   0.06589   0.07542   0.08148   0.10501
 Alpha virt. eigenvalues --    0.12285   0.13518   0.13965   0.15026   0.15400
 Alpha virt. eigenvalues --    0.17154   0.17984   0.20072   0.21006   0.24020

 Mulliken charges:
               1
     1  O   -0.410031
     2  C    0.029444
     3  C    0.005213
     4  O   -0.418351
     5  C   -0.046601
     6  C   -0.206203
     7  C   -0.349535
     8  C    0.291350
     9  C   -0.438259
    10  H    0.288454
    11  H    0.089125
    12  H    0.089672
    13  H    0.285130
    14  H    0.100042
    15  H    0.110619
    16  H    0.118295
    17  H    0.148189
    18  H    0.123694
    19  H    0.189752
 Sum of Mulliken charges =   0.00000

 Dipole moment (field-independent basis, Debye):
    X=             -2.4787    Y=              1.2411    Z=             -0.6177  Tot=              2.8400
 Quadrupole moment (field-independent basis, Debye-Ang):
   XX=            -45.8313   YY=            -54.9481   ZZ=            -51.3536
   XY=             -7.1409   XZ=              1.3019   YZ=             -1.3429

  Exact polarizability: 107.739  -2.639  64.618  -7.102  -0.462  63.198
 Approx polarizability: 139.901  -4.007  96.408 -15.276  -1.218  97.994

                      1                      2                      3
                      A                      A                      A
 Frequencies --     58.7854                76.3751                96.1009
 Red. masses --      4.7456                 2.5070                 3.8020
 Frc consts  --      0.0097                 0.0086                 0.0207
 IR Inten    --      0.3874                 0.5541                 1.2269

                      4                      5                      6
                      A                      A                      A
 Frequencies --    190.0043               244.4010               255.2941
 Red. masses --      3.8517                 1.8402                 2.6791
 Frc consts  --      0.0819                 0.0648                 0.1029
 IR Inten    --      1.4504                 5.8708                 6.8801

                      7                      8                      9
                      A                      A                      A
 Frequencies --    284.5155               293.5994               326.4951
 Red. masses --      1.5214                 3.5365                 1.4685
 Frc consts  --      0.0726                 0.1796                 0.0922
 IR Inten    --    101.3550                14.2809                71.1862

                     10                     11                     12
                      A                      A                      A
 Frequencies --    350.4040               365.4268               458.4176
 Red. masses --      2.9321                 2.8106                 5.2770
 Frc consts  --      0.2121                 0.2211                 0.6534
 IR Inten    --     15.7480                18.9438                 1.4216

                     13                     14                     15
                      A                      A                      A
 Frequencies --    519.3101               610.9712               617.9814
 Red. masses --      5.2206                 1.1988                 2.8220
 Frc consts  --      0.8295                 0.2637                 0.6350
 IR Inten    --      8.3316                45.7252                10.6642

                     16                     17                     18
                      A                      A                      A
 Frequencies --    632.6796               770.9787               826.7746
 Red. masses --      1.2243                 1.4070                 2.8898
 Frc consts  --      0.2887                 0.4927                 1.1639
 IR Inten    --     42.8154                 7.7775                 0.3218

                     19                     20                     21
                      A                      A                      A
 Frequencies --    888.9544               920.9479               970.0684
 Red. masses --      2.9862                 2.2679                 2.1873
 Frc consts  --      1.3904                 1.1333                 1.2127
 IR Inten    --      9.8535                 5.6080                 5.4478

                     22                     23                     24
                      A                      A                      A
 Frequencies --   1009.1288              1033.5393              1053.0931
 Red. masses --      2.3543                 2.0346                 1.8681
 Frc consts  --      1.4126                 1.2805                 1.2206
 IR Inten    --      6.0621                11.1139                 1.1448

                     25                     26                     27
                      A                      A                      A
 Frequencies --   1106.3754              1115.5413              1138.1261
 Red. masses --      1.3417                 3.2981                 1.6824
 Frc consts  --      0.9676                 2.4181                 1.2840
 IR Inten    --      0.4667                80.8048                37.5466

                     28                     29                     30
                      A                      A                      A
 Frequencies --   1165.5198              1218.7701              1221.8104
 Red. masses --      2.4818                 1.5788                 1.4785
 Frc consts  --      1.9863                 1.3817                 1.3004
 IR Inten    --     39.2243                12.2640                 6.0641

                     31                     32                     33
                      A                      A                      A
 Frequencies --   1276.2855              1285.9445              1294.7082
 Red. masses --      1.2463                 1.2553                 1.2204
 Frc consts  --      1.1961                 1.2231                 1.2053
 IR Inten    --     35.4224                 6.7422                38.6045

                     34                     35                     36
                      A                      A                      A
 Frequencies --   1318.9216              1353.8632              1361.0618
 Red. masses --      1.1559                 1.3221                 1.3790
 Frc consts  --      1.1847                 1.4277                 1.5051
 IR Inten    --     23.4286                 8.7690                 2.1005

                     37                     38                     39
                      A                      A                      A
 Frequencies --   1394.1973              1473.6529              1487.5845
 Red. masses --      1.5002                 1.1162                 2.0713
 Frc consts  --      1.7181                 1.4282                 2.7006
 IR Inten    --      2.3359                 0.3714                18.3489

                     40                     41                     42
                      A                      A                      A
 Frequencies --   1490.5285              2237.8213              3020.4794
 Red. masses --      1.1872                 5.9412                 1.0620
 Frc consts  --      1.5540                17.5297                 5.7086
 IR Inten    --      6.2916                 5.3548                14.7417

                     43                     44                     45
                      A                      A                      A
 Frequencies --   3047.1097              3063.2261              3086.6304
 Red. masses --      1.0695                 1.0902                 1.0883
 Frc consts  --      5.8507                 6.0271                 6.1088
 IR Inten    --     16.1117                 9.7380                13.3732

                     46                     47                     48
                      A                      A                      A
 Frequencies --   3096.7808              3104.8902              3148.4243
 Red. masses --      1.0865                 1.0995                 1.0880
 Frc consts  --      6.1392                 6.2448                 6.3544
 IR Inten    --     40.7801                16.0421                14.7652

                     49                     50                     51
                      A                      A                      A
 Frequencies --   3508.0457              3797.9667              3805.4126
 Red. masses --      1.1617                 1.0662                 1.0663
 Frc consts  --      8.4234                 9.0611                 9.0980
 IR Inten    --     67.4484                14.4221                23.4828

 - Thermochemistry -
 -------------------
 Temperature   298.150 Kelvin.  Pressure   1.00000 Atm.
 Atom     1 has atomic number  8 and mass  15.99491

 Molecular mass:   126.06808 amu.
 Principal axes and moments of inertia in atomic units:
                           1         2         3
     Eigenvalues --   483.456772478.173862767.75217
           X            0.99997  -0.00737  -0.00043
           Y            0.00737   0.99997   0.00020
           Z            0.00043  -0.00020   1.00000
 This molecule is an asymmetric top.
 Rotational symmetry number  1.
 Warning -- assumption of classical behavior for rotation
           may cause significant error
 Rotational temperatures (Kelvin)      0.17916     0.03495     0.03129
 Rotational constants (GHZ):           3.73299     0.72825     0.65206
 Zero-point vibrational energy     409565.0 (Joules/Mol)
                                   97.88839 (Kcal/Mol)
 Warning -- explicit consideration of  15 degrees of freedom as
           vibrations may cause significant error
 Vibrational temperatures:     84.58   109.89   138.27   273.37   351.64
          (Kelvin)            367.31   409.35   422.42   469.75   504.15
                              525.77   659.56   747.17   879.05   889.14
                              910.28  1109.27  1189.54  1279.01  1325.04
                             1395.71  1451.91  1487.03  1515.16  1591.83
                             1605.01  1637.51  1676.92  1753.54  1757.91
                             1836.29  1850.19  1862.79  1897.63  1947.90
                             1958.26  2005.94  2120.26  2140.30  2144.54
                             3219.72  4345.79  4384.11  4407.29  4440.97
                             4455.57  4467.24  4529.87  5047.29  5464.42
                             5475.13

 Zero-point correction=                           0.155995 (Hartree/Particle)
 Thermal correction to Energy=                    0.166203
 Thermal correction to Enthalpy=                  0.167147
 Thermal correction to Gibbs Free Energy=         0.120403
 Sum of electronic and zero-point Energies=           -422.963927
 Sum of electronic and thermal Energies=              -422.953719
 Sum of electronic and thermal Enthalpies=            -422.952774
 Sum of electronic and thermal Free Energies=         -422.999519

                     E (Thermal)             CV                S
                      KCal/Mol        Cal/Mol-Kelvin    Cal/Mol-Kelvin
 Total                  104.294             37.217             98.381
 Electronic               0.000              0.000              0.000
 Translational            0.889              2.981             40.409
 Rotational               0.889              2.981             29.585
 Vibrational            102.517             31.256             28.388
 Vibration     1          0.596              1.974              4.498
 Vibration     2          0.599              1.965              3.982
 Vibration     3          0.603              1.952              3.532
 Vibration     4          0.633              1.854              2.228
 Vibration     5          0.660              1.772              1.771
 Vibration     6          0.666              1.754              1.694
 Vibration     7          0.683              1.702              1.506
 Vibration     8          0.688              1.686              1.453
 Vibration     9          0.710              1.623              1.277
 Vibration    10          0.727              1.574              1.164
 Vibration    11          0.739              1.543              1.099
 Vibration    12          0.816              1.342              0.771
 Vibration    13          0.874              1.207              0.612
 Vibration    14          0.970              1.009              0.431
 Vibration    15          0.978              0.994              0.420

 Optimization completed.
    -- Stationary point found.
 Normal termination of Gaussian 09 at Mon Jan 27 22:43:11 2020.
