 Gaussian 09, Revision D.01,
 Gaussian 09:  ES64L-G09RevD.01 24-Apr-2013

 -----------------------------
 # b3lyp 6-31G(2df,p) opt Freq
 -----------------------------

 -----
 titel
 -----
 Symbolic Z-matrix:
 Charge =  0 Multiplicity = 1

 SCF Done:  E(RB3LYP) =  -423.110872995     A.U. after   14 cycles
 Optimization completed.
    -- Stationary point found.
 Normal termination of Gaussian 09 at Mon Jan 27 18:05:52 2020.

 ----------------------------------------------------------------------
 #N Geom=AllCheck Guess=TCheck SCRF=Check GenChk RB3LYP/6-31G(2df,p) Fr
 eq
 ----------------------------------------------------------------------

 Structure from the checkpoint file:  "/scratch/puck/g09_6497c114-23e8-401b-bff1-a6b694acf5e2/Gau-62728.chk"
 -----
 titel
 -----
 Charge =  0 Multiplicity = 1

                         Standard orientation:
 ---------------------------------------------------------------------
 Center     Atomic      Atomic             Coordinates (Angstroms)
 Number     Number       Type             X           Y           Z
 ---------------------------------------------------------------------
      1          6           0        2.516338   -0.814470   -0.224062
      2          6           0        1.247421   -0.061741    0.020607
      3          6           0        1.035129    1.421532    0.518144
      4          6           0       -0.317818    0.840763    0.055868
      5          6           0       -1.802691    0.911758   -0.136883
      6          6           0       -2.071007   -0.626630   -0.277082
      7          8           0       -1.016571   -1.350474    0.404700
      8          6           0       -0.046164   -0.438552    0.832405
      9          8           0        0.385451    0.258136   -1.129912
     10          1           0        3.056724   -0.965857    0.715492
     11          1           0        2.291983   -1.793673   -0.657369
     12          1           0        3.165250   -0.267436   -0.915053
     13          1           0        1.164074    1.648404    1.580091
     14          1           0        1.475310    2.171626   -0.138283
     15          1           0       -2.291501    1.330674    0.747849
     16          1           0       -2.126966    1.461657   -1.022544
     17          1           0       -3.028879   -0.919973    0.164731
     18          1           0       -2.061283   -0.913202   -1.332517
     19          1           0        0.037005   -0.409482    1.925320
 ---------------------------------------------------------------------

 SCF Done:  E(RB3LYP) =  -423.110872995     A.U. after    1 cycles

 The electronic state is 1-A.
 Alpha  occ. eigenvalues --  -19.13670 -19.12420 -10.25101 -10.24367 -10.22949
 Alpha  occ. eigenvalues --  -10.22494 -10.19902 -10.19672 -10.18218  -1.06821
 Alpha  occ. eigenvalues --   -1.01167  -0.78970  -0.77799  -0.73447  -0.68127
 Alpha  occ. eigenvalues --   -0.62048  -0.56851  -0.53060  -0.49049  -0.48268
 Alpha  occ. eigenvalues --   -0.46384  -0.45220  -0.42935  -0.42382  -0.40049
 Alpha  occ. eigenvalues --   -0.39178  -0.37705  -0.35644  -0.34063  -0.32272
 Alpha  occ. eigenvalues --   -0.31466  -0.28716  -0.24935  -0.23104
 Alpha virt. eigenvalues --    0.08184   0.09721   0.10688   0.11142   0.12797
 Alpha virt. eigenvalues --    0.13514   0.14039   0.15092   0.15714   0.16424
 Alpha virt. eigenvalues --    0.17241   0.17920   0.18539   0.19799   0.20590

 Mulliken charges:
               1
     1  C   -0.515880
     2  C    0.357839
     3  C   -0.363006
     4  C    0.392703
     5  C   -0.384923
     6  C   -0.059793
     7  O   -0.282348
     8  C    0.086839
     9  O   -0.377441
    10  H    0.126154
    11  H    0.141730
    12  H    0.131991
    13  H    0.099410
    14  H    0.114642
    15  H    0.115779
    16  H    0.123003
    17  H    0.103040
    18  H    0.121915
    19  H    0.068346
 Sum of Mulliken charges =   0.00000

 Dipole moment (field-independent basis, Debye):
    X=              0.0725    Y=              1.3971    Z=              1.2648  Tot=              1.8860
 Quadrupole moment (field-independent basis, Debye-Ang):
   XX=            -47.3053   YY=            -54.9459   ZZ=            -54.0536
   XY=             -2.1050   XZ=              1.6064   YZ=              1.3513

  Exact polarizability:  91.239   0.384  69.979   1.801   1.483  66.943
 Approx polarizability: 118.558   1.002 104.396   2.427   0.751 109.308

                      1                      2                      3
                      A                      A                      A
 Frequencies --    158.3844               190.1730               204.1877
 Red. masses --      2.3282                 1.0619                 3.0956
 Frc consts  --      0.0344                 0.0226                 0.0760
 IR Inten    --      3.4598                 0.1672                 2.0809

                      4                      5                      6
                      A                      A                      A
 Frequencies --    234.7847               321.9385               375.0990
 Red. masses --      2.1642                 4.9005                 2.5699
 Frc consts  --      0.0703                 0.2992                 0.2130
 IR Inten    --      1.5478                 2.2691                 4.8552

                      7                      8                      9
                      A                      A                      A
 Frequencies --    462.0403               503.9342               580.9254
 Red. masses --      2.8646                 2.7352                 3.8359
 Frc consts  --      0.3603                 0.4092                 0.7627
 IR Inten    --      1.6652                 1.3891                 0.9508

                     10                     11                     12
                      A                      A                      A
 Frequencies --    653.2849               692.3672               726.5893
 Red. masses --      3.5314                 3.9361                 2.9643
 Frc consts  --      0.8880                 1.1117                 0.9220
 IR Inten    --      4.7532                25.4324                 4.0918

                     13                     14                     15
                      A                      A                      A
 Frequencies --    779.0001               788.3805               844.7750
 Red. masses --      2.8707                 4.8356                 1.7729
 Frc consts  --      1.0264                 1.7708                 0.7455
 IR Inten    --     10.6045                10.3739                15.8476

                     16                     17                     18
                      A                      A                      A
 Frequencies --    882.0243               912.1616               922.8315
 Red. masses --      2.6285                 2.9959                 3.2111
 Frc consts  --      1.2048                 1.4686                 1.6112
 IR Inten    --      5.6104                 9.2782                12.9831

                     19                     20                     21
                      A                      A                      A
 Frequencies --    948.2328               997.7353              1011.2378
 Red. masses --      2.3635                 2.3934                 1.5923
 Frc consts  --      1.2521                 1.4037                 0.9594
 IR Inten    --     12.7435                15.8760                10.9660

                     22                     23                     24
                      A                      A                      A
 Frequencies --   1045.1010              1114.0857              1129.6517
 Red. masses --      1.6927                 3.1813                 1.6472
 Frc consts  --      1.0893                 2.3265                 1.2385
 IR Inten    --      9.1275                83.4373                 1.7454

                     25                     26                     27
                      A                      A                      A
 Frequencies --   1133.1168              1146.2517              1159.6540
 Red. masses --      1.7730                 1.7702                 2.1208
 Frc consts  --      1.3413                 1.3704                 1.6804
 IR Inten    --      8.7243                16.4946                18.0371

                     28                     29                     30
                      A                      A                      A
 Frequencies --   1182.3155              1213.1376              1236.8076
 Red. masses --      1.8598                 1.3066                 1.7139
 Frc consts  --      1.5318                 1.1330                 1.5447
 IR Inten    --      9.3762                 3.1121                11.4995

                     31                     32                     33
                      A                      A                      A
 Frequencies --   1245.3195              1295.8205              1338.2663
 Red. masses --      1.7990                 1.6601                 1.5020
 Frc consts  --      1.6437                 1.6424                 1.5850
 IR Inten    --     38.3591                18.0980                 3.0703

                     34                     35                     36
                      A                      A                      A
 Frequencies --   1386.3238              1398.7332              1415.1600
 Red. masses --      1.5420                 1.3377                 1.7680
 Frc consts  --      1.7461                 1.5420                 2.0861
 IR Inten    --      5.7003                 7.7772                 7.4123

                     37                     38                     39
                      A                      A                      A
 Frequencies --   1475.6267              1476.5088              1488.3000
 Red. masses --      1.0507                 1.1109                 1.0584
 Frc consts  --      1.3479                 1.4270                 1.3813
 IR Inten    --      3.3510                 4.1222                 4.9604

                     40                     41                     42
                      A                      A                      A
 Frequencies --   1493.1083              1511.8036              3032.3508
 Red. masses --      1.3491                 1.1135                 1.0827
 Frc consts  --      1.7720                 1.4994                 5.8658
 IR Inten    --      5.2389                 0.6632                45.8663

                     43                     44                     45
                      A                      A                      A
 Frequencies --   3039.3171              3045.6985              3062.9751
 Red. masses --      1.0351                 1.0584                 1.0605
 Frc consts  --      5.6337                 5.7845                 5.8620
 IR Inten    --     20.9786                56.1142                34.7277

                     46                     47                     48
                      A                      A                      A
 Frequencies --   3065.2509              3090.9760              3113.0454
 Red. masses --      1.0614                 1.1071                 1.1014
 Frc consts  --      5.8759                 6.2323                 6.2890
 IR Inten    --     31.0924                25.5259                12.1700

                     49                     50                     51
                      A                      A                      A
 Frequencies --   3116.9528              3125.6281              3154.7762
 Red. masses --      1.1014                 1.1051                 1.1083
 Frc consts  --      6.3049                 6.3610                 6.4990
 IR Inten    --     10.5080                18.0970                18.7381

 - Thermochemistry -
 -------------------
 Temperature   298.150 Kelvin.  Pressure   1.00000 Atm.
 Atom     1 has atomic number  6 and mass  12.00000

 Molecular mass:   126.06808 amu.
 Principal axes and moments of inertia in atomic units:
                           1         2         3
     Eigenvalues --   547.196411134.483651340.95244
           X            0.99961  -0.02636   0.00895
           Y            0.02590   0.99852   0.04772
           Z           -0.01019  -0.04747   0.99882
 This molecule is an asymmetric top.
 Rotational symmetry number  1.
 Warning -- assumption of classical behavior for rotation
           may cause significant error
 Rotational temperatures (Kelvin)      0.15829     0.07635     0.06459
 Rotational constants (GHZ):           3.29816     1.59080     1.34587
 Zero-point vibrational energy     418227.3 (Joules/Mol)
                                   99.95873 (Kcal/Mol)
 Warning -- explicit consideration of   9 degrees of freedom as
           vibrations may cause significant error
 Vibrational temperatures:    227.88   273.62   293.78   337.80   463.20
          (Kelvin)            539.68   664.77   725.05   835.82   939.93
                              996.16  1045.40  1120.81  1134.30  1215.44
                             1269.03  1312.40  1327.75  1364.29  1435.52
                             1454.94  1503.67  1602.92  1625.31  1630.30
                             1649.20  1668.48  1701.09  1745.43  1779.49
                             1791.73  1864.39  1925.46  1994.61  2012.46
                             2036.10  2123.10  2124.36  2141.33  2148.25
                             2175.15  4362.87  4372.89  4382.08  4406.93
                             4410.21  4447.22  4478.97  4484.59  4497.08
                             4539.01

 Zero-point correction=                           0.159294 (Hartree/Particle)
 Thermal correction to Energy=                    0.166899
 Thermal correction to Enthalpy=                  0.167843
 Thermal correction to Gibbs Free Energy=         0.127669
 Sum of electronic and zero-point Energies=           -422.951579
 Sum of electronic and thermal Energies=              -422.943974
 Sum of electronic and thermal Enthalpies=            -422.943030
 Sum of electronic and thermal Free Energies=         -422.983204

                     E (Thermal)             CV                S
                      KCal/Mol        Cal/Mol-Kelvin    Cal/Mol-Kelvin
 Total                  104.731             30.617             84.554
 Electronic               0.000              0.000              0.000
 Translational            0.889              2.981             40.409
 Rotational               0.889              2.981             28.211
 Vibrational            102.953             24.655             15.934
 Vibration     1          0.621              1.893              2.569
 Vibration     2          0.633              1.853              2.226
 Vibration     3          0.640              1.834              2.095
 Vibration     4          0.655              1.788              1.842
 Vibration     5          0.707              1.631              1.300
 Vibration     6          0.746              1.523              1.059
 Vibration     7          0.820              1.334              0.760
 Vibration     8          0.859              1.241              0.648
 Vibration     9          0.938              1.073              0.484

 Normal termination of Gaussian 09 at Mon Jan 27 18:50:39 2020.
