 Gaussian 09, Revision D.01,
 Gaussian 09:  ES64L-G09RevD.01 24-Apr-2013

 -----------------------------
 # b3lyp 6-31G(2df,p) opt Freq
 -----------------------------

 -----
 titel
 -----
 Symbolic Z-matrix:
 Charge =  0 Multiplicity = 1

 SCF Done:  E(RB3LYP) =  -423.157972829     A.U. after   14 cycles
 Optimization completed.
    -- Stationary point found.
 Normal termination of Gaussian 09 at Mon Jan 27 13:22:58 2020.

 ----------------------------------------------------------------------
 #N Geom=AllCheck Guess=TCheck SCRF=Check GenChk RB3LYP/6-31G(2df,p) Fr
 eq
 ----------------------------------------------------------------------

 Structure from the checkpoint file:  "/scratch/puck/g09_4343e3a4-8473-4130-870c-796c4ee10aca/Gau-75845.chk"
 -----
 titel
 -----
 Charge =  0 Multiplicity = 1

                         Standard orientation:
 ---------------------------------------------------------------------
 Center     Atomic      Atomic             Coordinates (Angstroms)
 Number     Number       Type             X           Y           Z
 ---------------------------------------------------------------------
      1          8           0       -2.636773   -1.348342   -0.501802
      2          6           0       -1.625688   -1.274814    0.152085
      3          6           0       -0.979333    0.014042    0.576044
      4          6           0       -1.636167    1.351682    0.165469
      5          6           0       -0.239025    1.882569   -0.251912
      6          6           0        0.299925    0.422831   -0.250473
      7          6           0        1.641077    0.144608    0.358424
      8          6           0        2.826083   -0.176028   -0.448800
      9          8           0        2.120337   -1.200750    0.252162
     10          1           0       -1.070924   -2.191318    0.455049
     11          1           0       -0.729522   -0.040440    1.642339
     12          1           0       -2.305514    1.200034   -0.684119
     13          1           0       -2.171127    1.902248    0.941073
     14          1           0       -0.161632    2.435045   -1.190587
     15          1           0        0.226197    2.478278    0.539980
     16          1           0        0.255949   -0.017361   -1.251552
     17          1           0        1.805148    0.592312    1.341702
     18          1           0        2.741663   -0.208962   -1.534372
     19          1           0        3.820018    0.053562   -0.067417
 ---------------------------------------------------------------------

 SCF Done:  E(RB3LYP) =  -423.157972829     A.U. after    1 cycles

 The electronic state is 1-A.
 Alpha  occ. eigenvalues --  -19.15733 -19.13729 -10.26669 -10.24564 -10.24102
 Alpha  occ. eigenvalues --  -10.20820 -10.20062 -10.19502 -10.18792  -1.07693
 Alpha  occ. eigenvalues --   -1.04302  -0.86112  -0.71808  -0.70525  -0.66418
 Alpha  occ. eigenvalues --   -0.61599  -0.59027  -0.55317  -0.50916  -0.50203
 Alpha  occ. eigenvalues --   -0.48214  -0.45201  -0.43464  -0.41707  -0.41266
 Alpha  occ. eigenvalues --   -0.38820  -0.38186  -0.36026  -0.34193  -0.32950
 Alpha  occ. eigenvalues --   -0.32743  -0.29778  -0.27334  -0.24745
 Alpha virt. eigenvalues --   -0.02045   0.07904   0.08435   0.09092   0.10683
 Alpha virt. eigenvalues --    0.11392   0.12931   0.13991   0.14843   0.16489
 Alpha virt. eigenvalues --    0.17182   0.17816   0.18426   0.19013   0.20360

 Mulliken charges:
               1
     1  O   -0.247843
     2  C    0.131887
     3  C   -0.079332
     4  C   -0.242508
     5  C   -0.250118
     6  C   -0.002772
     7  C    0.071588
     8  C   -0.183435
     9  O   -0.238176
    10  H    0.089747
    11  H    0.089312
    12  H    0.129590
    13  H    0.105650
    14  H    0.108731
    15  H    0.104466
    16  H    0.088403
    17  H    0.090012
    18  H    0.116558
    19  H    0.118238
 Sum of Mulliken charges =   0.00000

 Dipole moment (field-independent basis, Debye):
    X=              2.1712    Y=              2.4844    Z=              0.6846  Tot=              3.3697
 Quadrupole moment (field-independent basis, Debye-Ang):
   XX=            -59.0331   YY=            -56.1954   ZZ=            -50.8846
   XY=             -0.3993   XZ=             -4.2690   YZ=             -0.5454

  Exact polarizability:  91.319  -0.469  74.755  -0.270   0.551  65.084
 Approx polarizability: 122.997   1.282 107.864   3.913   1.007 103.443

                      1                      2                      3
                      A                      A                      A
 Frequencies --     51.2738                68.9983                80.5494
 Red. masses --      4.6545                 3.4931                 3.2073
 Frc consts  --      0.0072                 0.0098                 0.0123
 IR Inten    --      0.3400                 8.4714                 2.6317

                      4                      5                      6
                      A                      A                      A
 Frequencies --    159.9564               224.9432               250.9724
 Red. masses --      2.7030                 2.3755                 3.7029
 Frc consts  --      0.0407                 0.0708                 0.1374
 IR Inten    --      2.2478                 2.0749                 6.3648

                      7                      8                      9
                      A                      A                      A
 Frequencies --    342.5039               367.0899               457.7133
 Red. masses --      3.1669                 3.8016                 3.3855
 Frc consts  --      0.2189                 0.3018                 0.4179
 IR Inten    --      1.7629                 1.1645                 5.1725

                     10                     11                     12
                      A                      A                      A
 Frequencies --    609.0803               679.9626               784.9043
 Red. masses --      2.3038                 2.7011                 2.0224
 Frc consts  --      0.5035                 0.7358                 0.7341
 IR Inten    --      5.0637                16.7960                 7.9720

                     13                     14                     15
                      A                      A                      A
 Frequencies --    801.3760               856.9421               888.3267
 Red. masses --      1.5196                 6.9126                 2.5061
 Frc consts  --      0.5750                 2.9909                 1.1652
 IR Inten    --      3.8247                19.1294                17.0559

                     16                     17                     18
                      A                      A                      A
 Frequencies --    922.0951               927.5594               955.4057
 Red. masses --      1.8086                 2.0490                 2.1403
 Frc consts  --      0.9060                 1.0387                 1.1511
 IR Inten    --      4.2577                 5.2985                 2.0707

                     19                     20                     21
                      A                      A                      A
 Frequencies --    966.3081               991.9970              1048.1411
 Red. masses --      1.8103                 2.1061                 1.5676
 Frc consts  --      0.9959                 1.2211                 1.0147
 IR Inten    --     12.7258                 4.4023                 6.6077

                     22                     23                     24
                      A                      A                      A
 Frequencies --   1090.5468              1102.1842              1135.9288
 Red. masses --      2.7838                 1.3836                 2.0058
 Frc consts  --      1.9507                 0.9903                 1.5249
 IR Inten    --      1.7111                 2.9506                13.6683

                     25                     26                     27
                      A                      A                      A
 Frequencies --   1153.7723              1162.4148              1178.6867
 Red. masses --      1.5683                 1.4652                 1.5545
 Frc consts  --      1.2300                 1.1664                 1.2724
 IR Inten    --      1.2856                 7.1330                 3.8002

                     28                     29                     30
                      A                      A                      A
 Frequencies --   1224.4523              1224.7917              1256.4030
 Red. masses --      1.4034                 1.3077                 1.3137
 Frc consts  --      1.2397                 1.1558                 1.2218
 IR Inten    --      3.1178                 0.8670                 1.5503

                     31                     32                     33
                      A                      A                      A
 Frequencies --   1264.0775              1268.3304              1291.3993
 Red. masses --      1.3912                 1.3403                 1.6493
 Frc consts  --      1.3098                 1.2703                 1.6206
 IR Inten    --      0.0373                 1.3270                 6.3644

                     34                     35                     36
                      A                      A                      A
 Frequencies --   1321.7122              1355.3778              1420.3310
 Red. masses --      1.3806                 1.7474                 1.2048
 Frc consts  --      1.4209                 1.8913                 1.4320
 IR Inten    --     10.9371                13.0625                 7.6934

                     37                     38                     39
                      A                      A                      A
 Frequencies --   1452.1318              1485.1666              1501.4188
 Red. masses --      1.7304                 1.0838                 1.1315
 Frc consts  --      2.1499                 1.4085                 1.5028
 IR Inten    --      9.6014                 1.7846                 1.8078

                     40                     41                     42
                      A                      A                      A
 Frequencies --   1528.4284              1819.0732              2882.1023
 Red. masses --      1.3560                10.1478                 1.0831
 Frc consts  --      1.8663                19.7844                 5.3006
 IR Inten    --      2.9975               169.5263                99.6200

                     43                     44                     45
                      A                      A                      A
 Frequencies --   3042.2061              3053.3417              3060.2572
 Red. masses --      1.0835                 1.0634                 1.0819
 Frc consts  --      5.9080                 5.8413                 5.9696
 IR Inten    --     14.2031                25.4839                 4.9705

                     46                     47                     48
                      A                      A                      A
 Frequencies --   3077.7616              3080.7465              3084.5583
 Red. masses --      1.0591                 1.0662                 1.0713
 Frc consts  --      5.9108                 5.9622                 6.0053
 IR Inten    --     26.6595                36.5544                23.0302

                     49                     50                     51
                      A                      A                      A
 Frequencies --   3109.7337              3133.7999              3169.7487
 Red. masses --      1.1053                 1.1076                 1.1196
 Frc consts  --      6.2977                 6.4089                 6.6276
 IR Inten    --     20.1676                24.3359                26.3641

 - Thermochemistry -
 -------------------
 Temperature   298.150 Kelvin.  Pressure   1.00000 Atm.
 Atom     1 has atomic number  8 and mass  15.99491

 Molecular mass:   126.06808 amu.
 Principal axes and moments of inertia in atomic units:
                           1         2         3
     Eigenvalues --   670.905041616.931322096.10949
           X            0.99986  -0.01329  -0.01038
           Y            0.01326   0.99991  -0.00350
           Z            0.01042   0.00337   0.99994
 This molecule is an asymmetric top.
 Rotational symmetry number  1.
 Warning -- assumption of classical behavior for rotation
           may cause significant error
 Rotational temperatures (Kelvin)      0.12910     0.05357     0.04132
 Rotational constants (GHZ):           2.69001     1.11615     0.86100
 Zero-point vibrational energy     414906.7 (Joules/Mol)
                                   99.16508 (Kcal/Mol)
 Warning -- explicit consideration of  10 degrees of freedom as
           vibrations may cause significant error
 Vibrational temperatures:     73.77    99.27   115.89   230.14   323.64
          (Kelvin)            361.09   492.79   528.16   658.55   876.33
                              978.31  1129.30  1153.00  1232.95  1278.10
                             1326.69  1334.55  1374.61  1390.30  1427.26
                             1508.04  1569.05  1585.80  1634.35  1660.02
                             1672.45  1695.87  1761.71  1762.20  1807.68
                             1818.72  1824.84  1858.03  1901.65  1950.08
                             2043.54  2089.29  2136.82  2160.20  2199.06
                             2617.24  4146.70  4377.05  4393.07  4403.02
                             4428.21  4432.50  4437.99  4474.21  4508.83
                             4560.56

 Zero-point correction=                           0.158030 (Hartree/Particle)
 Thermal correction to Energy=                    0.166935
 Thermal correction to Enthalpy=                  0.167879
 Thermal correction to Gibbs Free Energy=         0.122984
 Sum of electronic and zero-point Energies=           -422.999943
 Sum of electronic and thermal Energies=              -422.991038
 Sum of electronic and thermal Enthalpies=            -422.990094
 Sum of electronic and thermal Free Energies=         -423.034989

                     E (Thermal)             CV                S
                      KCal/Mol        Cal/Mol-Kelvin    Cal/Mol-Kelvin
 Total                  104.753             31.806             94.490
 Electronic               0.000              0.000              0.000
 Translational            0.889              2.981             40.409
 Rotational               0.889              2.981             29.210
 Vibrational            102.976             25.844             24.871
 Vibration     1          0.596              1.977              4.768
 Vibration     2          0.598              1.969              4.182
 Vibration     3          0.600              1.962              3.877
 Vibration     4          0.622              1.891              2.550
 Vibration     5          0.650              1.803              1.919
 Vibration     6          0.663              1.761              1.724
 Vibration     7          0.722              1.591              1.200
 Vibration     8          0.740              1.540              1.092
 Vibration     9          0.816              1.344              0.773
 Vibration    10          0.968              1.013              0.434

 Normal termination of Gaussian 09 at Mon Jan 27 14:06:03 2020.
