 Gaussian 09, Revision D.01,
 Gaussian 09:  ES64L-G09RevD.01 24-Apr-2013

 -----------------------------
 # b3lyp 6-31G(2df,p) opt Freq
 -----------------------------

 -----
 titel
 -----
 Symbolic Z-matrix:
 Charge =  0 Multiplicity = 1

 SCF Done:  E(RB3LYP) =  -423.126942585     A.U. after   13 cycles
 Optimization completed.
    -- Stationary point found.
 Normal termination of Gaussian 09 at Mon Jan 27 11:18:20 2020.

 ----------------------------------------------------------------------
 #N Geom=AllCheck Guess=TCheck SCRF=Check GenChk RB3LYP/6-31G(2df,p) Fr
 eq
 ----------------------------------------------------------------------

 Structure from the checkpoint file:  "/scratch/puck/g09_d41d7792-35b7-47f7-a57e-28d6d2c7b854/Gau-41922.chk"
 -----
 titel
 -----
 Charge =  0 Multiplicity = 1

                         Standard orientation:
 ---------------------------------------------------------------------
 Center     Atomic      Atomic             Coordinates (Angstroms)
 Number     Number       Type             X           Y           Z
 ---------------------------------------------------------------------
      1          6           0       -1.892375   -0.559989   -0.724903
      2          6           0       -1.742322    0.772521    0.107503
      3          6           0       -1.156609   -0.097582    1.248770
      4          6           0       -0.489273   -0.585356   -0.088298
      5          8           0        0.564427   -1.466726   -0.239305
      6          6           0        1.745470   -0.827441    0.254488
      7          8           0        1.986303    0.442539   -0.285464
      8          6           0        0.985218    1.421690    0.057907
      9          6           0       -0.314943    0.886080   -0.522630
     10          1           0       -2.628595   -1.276861   -0.352917
     11          1           0       -1.932499   -0.455629   -1.811824
     12          1           0       -2.494919    1.551760    0.203092
     13          1           0       -0.538364    0.401271    1.994501
     14          1           0       -1.844440   -0.802513    1.721501
     15          1           0        1.680909   -0.767288    1.354869
     16          1           0        2.581169   -1.461882   -0.043404
     17          1           0        0.961015    1.567321    1.145972
     18          1           0        1.316776    2.355168   -0.402327
     19          1           0       -0.317886    1.022611   -1.608334
 ---------------------------------------------------------------------

 SCF Done:  E(RB3LYP) =  -423.126942585     A.U. after    1 cycles

 The electronic state is 1-A.
 Alpha  occ. eigenvalues --  -19.14905 -19.14741 -10.27513 -10.24678 -10.23281
 Alpha  occ. eigenvalues --  -10.21145 -10.19355 -10.18869 -10.18769  -1.07348
 Alpha  occ. eigenvalues --   -1.00944  -0.91453  -0.74395  -0.68241  -0.67328
 Alpha  occ. eigenvalues --   -0.62672  -0.59656  -0.53611  -0.52454  -0.50011
 Alpha  occ. eigenvalues --   -0.48307  -0.46818  -0.43061  -0.42101  -0.41097
 Alpha  occ. eigenvalues --   -0.36853  -0.36368  -0.34791  -0.32971  -0.32346
 Alpha  occ. eigenvalues --   -0.31378  -0.29563  -0.26332  -0.25554
 Alpha virt. eigenvalues --    0.08882   0.09977   0.11189   0.12006   0.12839
 Alpha virt. eigenvalues --    0.13972   0.14946   0.15249   0.15638   0.16677
 Alpha virt. eigenvalues --    0.17631   0.18275   0.20224   0.20853   0.22257

 Mulliken charges:
               1
     1  C   -0.293947
     2  C   -0.102475
     3  C   -0.301163
     4  C    0.442981
     5  O   -0.302421
     6  C   -0.004227
     7  O   -0.242485
     8  C   -0.162844
     9  C    0.000592
    10  H    0.096760
    11  H    0.100363
    12  H    0.083693
    13  H    0.095007
    14  H    0.096118
    15  H    0.085227
    16  H    0.121193
    17  H    0.100115
    18  H    0.111764
    19  H    0.075750
 Sum of Mulliken charges =   0.00000

 Dipole moment (field-independent basis, Debye):
    X=             -0.9500    Y=              1.0238    Z=              0.9572  Tot=              1.6932
 Quadrupole moment (field-independent basis, Debye-Ang):
   XX=            -53.3858   YY=            -53.8221   ZZ=            -52.7529
   XY=             -0.9444   XZ=              1.9134   YZ=             -0.7828

  Exact polarizability:  83.753   0.986  70.832   1.120  -1.091  69.006
 Approx polarizability: 114.943   0.438 108.346  -0.914  -0.449 106.960

                      1                      2                      3
                      A                      A                      A
 Frequencies --    177.5806               278.6165               385.4763
 Red. masses --      3.4139                 2.6650                 3.2272
 Frc consts  --      0.0634                 0.1219                 0.2825
 IR Inten    --      1.8244                 1.6577                 3.9063

                      4                      5                      6
                      A                      A                      A
 Frequencies --    388.3564               411.4065               462.5113
 Red. masses --      2.9376                 2.8051                 3.8755
 Frc consts  --      0.2610                 0.2797                 0.4884
 IR Inten    --      2.4798                 7.1804                 1.5953

                      7                      8                      9
                      A                      A                      A
 Frequencies --    560.9424               574.8558               616.1289
 Red. masses --      3.0650                 2.3310                 3.3880
 Frc consts  --      0.5682                 0.4539                 0.7578
 IR Inten    --      1.1477                 0.5194                 8.6164

                     10                     11                     12
                      A                      A                      A
 Frequencies --    698.0998               765.3581               829.3309
 Red. masses --      3.6767                 2.8763                 3.7157
 Frc consts  --      1.0557                 0.9927                 1.5057
 IR Inten    --      5.2265                 1.1612                 9.9854

                     13                     14                     15
                      A                      A                      A
 Frequencies --    851.1167               907.9189               919.8583
 Red. masses --      2.7205                 2.4430                 3.7713
 Frc consts  --      1.1611                 1.1865                 1.8801
 IR Inten    --      0.9175                 0.9205                26.4088

                     16                     17                     18
                      A                      A                      A
 Frequencies --    951.2404               966.6366               974.8765
 Red. masses --      2.0518                 2.0576                 2.3308
 Frc consts  --      1.0939                 1.1327                 1.3052
 IR Inten    --      2.2461                51.5597                89.1443

                     19                     20                     21
                      A                      A                      A
 Frequencies --    992.9086              1047.5665              1057.9067
 Red. masses --      1.3857                 1.6255                 1.4026
 Frc consts  --      0.8049                 1.0510                 0.9249
 IR Inten    --      6.7470                 4.0654                 3.4704

                     22                     23                     24
                      A                      A                      A
 Frequencies --   1074.2802              1105.4656              1127.0944
 Red. masses --      3.8252                 1.8835                 1.5604
 Frc consts  --      2.6010                 1.3561                 1.1679
 IR Inten    --     52.3506                 9.3435                 2.8693

                     25                     26                     27
                      A                      A                      A
 Frequencies --   1141.0432              1150.8393              1167.7536
 Red. masses --      1.7759                 2.2262                 1.6351
 Frc consts  --      1.3623                 1.7372                 1.3137
 IR Inten    --      2.8024                15.7074                 1.8238

                     28                     29                     30
                      A                      A                      A
 Frequencies --   1182.7268              1217.4286              1224.7452
 Red. masses --      1.5174                 1.7584                 2.1153
 Frc consts  --      1.2506                 1.5355                 1.8695
 IR Inten    --      3.8894                 5.3184                35.2552

                     31                     32                     33
                      A                      A                      A
 Frequencies --   1236.2366              1260.1420              1298.8998
 Red. masses --      1.6921                 1.3433                 2.7216
 Frc consts  --      1.5236                 1.2568                 2.7054
 IR Inten    --      7.1544                 3.4120               162.9191

                     34                     35                     36
                      A                      A                      A
 Frequencies --   1321.4874              1372.4105              1419.9289
 Red. masses --      1.1682                 1.3542                 1.3270
 Frc consts  --      1.2020                 1.5028                 1.5763
 IR Inten    --     11.4993                43.3084                 1.2147

                     37                     38                     39
                      A                      A                      A
 Frequencies --   1446.7031              1490.5321              1502.3044
 Red. masses --      1.2972                 1.0957                 1.0954
 Frc consts  --      1.5996                 1.4342                 1.4567
 IR Inten    --     15.6323                 1.5398                 0.0651

                     40                     41                     42
                      A                      A                      A
 Frequencies --   1513.8739              1549.4070              2952.5106
 Red. masses --      1.1204                 1.1893                 1.0698
 Frc consts  --      1.5129                 1.6821                 5.4944
 IR Inten    --      5.6156                13.3870                66.6210

                     43                     44                     45
                      A                      A                      A
 Frequencies --   3018.8546              3055.4855              3061.4986
 Red. masses --      1.0670                 1.0613                 1.0758
 Frc consts  --      5.7295                 5.8376                 5.9407
 IR Inten    --     32.0368                21.5355                56.1106

                     46                     47                     48
                      A                      A                      A
 Frequencies --   3074.9329              3102.2959              3125.6935
 Red. masses --      1.0582                 1.0980                 1.0950
 Frc consts  --      5.8953                 6.2259                 6.3033
 IR Inten    --     25.2399                39.2961                33.5273

                     49                     50                     51
                      A                      A                      A
 Frequencies --   3126.9166              3140.7459              3143.4920
 Red. masses --      1.1116                 1.1050                 1.0951
 Frc consts  --      6.4036                 6.4221                 6.3755
 IR Inten    --     37.7204                39.5292                34.4127

 - Thermochemistry -
 -------------------
 Temperature   298.150 Kelvin.  Pressure   1.00000 Atm.
 Atom     1 has atomic number  6 and mass  12.00000

 Molecular mass:   126.06808 amu.
 Principal axes and moments of inertia in atomic units:
                           1         2         3
     Eigenvalues --   569.252201060.077991287.24412
           X            0.99988   0.00597   0.01408
           Y           -0.00581   0.99992  -0.01112
           Z           -0.01415   0.01104   0.99984
 This molecule is an asymmetric top.
 Rotational symmetry number  1.
 Warning -- assumption of classical behavior for rotation
           may cause significant error
 Rotational temperatures (Kelvin)      0.15215     0.08171     0.06729
 Rotational constants (GHZ):           3.17037     1.70246     1.40202
 Zero-point vibrational energy     427212.9 (Joules/Mol)
                                  102.10634 (Kcal/Mol)
 Warning -- explicit consideration of   9 degrees of freedom as
           vibrations may cause significant error
 Vibrational temperatures:    255.50   400.87   554.61   558.76   591.92
          (Kelvin)            665.45   807.07   827.09   886.47  1004.41
                             1101.18  1193.22  1224.57  1306.29  1323.47
                             1368.62  1390.77  1402.63  1428.57  1507.21
                             1522.09  1545.65  1590.52  1621.64  1641.70
                             1655.80  1680.13  1701.68  1751.61  1762.13
                             1778.67  1813.06  1868.82  1901.32  1974.59
                             2042.96  2081.48  2144.54  2161.48  2178.12
                             2229.25  4248.00  4343.45  4396.16  4404.81
                             4424.14  4463.51  4497.17  4498.93  4518.83
                             4522.78

 Zero-point correction=                           0.162717 (Hartree/Particle)
 Thermal correction to Energy=                    0.169236
 Thermal correction to Enthalpy=                  0.170181
 Thermal correction to Gibbs Free Energy=         0.132170
 Sum of electronic and zero-point Energies=           -422.964226
 Sum of electronic and thermal Energies=              -422.957706
 Sum of electronic and thermal Enthalpies=            -422.956762
 Sum of electronic and thermal Free Energies=         -422.994773

                     E (Thermal)             CV                S
                      KCal/Mol        Cal/Mol-Kelvin    Cal/Mol-Kelvin
 Total                  106.197             27.862             80.000
 Electronic               0.000              0.000              0.000
 Translational            0.889              2.981             40.409
 Rotational               0.889              2.981             28.143
 Vibrational            104.420             21.900             11.449
 Vibration     1          0.628              1.870              2.354
 Vibration     2          0.679              1.713              1.542
 Vibration     3          0.754              1.501              1.018
 Vibration     4          0.757              1.495              1.006
 Vibration     5          0.775              1.445              0.922
 Vibration     6          0.820              1.333              0.759
 Vibration     7          0.917              1.116              0.522
 Vibration     8          0.931              1.086              0.495
 Vibration     9          0.976              0.998              0.423

 Optimization completed.
    -- Stationary point found.
 Normal termination of Gaussian 09 at Mon Jan 27 12:07:06 2020.
