 Gaussian 09, Revision D.01,
 Gaussian 09:  ES64L-G09RevD.01 24-Apr-2013

 -----------------------------
 # b3lyp 6-31G(2df,p) opt Freq
 -----------------------------

 -----
 titel
 -----
 Symbolic Z-matrix:
 Charge =  0 Multiplicity = 1

 SCF Done:  E(RB3LYP) =  -423.180285381     A.U. after   14 cycles
 Optimization completed.
    -- Stationary point found.
 Normal termination of Gaussian 09 at Tue Jan 28 02:50:53 2020.

 ----------------------------------------------------------------------
 #N Geom=AllCheck Guess=TCheck SCRF=Check GenChk RB3LYP/6-31G(2df,p) Fr
 eq
 ----------------------------------------------------------------------

 Structure from the checkpoint file:  "/scratch/puck/g09_0c50e67f-fe6b-487f-84b8-c61b2c0692e3/Gau-113525.chk"
 -----
 titel
 -----
 Charge =  0 Multiplicity = 1

                         Standard orientation:
 ---------------------------------------------------------------------
 Center     Atomic      Atomic             Coordinates (Angstroms)
 Number     Number       Type             X           Y           Z
 ---------------------------------------------------------------------
      1          6           0        2.643627   -0.432161    0.089942
      2          6           0        1.209030   -0.462126    0.608234
      3          6           0        0.319102   -1.555195   -0.059866
      4          6           0       -0.517574   -0.471228   -0.820012
      5          6           0       -1.762960   -0.086719   -0.029155
      6          8           0       -2.912493   -0.419359   -0.076620
      7          6           0       -0.994663    0.936386    0.829853
      8          6           0        0.283895    0.634877    0.006651
      9          8           0        0.832836    1.802007   -0.519593
     10          1           0        3.198418   -1.308058    0.440776
     11          1           0        2.679692   -0.451415   -1.007501
     12          1           0        3.174355    0.461670    0.433590
     13          1           0        1.220521   -0.478503    1.703313
     14          1           0        0.871745   -2.212735   -0.734763
     15          1           0       -0.259180   -2.180695    0.624089
     16          1           0       -0.583327   -0.551902   -1.905350
     17          1           0       -1.350489    1.955504    0.649360
     18          1           0       -0.965063    0.754910    1.907834
     19          1           0        1.567844    1.567045   -1.095522
 ---------------------------------------------------------------------

 SCF Done:  E(RB3LYP) =  -423.180285381     A.U. after    1 cycles

 The electronic state is 1-A.
 Alpha  occ. eigenvalues --  -19.15355 -19.13146 -10.26559 -10.24763 -10.19835
 Alpha  occ. eigenvalues --  -10.19787 -10.19186 -10.19039 -10.18791  -1.04255
 Alpha  occ. eigenvalues --   -1.03715  -0.87353  -0.77803  -0.71814  -0.65513
 Alpha  occ. eigenvalues --   -0.62593  -0.57594  -0.52524  -0.51257  -0.47908
 Alpha  occ. eigenvalues --   -0.46503  -0.43372  -0.42057  -0.41733  -0.40454
 Alpha  occ. eigenvalues --   -0.40184  -0.39136  -0.36863  -0.35976  -0.34217
 Alpha  occ. eigenvalues --   -0.32540  -0.29310  -0.26227  -0.23541
 Alpha virt. eigenvalues --   -0.01753   0.05620   0.09473   0.10267   0.11103
 Alpha virt. eigenvalues --    0.12595   0.14086   0.14728   0.16007   0.16519
 Alpha virt. eigenvalues --    0.16915   0.17663   0.19361   0.19628   0.22949

 Mulliken charges:
               1
     1  C   -0.434122
     2  C   -0.034569
     3  C   -0.250587
     4  C   -0.242594
     5  C    0.425394
     6  O   -0.307058
     7  C   -0.401316
     8  C    0.408532
     9  O   -0.470757
    10  H    0.126440
    11  H    0.108641
    12  H    0.128310
    13  H    0.073113
    14  H    0.112359
    15  H    0.116935
    16  H    0.088306
    17  H    0.145629
    18  H    0.123283
    19  H    0.284061
 Sum of Mulliken charges =   0.00000

 Dipole moment (field-independent basis, Debye):
    X=              3.6395    Y=             -0.4901    Z=             -0.1486  Tot=              3.6754
 Quadrupole moment (field-independent basis, Debye-Ang):
   XX=            -61.1713   YY=            -55.1352   ZZ=            -50.0305
   XY=             -2.8071   XZ=             -2.2143   YZ=             -0.3237

  Exact polarizability:  88.645  -0.612  72.001  -1.090   2.833  66.050
 Approx polarizability: 123.004   3.470 107.483  -1.215   3.651 102.204

                      1                      2                      3
                      A                      A                      A
 Frequencies --     44.6932               131.2166               231.6998
 Red. masses --      3.4541                 3.6374                 2.8653
 Frc consts  --      0.0041                 0.0369                 0.0906
 IR Inten    --      1.9048                 1.3368                 0.6639

                      4                      5                      6
                      A                      A                      A
 Frequencies --    253.5930               302.5821               324.7794
 Red. masses --      1.0666                 1.7254                 2.1208
 Frc consts  --      0.0404                 0.0931                 0.1318
 IR Inten    --      4.7119                38.3854                 1.3461

                      7                      8                      9
                      A                      A                      A
 Frequencies --    358.1009               394.5694               407.1942
 Red. masses --      1.8517                 2.8307                 3.8066
 Frc consts  --      0.1399                 0.2597                 0.3719
 IR Inten    --     58.0379                 5.2835                13.9537

                     10                     11                     12
                      A                      A                      A
 Frequencies --    454.3909               530.0951               619.8398
 Red. masses --      3.2329                 2.1094                 3.1860
 Frc consts  --      0.3933                 0.3492                 0.7212
 IR Inten    --      1.3693                 2.0512                 8.2141

                     13                     14                     15
                      A                      A                      A
 Frequencies --    639.1730               723.3427               808.8002
 Red. masses --      4.0194                 2.3516                 2.0495
 Frc consts  --      0.9675                 0.7249                 0.7899
 IR Inten    --      1.0345                 4.2271                 5.5416

                     16                     17                     18
                      A                      A                      A
 Frequencies --    844.2976               883.5351               895.0288
 Red. masses --      2.1385                 3.2177                 2.7619
 Frc consts  --      0.8982                 1.4799                 1.3035
 IR Inten    --      1.3157                 3.1186                 6.1340

                     19                     20                     21
                      A                      A                      A
 Frequencies --    912.9141               973.4014               985.4165
 Red. masses --      2.0161                 1.3113                 2.6132
 Frc consts  --      0.9900                 0.7320                 1.4951
 IR Inten    --      1.6198                 7.8848                 9.7305

                     22                     23                     24
                      A                      A                      A
 Frequencies --   1047.4522              1059.5114              1089.2644
 Red. masses --      1.9273                 2.0607                 1.9145
 Frc consts  --      1.2458                 1.3629                 1.3384
 IR Inten    --     20.3426                21.5555                 0.7969

                     25                     26                     27
                      A                      A                      A
 Frequencies --   1099.6180              1117.4676              1139.7008
 Red. masses --      1.8741                 1.7961                 2.2624
 Frc consts  --      1.3351                 1.3214                 1.7314
 IR Inten    --     15.3428                42.1867                28.1977

                     28                     29                     30
                      A                      A                      A
 Frequencies --   1193.0609              1212.9648              1235.9063
 Red. masses --      1.7617                 1.6040                 1.5591
 Frc consts  --      1.4774                 1.3904                 1.4031
 IR Inten    --      1.9782                 7.8501                 4.1644

                     31                     32                     33
                      A                      A                      A
 Frequencies --   1255.7318              1269.3912              1304.4449
 Red. masses --      1.4328                 1.5302                 2.6568
 Frc consts  --      1.3311                 1.4527                 2.6636
 IR Inten    --     34.0288                 8.3199               118.6829

                     34                     35                     36
                      A                      A                      A
 Frequencies --   1344.4795              1378.2442              1406.6120
 Red. masses --      1.4908                 1.6822                 1.2833
 Frc consts  --      1.5878                 1.8827                 1.4960
 IR Inten    --     11.2892                23.6662                 2.1263

                     37                     38                     39
                      A                      A                      A
 Frequencies --   1428.6007              1486.3214              1499.7709
 Red. masses --      1.1396                 1.0990                 1.0454
 Frc consts  --      1.3703                 1.4305                 1.3854
 IR Inten    --     11.6654                 6.9720                 6.6794

                     40                     41                     42
                      A                      A                      A
 Frequencies --   1502.7334              1886.1763              3015.1763
 Red. masses --      1.0513                12.5917                 1.0421
 Frc consts  --      1.3988                26.3936                 5.5817
 IR Inten    --      1.4819               291.2286                18.8724

                     43                     44                     45
                      A                      A                      A
 Frequencies --   3042.3219              3057.8093              3065.1041
 Red. masses --      1.0833                 1.0587                 1.0594
 Frc consts  --      5.9076                 5.8321                 5.8642
 IR Inten    --     19.3122                 7.7034                25.9519

                     46                     47                     48
                      A                      A                      A
 Frequencies --   3084.0416              3105.3824              3109.9675
 Red. masses --      1.0946                 1.1017                 1.0981
 Frc consts  --      6.1339                 6.2596                 6.2576
 IR Inten    --     36.5517                17.5884                 5.6018

                     49                     50                     51
                      A                      A                      A
 Frequencies --   3115.6956              3119.5019              3812.9854
 Red. masses --      1.1052                 1.0998                 1.0656
 Frc consts  --      6.3214                 6.3055                 9.1276
 IR Inten    --      5.2265                24.6897                20.1617

 - Thermochemistry -
 -------------------
 Temperature   298.150 Kelvin.  Pressure   1.00000 Atm.
 Atom     1 has atomic number  6 and mass  12.00000

 Molecular mass:   126.06808 amu.
 Principal axes and moments of inertia in atomic units:
                           1         2         3
     Eigenvalues --   590.301851347.745821655.81125
           X            0.99950  -0.03089  -0.00668
           Y            0.03100   0.99935   0.01829
           Z            0.00611  -0.01848   0.99981
 This molecule is an asymmetric top.
 Rotational symmetry number  1.
 Warning -- assumption of classical behavior for rotation
           may cause significant error
 Rotational temperatures (Kelvin)      0.14673     0.06427     0.05231
 Rotational constants (GHZ):           3.05732     1.33908     1.08994
 Zero-point vibrational energy     413932.5 (Joules/Mol)
                                   98.93223 (Kcal/Mol)
 Warning -- explicit consideration of  12 degrees of freedom as
           vibrations may cause significant error
 Vibrational temperatures:     64.30   188.79   333.36   364.86   435.35
          (Kelvin)            467.28   515.23   567.70   585.86   653.77
                              762.69   891.81   919.63  1040.73  1163.68
                             1214.75  1271.21  1287.75  1313.48  1400.51
                             1417.79  1507.05  1524.40  1567.21  1582.10
                             1607.78  1639.77  1716.55  1745.18  1778.19
                             1806.72  1826.37  1876.80  1934.40  1982.98
                             2023.80  2055.44  2138.48  2157.83  2162.10
                             2713.78  4338.16  4377.22  4399.50  4410.00
                             4437.24  4467.95  4474.54  4482.79  4488.26
                             5486.03

 Zero-point correction=                           0.157659 (Hartree/Particle)
 Thermal correction to Energy=                    0.166313
 Thermal correction to Enthalpy=                  0.167258
 Thermal correction to Gibbs Free Energy=         0.124249
 Sum of electronic and zero-point Energies=           -423.022627
 Sum of electronic and thermal Energies=              -423.013972
 Sum of electronic and thermal Enthalpies=            -423.013028
 Sum of electronic and thermal Free Energies=         -423.056036

                     E (Thermal)             CV                S
                      KCal/Mol        Cal/Mol-Kelvin    Cal/Mol-Kelvin
 Total                  104.363             33.477             90.519
 Electronic               0.000              0.000              0.000
 Translational            0.889              2.981             40.409
 Rotational               0.889              2.981             28.667
 Vibrational            102.586             27.515             21.443
 Vibration     1          0.595              1.980              5.039
 Vibration     2          0.612              1.922              2.928
 Vibration     3          0.653              1.793              1.866
 Vibration     4          0.665              1.757              1.705
 Vibration     5          0.694              1.669              1.403
 Vibration     6          0.709              1.626              1.286
 Vibration     7          0.733              1.559              1.130
 Vibration     8          0.762              1.482              0.983
 Vibration     9          0.772              1.455              0.937
 Vibration    10          0.813              1.351              0.783
 Vibration    11          0.885              1.183              0.587
 Vibration    12          0.980              0.990              0.417

 Optimization completed.
    -- Stationary point found.
 Normal termination of Gaussian 09 at Tue Jan 28 03:32:28 2020.
