 Gaussian 09, Revision D.01,
 Gaussian 09:  ES64L-G09RevD.01 24-Apr-2013

 -----------------------------
 # b3lyp 6-31G(2df,p) opt Freq
 -----------------------------

 -----
 titel
 -----
 Symbolic Z-matrix:
 Charge =  0 Multiplicity = 1

 SCF Done:  E(RB3LYP) =  -423.165149519     A.U. after   14 cycles
 SCF Done:  E(RB3LYP) =  -423.165150213     A.U. after    7 cycles
 SCF Done:  E(RB3LYP) =  -423.165151177     A.U. after    8 cycles
 SCF Done:  E(RB3LYP) =  -423.165151995     A.U. after    8 cycles
 SCF Done:  E(RB3LYP) =  -423.165152457     A.U. after    7 cycles
 SCF Done:  E(RB3LYP) =  -423.165153647     A.U. after    8 cycles
 Optimization completed.
    -- Stationary point found.
 Normal termination of Gaussian 09 at Tue Jan 28 03:55:53 2020.

 ----------------------------------------------------------------------
 #N Geom=AllCheck Guess=TCheck SCRF=Check GenChk RB3LYP/6-31G(2df,p) Fr
 eq
 ----------------------------------------------------------------------

 Structure from the checkpoint file:  "/scratch/puck/g09_f0a95818-3832-48c1-a506-8add6a177ff8/Gau-65595.chk"
 -----
 titel
 -----
 Charge =  0 Multiplicity = 1

                         Standard orientation:
 ---------------------------------------------------------------------
 Center     Atomic      Atomic             Coordinates (Angstroms)
 Number     Number       Type             X           Y           Z
 ---------------------------------------------------------------------
      1          6           0        3.113668   -0.922820   -0.315219
      2          6           0        2.092303    0.050734    0.252375
      3          6           0        1.226046    0.865365   -0.764473
      4          6           0       -0.014685    0.458714    0.033981
      5          6           0        0.785220   -0.547831    0.868247
      6          8           0       -0.880991    1.406480    0.617668
      7          6           0       -1.441246    0.508338   -0.358164
      8          6           0       -2.387566   -0.506712    0.184381
      9          8           0       -3.234339   -1.055364   -0.474491
     10          1           0        3.920362   -0.393814   -0.834117
     11          1           0        3.567403   -1.528665    0.476576
     12          1           0        2.647303   -1.607301   -1.033381
     13          1           0        2.573916    0.725140    0.966379
     14          1           0        1.405879    1.940894   -0.827196
     15          1           0        1.242604    0.440594   -1.773094
     16          1           0        0.659474   -0.459775    1.949728
     17          1           0        0.614023   -1.587893    0.573329
     18          1           0       -1.713426    0.949508   -1.315941
     19          1           0       -2.237330   -0.722338    1.265530
 ---------------------------------------------------------------------

 SCF Done:  E(RB3LYP) =  -423.165153647     A.U. after    1 cycles

 The electronic state is 1-A.
 Alpha  occ. eigenvalues --  -19.17006 -19.14391 -10.27449 -10.25976 -10.24686
 Alpha  occ. eigenvalues --  -10.20362 -10.19530 -10.19462 -10.18520  -1.09192
 Alpha  occ. eigenvalues --   -1.04946  -0.85363  -0.72984  -0.71646  -0.68429
 Alpha  occ. eigenvalues --   -0.61490  -0.58237  -0.54917  -0.51006  -0.49228
 Alpha  occ. eigenvalues --   -0.48121  -0.44925  -0.42683  -0.41931  -0.41433
 Alpha  occ. eigenvalues --   -0.40597  -0.39306  -0.37162  -0.35264  -0.33878
 Alpha  occ. eigenvalues --   -0.32206  -0.29563  -0.28185  -0.25562
 Alpha virt. eigenvalues --   -0.03724   0.07115   0.08309   0.11332   0.11366
 Alpha virt. eigenvalues --    0.12382   0.13626   0.14370   0.14744   0.15720
 Alpha virt. eigenvalues --    0.16161   0.17478   0.18356   0.18859   0.21319

 Mulliken charges:
               1
     1  C   -0.405613
     2  C    0.045516
     3  C   -0.322583
     4  C    0.427914
     5  C   -0.326772
     6  O   -0.271320
     7  C   -0.156621
     8  C    0.153123
     9  O   -0.251757
    10  H    0.120264
    11  H    0.120363
    12  H    0.115603
    13  H    0.085260
    14  H    0.120895
    15  H    0.112193
    16  H    0.119997
    17  H    0.113585
    18  H    0.113584
    19  H    0.086368
 Sum of Mulliken charges =   0.00000

 Dipole moment (field-independent basis, Debye):
    X=              3.1893    Y=              0.0803    Z=              0.0714  Tot=              3.1911
 Quadrupole moment (field-independent basis, Debye-Ang):
   XX=            -60.6761   YY=            -56.1157   ZZ=            -52.2959
   XY=             -3.0550   XZ=             -1.8189   YZ=             -3.0854

  Exact polarizability:  98.075   4.160  67.998   2.714  -2.755  68.865
 Approx polarizability: 126.373  11.050 104.694   9.433   3.290 106.773

                      1                      2                      3
                      A                      A                      A
 Frequencies --     30.3127               100.5186               140.9651
 Red. masses --      3.3605                 4.8930                 2.8247
 Frc consts  --      0.0018                 0.0291                 0.0331
 IR Inten    --      0.5840                 5.1156                 2.4041

                      4                      5                      6
                      A                      A                      A
 Frequencies --    206.3088               233.5914               290.3365
 Red. masses --      2.2978                 1.1265                 2.3892
 Frc consts  --      0.0576                 0.0362                 0.1187
 IR Inten    --      2.4133                 0.6669                 2.0203

                      7                      8                      9
                      A                      A                      A
 Frequencies --    329.3079               384.1857               398.3924
 Red. masses --      3.4789                 3.9542                 2.0991
 Frc consts  --      0.2223                 0.3439                 0.1963
 IR Inten    --      1.1973                21.9375                 3.3471

                     10                     11                     12
                      A                      A                      A
 Frequencies --    436.8647               491.6872               563.9194
 Red. masses --      2.2224                 4.2295                 5.1537
 Frc consts  --      0.2499                 0.6024                 0.9656
 IR Inten    --      2.3107                 0.6028                 0.6132

                     13                     14                     15
                      A                      A                      A
 Frequencies --    731.7228               801.8106               823.9611
 Red. masses --      2.8183                 1.4163                 3.6721
 Frc consts  --      0.8891                 0.5365                 1.4688
 IR Inten    --      3.8688                 4.0238                24.8870

                     16                     17                     18
                      A                      A                      A
 Frequencies --    882.6890               891.7490               933.7185
 Red. masses --      3.6960                 2.3153                 1.3943
 Frc consts  --      1.6967                 1.0848                 0.7162
 IR Inten    --      8.7096                 0.0252                10.2909

                     19                     20                     21
                      A                      A                      A
 Frequencies --    961.7690               985.7953              1033.1596
 Red. masses --      1.9300                 2.6104                 1.2009
 Frc consts  --      1.0518                 1.4946                 0.7553
 IR Inten    --      9.7539                 8.6392                 1.5151

                     22                     23                     24
                      A                      A                      A
 Frequencies --   1062.6710              1090.1083              1117.7926
 Red. masses --      1.8985                 2.4778                 3.0178
 Frc consts  --      1.2632                 1.7349                 2.2216
 IR Inten    --      0.7358                 9.9403                31.6626

                     25                     26                     27
                      A                      A                      A
 Frequencies --   1126.3390              1158.1708              1184.0965
 Red. masses --      1.6997                 2.3141                 2.0798
 Frc consts  --      1.2705                 1.8289                 1.7181
 IR Inten    --      0.8949                 6.5415                12.2311

                     28                     29                     30
                      A                      A                      A
 Frequencies --   1230.7437              1232.2039              1246.1316
 Red. masses --      1.3820                 1.4836                 1.3777
 Frc consts  --      1.2334                 1.3272                 1.2605
 IR Inten    --      1.3275                 2.9505                 4.0813

                     31                     32                     33
                      A                      A                      A
 Frequencies --   1285.2803              1296.4433              1365.0105
 Red. masses --      1.3549                 1.4071                 1.5216
 Frc consts  --      1.3187                 1.3935                 1.6704
 IR Inten    --      2.8633                 4.8391                17.8608

                     34                     35                     36
                      A                      A                      A
 Frequencies --   1393.2097              1410.3809              1456.8966
 Red. masses --      1.3804                 1.2664                 1.7242
 Frc consts  --      1.5786                 1.4842                 2.1563
 IR Inten    --      6.6341                 2.2647                27.4602

                     37                     38                     39
                      A                      A                      A
 Frequencies --   1457.7420              1489.1227              1494.5955
 Red. masses --      1.1241                 1.6594                 1.0481
 Frc consts  --      1.4074                 2.1680                 1.3794
 IR Inten    --      5.7164                16.4445                 2.8131

                     40                     41                     42
                      A                      A                      A
 Frequencies --   1495.9362              1822.8399              2892.8255
 Red. masses --      1.0474                10.3033                 1.0838
 Frc consts  --      1.3810                20.1709                 5.3437
 IR Inten    --      5.3459               217.6501                70.1996

                     43                     44                     45
                      A                      A                      A
 Frequencies --   3024.4062              3052.8371              3056.0555
 Red. masses --      1.0354                 1.0594                 1.0721
 Frc consts  --      5.5799                 5.8170                 5.8995
 IR Inten    --     23.4140                27.2433                 2.4818

                     46                     47                     48
                      A                      A                      A
 Frequencies --   3059.7237              3093.4145              3096.4462
 Red. masses --      1.0755                 1.1007                 1.1013
 Frc consts  --      5.9323                 6.2058                 6.2214
 IR Inten    --      9.4423                33.7646                23.6738

                     49                     50                     51
                      A                      A                      A
 Frequencies --   3115.8129              3118.4567              3134.0287
 Red. masses --      1.1052                 1.1051                 1.0889
 Frc consts  --      6.3220                 6.3317                 6.3012
 IR Inten    --      6.9105                27.4201                11.1300

 - Thermochemistry -
 -------------------
 Temperature   298.150 Kelvin.  Pressure   1.00000 Atm.
 Atom     1 has atomic number  6 and mass  12.00000

 Molecular mass:   126.06808 amu.
 Principal axes and moments of inertia in atomic units:
                           1         2         3
     Eigenvalues --   495.026942015.281092198.83247
           X            0.99980  -0.01849  -0.00733
           Y            0.01782   0.99635  -0.08351
           Z            0.00885   0.08337   0.99648
 This molecule is an asymmetric top.
 Rotational symmetry number  1.
 Warning -- assumption of classical behavior for rotation
           may cause significant error
 Rotational temperatures (Kelvin)      0.17497     0.04298     0.03939
 Rotational constants (GHZ):           3.64574     0.89553     0.82077
 Zero-point vibrational energy     410991.9 (Joules/Mol)
                                   98.22943 (Kcal/Mol)
 Warning -- explicit consideration of  12 degrees of freedom as
           vibrations may cause significant error
 Vibrational temperatures:     43.61   144.62   202.82   296.83   336.09
          (Kelvin)            417.73   473.80   552.76   573.20   628.55
                              707.43   811.35  1052.78  1153.63  1185.49
                             1269.99  1283.03  1343.41  1383.77  1418.34
                             1486.48  1528.94  1568.42  1608.25  1620.55
                             1666.35  1703.65  1770.76  1772.86  1792.90
                             1849.23  1865.29  1963.94  2004.52  2029.22
                             2096.15  2097.36  2142.51  2150.39  2152.32
                             2622.66  4162.13  4351.44  4392.35  4396.98
                             4402.25  4450.73  4455.09  4482.95  4486.76
                             4509.16

 Zero-point correction=                           0.156539 (Hartree/Particle)
 Thermal correction to Energy=                    0.165623
 Thermal correction to Enthalpy=                  0.166567
 Thermal correction to Gibbs Free Energy=         0.121754
 Sum of electronic and zero-point Energies=           -423.008615
 Sum of electronic and thermal Energies=              -422.999531
 Sum of electronic and thermal Enthalpies=            -422.998587
 Sum of electronic and thermal Free Energies=         -423.043399

                     E (Thermal)             CV                S
                      KCal/Mol        Cal/Mol-Kelvin    Cal/Mol-Kelvin
 Total                  103.930             33.343             94.316
 Electronic               0.000              0.000              0.000
 Translational            0.889              2.981             40.409
 Rotational               0.889              2.981             29.174
 Vibrational            102.152             27.381             24.733
 Vibration     1          0.594              1.984              5.809
 Vibration     2          0.604              1.949              3.444
 Vibration     3          0.615              1.912              2.791
 Vibration     4          0.641              1.831              2.076
 Vibration     5          0.654              1.790              1.851
 Vibration     6          0.686              1.692              1.472
 Vibration     7          0.712              1.617              1.263
 Vibration     8          0.753              1.504              1.023
 Vibration     9          0.765              1.474              0.969
 Vibration    10          0.797              1.390              0.837
 Vibration    11          0.847              1.268              0.679
 Vibration    12          0.920              1.109              0.516
