 Gaussian 09, Revision D.01,
 Gaussian 09:  ES64L-G09RevD.01 24-Apr-2013

 -----------------------------
 # b3lyp 6-31G(2df,p) opt Freq
 -----------------------------

 -----
 titel
 -----
 Symbolic Z-matrix:
 Charge =  0 Multiplicity = 1

 SCF Done:  E(RB3LYP) =  -423.086284749     A.U. after   14 cycles
 Optimization completed.
    -- Stationary point found.
 Normal termination of Gaussian 09 at Tue Jan 28 09:22:45 2020.

 ----------------------------------------------------------------------
 #N Geom=AllCheck Guess=TCheck SCRF=Check GenChk RB3LYP/6-31G(2df,p) Fr
 eq
 ----------------------------------------------------------------------

 Structure from the checkpoint file:  "/scratch/puck/g09_3acdcdc2-5413-455c-9a39-4b0c45274190/Gau-82385.chk"
 -----
 titel
 -----
 Charge =  0 Multiplicity = 1

                         Standard orientation:
 ---------------------------------------------------------------------
 Center     Atomic      Atomic             Coordinates (Angstroms)
 Number     Number       Type             X           Y           Z
 ---------------------------------------------------------------------
      1          6           0       -2.376937   -1.077581   -0.384930
      2          6           0       -1.433730   -0.288770    0.512092
      3          6           0       -1.103390    1.181957    0.146488
      4          6           0       -0.026249    0.760373   -0.897399
      5          8           0        1.034303    1.605231   -0.332866
      6          6           0        0.290397    1.100334    0.826953
      7          6           0        0.089814   -0.330178    0.224427
      8          6           0        1.103803   -1.437463    0.253944
      9          8           0        2.369617   -0.999327   -0.214624
     10          1           0       -2.332516   -2.148668   -0.160772
     11          1           0       -3.413757   -0.754826   -0.242334
     12          1           0       -2.131553   -0.948866   -1.444618
     13          1           0       -1.687181   -0.433711    1.569019
     14          1           0       -1.754291    2.054700    0.095851
     15          1           0       -0.080435    0.664346   -1.980369
     16          1           0        0.606201    1.405935    1.824115
     17          1           0        1.188779   -1.830882    1.280513
     18          1           0        0.767726   -2.272921   -0.377679
     19          1           0        2.343423   -0.034368   -0.273255
 ---------------------------------------------------------------------

 SCF Done:  E(RB3LYP) =  -423.086284749     A.U. after    1 cycles

 The electronic state is 1-A.
 Alpha  occ. eigenvalues --  -19.14472 -19.12047 -10.25460 -10.25456 -10.22790
 Alpha  occ. eigenvalues --  -10.21087 -10.20943 -10.20636 -10.18532  -1.07131
 Alpha  occ. eigenvalues --   -1.00274  -0.88098  -0.73911  -0.71368  -0.66515
 Alpha  occ. eigenvalues --   -0.62072  -0.61195  -0.53458  -0.51673  -0.48478
 Alpha  occ. eigenvalues --   -0.45954  -0.45347  -0.43878  -0.42501  -0.39802
 Alpha  occ. eigenvalues --   -0.39667  -0.37695  -0.36921  -0.31720  -0.31131
 Alpha  occ. eigenvalues --   -0.30968  -0.29934  -0.25817  -0.24331
 Alpha virt. eigenvalues --    0.06013   0.09454   0.10048   0.11084   0.11940
 Alpha virt. eigenvalues --    0.12819   0.13320   0.13761   0.14929   0.15837
 Alpha virt. eigenvalues --    0.16537   0.17998   0.18842   0.19254   0.19913

 Mulliken charges:
               1
     1  C   -0.417299
     2  C   -0.089603
     3  C   -0.103130
     4  C    0.035562
     5  O   -0.339398
     6  C    0.032973
     7  C    0.278565
     8  C   -0.174662
     9  O   -0.438527
    10  H    0.123202
    11  H    0.121835
    12  H    0.117255
    13  H    0.074520
    14  H    0.085883
    15  H    0.104071
    16  H    0.100801
    17  H    0.091150
    18  H    0.099714
    19  H    0.297089
 Sum of Mulliken charges =   0.00000

 Dipole moment (field-independent basis, Debye):
    X=             -3.0368    Y=             -0.0283    Z=              0.7743  Tot=              3.1341
 Quadrupole moment (field-independent basis, Debye-Ang):
   XX=            -59.0440   YY=            -55.7003   ZZ=            -50.3145
   XY=              1.4273   XZ=              1.6920   YZ=              0.6178

  Exact polarizability:  79.952   1.172  75.443   0.468   0.145  68.047
 Approx polarizability: 112.080   2.722 110.687  -1.559  -0.815 108.251

                      1                      2                      3
                      A                      A                      A
 Frequencies --     60.6431               165.0240               197.2374
 Red. masses --      3.8824                 3.3790                 1.1461
 Frc consts  --      0.0084                 0.0542                 0.0263
 IR Inten    --      8.5206                 2.2046                 0.1891

                      4                      5                      6
                      A                      A                      A
 Frequencies --    204.6598               233.3749               323.8476
 Red. masses --      2.6164                 3.1436                 2.3596
 Frc consts  --      0.0646                 0.1009                 0.1458
 IR Inten    --      0.0309                 3.5148                 0.0463

                      7                      8                      9
                      A                      A                      A
 Frequencies --    419.5822               434.6080               519.3268
 Red. masses --      1.5215                 2.1050                 3.2565
 Frc consts  --      0.1578                 0.2343                 0.5175
 IR Inten    --     39.6455                16.5720                 2.2914

                     10                     11                     12
                      A                      A                      A
 Frequencies --    543.4053               703.4454               731.7150
 Red. masses --      3.6684                 3.0146                 3.0965
 Frc consts  --      0.6382                 0.8789                 0.9768
 IR Inten    --      4.2219                 4.4762                 1.5619

                     13                     14                     15
                      A                      A                      A
 Frequencies --    750.2437               811.2844               828.3539
 Red. masses --      3.4968                 3.5299                 1.9269
 Frc consts  --      1.1596                 1.3688                 0.7790
 IR Inten    --      0.7952                12.8600                 1.5142

                     16                     17                     18
                      A                      A                      A
 Frequencies --    876.0093               897.4779               914.2524
 Red. masses --      2.8150                 3.3315                 2.1156
 Frc consts  --      1.2728                 1.5810                 1.0419
 IR Inten    --      6.5358                44.2172                 1.1233

                     19                     20                     21
                      A                      A                      A
 Frequencies --    971.4216               989.5223              1049.1816
 Red. masses --      2.2139                 1.4179                 1.4729
 Frc consts  --      1.2309                 0.8180                 0.9552
 IR Inten    --      2.8311                 0.6318                12.1698

                     22                     23                     24
                      A                      A                      A
 Frequencies --   1062.1449              1082.0992              1097.0072
 Red. masses --      4.1926                 1.8090                 3.1028
 Frc consts  --      2.7868                 1.2480                 2.2000
 IR Inten    --     77.8488                 1.7454                 5.6370

                     25                     26                     27
                      A                      A                      A
 Frequencies --   1109.6177              1122.3810              1152.8662
 Red. masses --      2.4011                 1.6851                 1.8126
 Frc consts  --      1.7419                 1.2507                 1.4194
 IR Inten    --      2.5480                 0.9521                 1.6350

                     28                     29                     30
                      A                      A                      A
 Frequencies --   1168.1857              1174.0502              1219.5404
 Red. masses --      1.8961                 1.4028                 1.8227
 Frc consts  --      1.5245                 1.1393                 1.5972
 IR Inten    --      9.3437                 0.6405                 5.2317

                     31                     32                     33
                      A                      A                      A
 Frequencies --   1252.7240              1261.7408              1293.1719
 Red. masses --      1.8635                 1.1365                 1.6878
 Frc consts  --      1.7230                 1.0660                 1.6630
 IR Inten    --      4.1541                 8.8290                10.2058

                     34                     35                     36
                      A                      A                      A
 Frequencies --   1345.4206              1360.8349              1406.7083
 Red. masses --      2.1430                 1.5204                 1.4928
 Frc consts  --      2.2855                 1.6589                 1.7405
 IR Inten    --     26.4038                 2.3596                 2.1426

                     37                     38                     39
                      A                      A                      A
 Frequencies --   1417.8036              1476.7588              1492.2026
 Red. masses --      1.4005                 1.3129                 1.0501
 Frc consts  --      1.6587                 1.6869                 1.3776
 IR Inten    --      6.4859               100.1915                 2.4819

                     40                     41                     42
                      A                      A                      A
 Frequencies --   1499.4611              1519.0177              2967.1947
 Red. masses --      1.0539                 1.0870                 1.0668
 Frc consts  --      1.3961                 1.4778                 5.5338
 IR Inten    --      4.7376                 0.0940                61.7090

                     43                     44                     45
                      A                      A                      A
 Frequencies --   3006.2995              3030.7950              3035.2173
 Red. masses --      1.0938                 1.0357                 1.0840
 Frc consts  --      5.8247                 5.6050                 5.8836
 IR Inten    --     39.5806                24.2844                31.6572

                     46                     47                     48
                      A                      A                      A
 Frequencies --   3096.5932              3099.6850              3117.3441
 Red. masses --      1.1010                 1.1009                 1.0881
 Frc consts  --      6.2204                 6.2322                 6.2303
 IR Inten    --     19.8722                30.0739                30.1650

                     49                     50                     51
                      A                      A                      A
 Frequencies --   3127.6760              3140.4425              3730.7960
 Red. masses --      1.0918                 1.0978                 1.0674
 Frc consts  --      6.2927                 6.3793                 8.7539
 IR Inten    --     57.4532                15.0306                88.4724

 - Thermochemistry -
 -------------------
 Temperature   298.150 Kelvin.  Pressure   1.00000 Atm.
 Atom     1 has atomic number  6 and mass  12.00000

 Molecular mass:   126.06808 amu.
 Principal axes and moments of inertia in atomic units:
                           1         2         3
     Eigenvalues --   708.984841092.840581510.89157
           X            0.99930   0.03432   0.01478
           Y           -0.03447   0.99935   0.01043
           Z           -0.01441  -0.01093   0.99984
 This molecule is an asymmetric top.
 Rotational symmetry number  1.
 Warning -- assumption of classical behavior for rotation
           may cause significant error
 Rotational temperatures (Kelvin)      0.12217     0.07926     0.05733
 Rotational constants (GHZ):           2.54553     1.65142     1.19449
 Zero-point vibrational energy     415644.9 (Joules/Mol)
                                   99.34151 (Kcal/Mol)
 Warning -- explicit consideration of  10 degrees of freedom as
           vibrations may cause significant error
 Vibrational temperatures:     87.25   237.43   283.78   294.46   335.77
          (Kelvin)            465.94   603.68   625.30   747.19   781.84
                             1012.10  1052.77  1079.43  1167.26  1191.82
                             1260.38  1291.27  1315.40  1397.66  1423.70
                             1509.54  1528.19  1556.90  1578.35  1596.49
                             1614.85  1658.72  1680.76  1689.19  1754.64
                             1802.39  1815.36  1860.58  1935.76  1957.94
                             2023.94  2039.90  2124.72  2146.94  2157.39
                             2185.52  4269.13  4325.39  4360.63  4367.00
                             4455.30  4459.75  4485.16  4500.02  4518.39
                             5367.78

 Zero-point correction=                           0.158311 (Hartree/Particle)
 Thermal correction to Energy=                    0.166584
 Thermal correction to Enthalpy=                  0.167528
 Thermal correction to Gibbs Free Energy=         0.125326
 Sum of electronic and zero-point Energies=           -422.927974
 Sum of electronic and thermal Energies=              -422.919701
 Sum of electronic and thermal Enthalpies=            -422.918757
 Sum of electronic and thermal Free Energies=         -422.960958

                     E (Thermal)             CV                S
                      KCal/Mol        Cal/Mol-Kelvin    Cal/Mol-Kelvin
 Total                  104.533             31.860             88.820
 Electronic               0.000              0.000              0.000
 Translational            0.889              2.981             40.409
 Rotational               0.889              2.981             28.550
 Vibrational            102.755             25.899             19.862
 Vibration     1          0.597              1.973              4.436
 Vibration     2          0.623              1.885              2.491
 Vibration     3          0.637              1.844              2.159
 Vibration     4          0.640              1.833              2.091
 Vibration     5          0.654              1.790              1.853
 Vibration     6          0.708              1.628              1.291
 Vibration     7          0.782              1.428              0.893
 Vibration     8          0.795              1.395              0.844
 Vibration     9          0.874              1.207              0.612
 Vibration    10          0.899              1.154              0.558

 Optimization completed.
    -- Stationary point found.
 Normal termination of Gaussian 09 at Tue Jan 28 10:20:30 2020.
