 Gaussian 09, Revision D.01,
 Gaussian 09:  ES64L-G09RevD.01 24-Apr-2013

 -----------------------------
 # b3lyp 6-31G(2df,p) opt Freq
 -----------------------------

 -----
 titel
 -----
 Symbolic Z-matrix:
 Charge =  0 Multiplicity = 1

 SCF Done:  E(RB3LYP) =  -423.195331704     A.U. after   12 cycles
 Optimization completed.
    -- Stationary point found.
 Normal termination of Gaussian 09 at Mon Jan 27 18:56:25 2020.

 ----------------------------------------------------------------------
 #N Geom=AllCheck Guess=TCheck SCRF=Check GenChk RB3LYP/6-31G(2df,p) Fr
 eq
 ----------------------------------------------------------------------

 Structure from the checkpoint file:  "/scratch/puck/g09_afbefa77-e46d-47a9-98c7-2ff200fd3ad6/Gau-43600.chk"
 -----
 titel
 -----
 Charge =  0 Multiplicity = 1

                         Standard orientation:
 ---------------------------------------------------------------------
 Center     Atomic      Atomic             Coordinates (Angstroms)
 Number     Number       Type             X           Y           Z
 ---------------------------------------------------------------------
      1          6           0        2.291383   -0.000502    0.474435
      2          6           0        0.833982    0.000061    0.065801
      3          8           0        0.582440    1.167428   -0.707922
      4          6           0       -0.803642    1.497120   -0.646684
      5          6           0       -1.367776    0.759721    0.560179
      6          6           0       -1.367868   -0.759685    0.560206
      7          6           0       -0.803917   -1.497144   -0.646640
      8          8           0        0.581956   -1.166748   -0.708700
      9          6           0       -0.230829   -0.000045    1.179080
     10          1           0        2.918960   -0.003135   -0.419585
     11          1           0        2.519185    0.892749    1.060154
     12          1           0        2.517448   -0.891670    1.064013
     13          1           0       -0.895196    2.582390   -0.525429
     14          1           0       -1.303315    1.218867   -1.585509
     15          1           0       -2.108846    1.260874    1.172035
     16          1           0       -2.109004   -1.260734    1.172073
     17          1           0       -0.894913   -2.582426   -0.524941
     18          1           0       -1.304148   -1.219490   -1.585345
     19          1           0        0.036653   -0.000027    2.227247
 ---------------------------------------------------------------------

 SCF Done:  E(RB3LYP) =  -423.195331704     A.U. after    1 cycles

 The electronic state is 1-A.
 Alpha  occ. eigenvalues --  -19.13100 -19.13100 -10.27651 -10.22810 -10.22809
 Alpha  occ. eigenvalues --  -10.19875 -10.19851 -10.19224 -10.17200  -1.06564
 Alpha  occ. eigenvalues --   -0.99788  -0.86967  -0.76722  -0.70213  -0.67810
 Alpha  occ. eigenvalues --   -0.60294  -0.57638  -0.57007  -0.52479  -0.47668
 Alpha  occ. eigenvalues --   -0.46088  -0.43921  -0.43360  -0.42363  -0.41906
 Alpha  occ. eigenvalues --   -0.38371  -0.38274  -0.36902  -0.32244  -0.31227
 Alpha  occ. eigenvalues --   -0.28937  -0.28899  -0.27085  -0.24505
 Alpha virt. eigenvalues --    0.07881   0.10708   0.10826   0.11663   0.13920
 Alpha virt. eigenvalues --    0.14313   0.15083   0.15662   0.16795   0.17686
 Alpha virt. eigenvalues --    0.18071   0.19478   0.19824   0.20299   0.22534

 Mulliken charges:
               1
     1  C   -0.449488
     2  C    0.458484
     3  O   -0.282405
     4  C   -0.106409
     5  C   -0.086231
     6  C   -0.086182
     7  C   -0.106400
     8  O   -0.282503
     9  C   -0.133905
    10  H    0.138663
    11  H    0.123259
    12  H    0.123198
    13  H    0.105365
    14  H    0.100733
    15  H    0.092971
    16  H    0.092966
    17  H    0.105345
    18  H    0.100731
    19  H    0.091808
 Sum of Mulliken charges =   0.00000

 Dipole moment (field-independent basis, Debye):
    X=             -1.8345    Y=             -0.0009    Z=              1.7292  Tot=              2.5210
 Quadrupole moment (field-independent basis, Debye-Ang):
   XX=            -50.8251   YY=            -52.9838   ZZ=            -52.7189
   XY=             -0.0021   XZ=              1.7931   YZ=             -0.0008

  Exact polarizability:  77.607   0.000  75.352   2.574   0.000  66.373
 Approx polarizability: 107.978   0.004 109.617   3.081   0.000  99.138

                      1                      2                      3
                      A                      A                      A
 Frequencies --    100.5087               195.1384               241.2565
 Red. masses --      3.5236                 1.0277                 2.0978
 Frc consts  --      0.0210                 0.0231                 0.0719
 IR Inten    --      2.5953                 0.1062                 1.1122

                      4                      5                      6
                      A                      A                      A
 Frequencies --    284.2233               334.2200               440.0937
 Red. masses --      2.7925                 2.6531                 2.3486
 Frc consts  --      0.1329                 0.1746                 0.2680
 IR Inten    --      3.9911                 0.1421                 0.2352

                      7                      8                      9
                      A                      A                      A
 Frequencies --    517.5192               608.8902               624.8374
 Red. masses --      6.4534                 3.9809                 7.4212
 Frc consts  --      1.0183                 0.8696                 1.7071
 IR Inten    --      4.5301                 1.7332                 2.7679

                     10                     11                     12
                      A                      A                      A
 Frequencies --    727.2132               744.4113               774.7706
 Red. masses --      4.2424                 4.1994                 3.4868
 Frc consts  --      1.3219                 1.3711                 1.2332
 IR Inten    --      0.7003                 3.2403                 3.5800

                     13                     14                     15
                      A                      A                      A
 Frequencies --    804.4594               817.9727               869.1171
 Red. masses --      2.6056                 1.5717                 2.4937
 Frc consts  --      0.9935                 0.6196                 1.1098
 IR Inten    --      3.8156                 0.2780                70.1703

                     16                     17                     18
                      A                      A                      A
 Frequencies --    889.5618               950.1238               961.8464
 Red. masses --      2.3155                 1.7302                 1.2646
 Frc consts  --      1.0796                 0.9203                 0.6893
 IR Inten    --     31.0712                29.2058                 9.6001

                     19                     20                     21
                      A                      A                      A
 Frequencies --    985.5591              1019.9276              1049.3855
 Red. masses --      3.0380                 3.9132                 1.7863
 Frc consts  --      1.7386                 2.3984                 1.1590
 IR Inten    --      6.6221                18.4003                26.3891

                     22                     23                     24
                      A                      A                      A
 Frequencies --   1051.2659              1070.8695              1093.7427
 Red. masses --      2.7038                 3.6130                 1.4344
 Frc consts  --      1.7605                 2.4411                 1.0110
 IR Inten    --     17.2859                66.1627                16.2305

                     25                     26                     27
                      A                      A                      A
 Frequencies --   1120.6040              1133.7478              1156.3570
 Red. masses --      2.0940                 2.0269                 1.5240
 Frc consts  --      1.5493                 1.5350                 1.2007
 IR Inten    --     27.6066                34.7967                11.2204

                     28                     29                     30
                      A                      A                      A
 Frequencies --   1187.0200              1217.2907              1226.8382
 Red. masses --      2.2518                 1.7278                 1.0853
 Frc consts  --      1.8694                 1.5084                 0.9624
 IR Inten    --     20.5601                21.4894                 0.4525

                     31                     32                     33
                      A                      A                      A
 Frequencies --   1234.1778              1336.1586              1340.6995
 Red. masses --      1.3266                 2.1931                 1.4882
 Frc consts  --      1.1905                 2.3069                 1.5760
 IR Inten    --      2.9703                31.9082                 0.9659

                     34                     35                     36
                      A                      A                      A
 Frequencies --   1366.2956              1377.5346              1410.9570
 Red. masses --      1.9655                 1.4141                 1.5125
 Frc consts  --      2.1618                 1.5810                 1.7741
 IR Inten    --     19.0563                 9.5733                14.2904

                     37                     38                     39
                      A                      A                      A
 Frequencies --   1418.5585              1481.6113              1487.4966
 Red. masses --      2.0813                 1.0595                 1.0456
 Frc consts  --      2.4676                 1.3703                 1.3631
 IR Inten    --     11.1855                 1.4383                 1.5225

                     40                     41                     42
                      A                      A                      A
 Frequencies --   1516.5477              1534.4407              3000.6505
 Red. masses --      1.0919                 1.0859                 1.0656
 Frc consts  --      1.4796                 1.5064                 5.6528
 IR Inten    --      0.0880                 1.0308                14.7068

                     43                     44                     45
                      A                      A                      A
 Frequencies --   3004.1294              3053.6680              3055.7900
 Red. masses --      1.0654                 1.0979                 1.0980
 Frc consts  --      5.6649                 6.0319                 6.0411
 IR Inten    --    109.1301                78.1517                 3.6703

                     46                     47                     48
                      A                      A                      A
 Frequencies --   3058.4401              3138.7045              3139.0573
 Red. masses --      1.0351                 1.1021                 1.1030
 Frc consts  --      5.7049                 6.3967                 6.4037
 IR Inten    --     11.2570                10.5248                14.7189

                     49                     50                     51
                      A                      A                      A
 Frequencies --   3174.4741              3182.0201              3202.7075
 Red. masses --      1.0898                 1.0901                 1.0957
 Frc consts  --      6.4706                 6.5030                 6.6219
 IR Inten    --      7.7156                19.2071                 9.1101

 - Thermochemistry -
 -------------------
 Temperature   298.150 Kelvin.  Pressure   1.00000 Atm.
 Atom     1 has atomic number  6 and mass  12.00000

 Molecular mass:   126.06808 amu.
 Principal axes and moments of inertia in atomic units:
                           1         2         3
     Eigenvalues --   718.35543 883.760371111.48864
           X            0.99924  -0.00008   0.03899
           Y            0.00008   1.00000  -0.00002
           Z           -0.03899   0.00003   0.99924
 This molecule is an asymmetric top.
 Rotational symmetry number  1.
 Warning -- assumption of classical behavior for rotation
           may cause significant error
 Rotational temperatures (Kelvin)      0.12057     0.09801     0.07793
 Rotational constants (GHZ):           2.51232     2.04212     1.62372
 Zero-point vibrational energy     422957.0 (Joules/Mol)
                                  101.08915 (Kcal/Mol)
 Warning -- explicit consideration of   8 degrees of freedom as
           vibrations may cause significant error
 Vibrational temperatures:    144.61   280.76   347.11   408.93   480.87
          (Kelvin)            633.20   744.59   876.06   899.00  1046.30
                             1071.04  1114.72  1157.44  1176.88  1250.46
                             1279.88  1367.01  1383.88  1418.00  1467.45
                             1509.83  1512.54  1540.74  1573.65  1612.30
                             1631.21  1663.74  1707.85  1751.41  1765.14
                             1775.70  1922.43  1928.97  1965.79  1981.96
                             2030.05  2040.99  2131.71  2140.17  2181.97
                             2207.72  4317.26  4322.27  4393.54  4396.59
                             4400.41  4515.89  4516.40  4567.35  4578.21
                             4607.98

 Zero-point correction=                           0.161096 (Hartree/Particle)
 Thermal correction to Energy=                    0.168357
 Thermal correction to Enthalpy=                  0.169301
 Thermal correction to Gibbs Free Energy=         0.129606
 Sum of electronic and zero-point Energies=           -423.034236
 Sum of electronic and thermal Energies=              -423.026974
 Sum of electronic and thermal Enthalpies=            -423.026030
 Sum of electronic and thermal Free Energies=         -423.065726

                     E (Thermal)             CV                S
                      KCal/Mol        Cal/Mol-Kelvin    Cal/Mol-Kelvin
 Total                  105.646             29.339             83.547
 Electronic               0.000              0.000              0.000
 Translational            0.889              2.981             40.409
 Rotational               0.889              2.981             28.047
 Vibrational            103.868             23.378             15.091
 Vibration     1          0.604              1.949              3.444
 Vibration     2          0.636              1.847              2.178
 Vibration     3          0.658              1.777              1.794
 Vibration     4          0.683              1.703              1.508
 Vibration     5          0.716              1.607              1.240
 Vibration     6          0.800              1.383              0.826
 Vibration     7          0.873              1.211              0.616
 Vibration     8          0.968              1.013              0.435

 Normal termination of Gaussian 09 at Mon Jan 27 19:57:26 2020.
