 Gaussian 09, Revision D.01,
 Gaussian 09:  ES64L-G09RevD.01 24-Apr-2013

 -----------------------------
 # b3lyp 6-31G(2df,p) opt Freq
 -----------------------------

 -----
 titel
 -----
 Symbolic Z-matrix:
 Charge =  0 Multiplicity = 1

 SCF Done:  E(RB3LYP) =  -423.092587417     A.U. after   14 cycles
 Optimization completed.
    -- Stationary point found.
 Normal termination of Gaussian 09 at Mon Jan 27 11:27:33 2020.

 ----------------------------------------------------------------------
 #N Geom=AllCheck Guess=TCheck SCRF=Check GenChk RB3LYP/6-31G(2df,p) Fr
 eq
 ----------------------------------------------------------------------

 Structure from the checkpoint file:  "/scratch/puck/g09_7d73f2b2-17f4-49f3-9e05-612fdc5abb29/Gau-61335.chk"
 -----
 titel
 -----
 Charge =  0 Multiplicity = 1

                         Standard orientation:
 ---------------------------------------------------------------------
 Center     Atomic      Atomic             Coordinates (Angstroms)
 Number     Number       Type             X           Y           Z
 ---------------------------------------------------------------------
      1          6           0       -2.608984    0.111149    0.415926
      2          6           0       -1.790714   -1.051321   -0.180103
      3          6           0       -0.834879    0.061823   -0.663345
      4          8           0       -1.623035    1.081876   -0.005773
      5          6           0        0.573834    0.059276   -0.152216
      6          6           0        1.674262    1.140344   -0.327856
      7          6           0        2.303848   -0.146738    0.250025
      8          6           0        1.137459   -0.267696    1.257158
      9          8           0        1.514719   -0.941611   -0.724698
     10          1           0       -3.581555    0.291713   -0.057994
     11          1           0       -2.739477    0.110169    1.504121
     12          1           0       -1.354076   -1.734353    0.549543
     13          1           0       -2.276837   -1.627438   -0.967444
     14          1           0       -0.817121    0.205260   -1.752503
     15          1           0        1.939195    1.361868   -1.362420
     16          1           0        1.626571    2.027273    0.307363
     17          1           0        3.353505   -0.410876    0.374739
     18          1           0        0.943449   -1.279553    1.615389
     19          1           0        1.043927    0.492796    2.035436
 ---------------------------------------------------------------------

 SCF Done:  E(RB3LYP) =  -423.092587417     A.U. after    1 cycles

 The electronic state is 1-A.
 Alpha  occ. eigenvalues --  -19.13552 -19.12850 -10.24856 -10.24797 -10.23826
 Alpha  occ. eigenvalues --  -10.23362 -10.19154 -10.19068 -10.18931  -1.05400
 Alpha  occ. eigenvalues --   -1.03803  -0.79101  -0.75128  -0.71972  -0.67868
 Alpha  occ. eigenvalues --   -0.62718  -0.56515  -0.53958  -0.51457  -0.49154
 Alpha  occ. eigenvalues --   -0.45846  -0.44792  -0.44428  -0.43305  -0.39171
 Alpha  occ. eigenvalues --   -0.38059  -0.36441  -0.34822  -0.32767  -0.32609
 Alpha  occ. eigenvalues --   -0.31154  -0.30193  -0.25025  -0.23676
 Alpha virt. eigenvalues --    0.05997   0.09155   0.10709   0.11424   0.11740
 Alpha virt. eigenvalues --    0.12407   0.14193   0.14254   0.15689   0.15865
 Alpha virt. eigenvalues --    0.16677   0.17318   0.18436   0.19739   0.20966

 Mulliken charges:
               1
     1  C   -0.057544
     2  C   -0.299047
     3  C   -0.011108
     4  O   -0.292950
     5  C    0.442052
     6  C   -0.258332
     7  C    0.047585
     8  C   -0.261639
     9  O   -0.353101
    10  H    0.104638
    11  H    0.107078
    12  H    0.118946
    13  H    0.116918
    14  H    0.084153
    15  H    0.105890
    16  H    0.103965
    17  H    0.096163
    18  H    0.103838
    19  H    0.102495
 Sum of Mulliken charges =   0.00000

 Dipole moment (field-independent basis, Debye):
    X=             -0.4641    Y=             -0.2613    Z=              1.0281  Tot=              1.1579
 Quadrupole moment (field-independent basis, Debye-Ang):
   XX=            -48.8140   YY=            -56.4244   ZZ=            -52.2042
   XY=              5.0202   XZ=              2.0890   YZ=             -1.5599

  Exact polarizability:  88.129   2.053  67.806  -1.227  -1.187  69.955
 Approx polarizability: 112.851   0.017 106.296  -2.201   2.161 107.050

                      1                      2                      3
                      A                      A                      A
 Frequencies --     41.5311                75.6584               152.6006
 Red. masses --      3.4095                 2.3544                 4.2800
 Frc consts  --      0.0035                 0.0079                 0.0587
 IR Inten    --      2.7235                 0.8358                 7.3480

                      4                      5                      6
                      A                      A                      A
 Frequencies --    202.9025               350.4815               410.4204
 Red. masses --      2.9020                 4.6909                 3.8055
 Frc consts  --      0.0704                 0.3395                 0.3777
 IR Inten    --      1.2331                 0.7102                 0.2250

                      7                      8                      9
                      A                      A                      A
 Frequencies --    522.6226               592.4702               640.8215
 Red. masses --      1.8899                 2.7454                 2.4917
 Frc consts  --      0.3041                 0.5678                 0.6029
 IR Inten    --      1.8100                 6.8193                 0.5852

                     10                     11                     12
                      A                      A                      A
 Frequencies --    740.3588               779.7250               802.6089
 Red. masses --      5.0432                 1.3865                 2.1024
 Frc consts  --      1.6287                 0.4966                 0.7979
 IR Inten    --     25.8611                 1.8099                 0.9133

                     13                     14                     15
                      A                      A                      A
 Frequencies --    831.0648               896.0532               917.0025
 Red. masses --      3.3631                 3.0187                 3.3259
 Frc consts  --      1.3686                 1.4280                 1.6478
 IR Inten    --      5.4577                25.0018                21.5182

                     16                     17                     18
                      A                      A                      A
 Frequencies --    933.1756               944.5204               955.3980
 Red. masses --      2.3838                 2.2331                 2.7304
 Frc consts  --      1.2230                 1.1738                 1.4684
 IR Inten    --     10.1568                 8.3431                 9.4214

                     19                     20                     21
                      A                      A                      A
 Frequencies --    984.6988              1006.0793              1032.1372
 Red. masses --      1.3587                 3.4082                 3.1360
 Frc consts  --      0.7762                 2.0325                 1.9683
 IR Inten    --      3.2328                 5.5309                72.8071

                     22                     23                     24
                      A                      A                      A
 Frequencies --   1037.4903              1074.6691              1089.7312
 Red. masses --      2.1058                 2.8884                 1.3282
 Frc consts  --      1.3355                 1.9654                 0.9293
 IR Inten    --     43.2745                 6.4713                 6.6615

                     25                     26                     27
                      A                      A                      A
 Frequencies --   1117.2724              1122.7395              1154.9199
 Red. masses --      1.6441                 1.7515                 1.4583
 Frc consts  --      1.2092                 1.3008                 1.1461
 IR Inten    --      0.4133                 3.0802                 1.2529

                     28                     29                     30
                      A                      A                      A
 Frequencies --   1168.3317              1210.3326              1215.4089
 Red. masses --      1.2288                 1.5271                 1.2938
 Frc consts  --      0.9883                 1.3180                 1.1260
 IR Inten    --      0.7930                17.9231                 5.6560

                     31                     32                     33
                      A                      A                      A
 Frequencies --   1230.8354              1241.7621              1255.8727
 Red. masses --      1.4626                 1.6783                 1.5045
 Frc consts  --      1.3055                 1.5247                 1.3981
 IR Inten    --     10.1143                 2.5476                 6.0666

                     34                     35                     36
                      A                      A                      A
 Frequencies --   1273.1854              1329.3740              1356.2345
 Red. masses --      1.2849                 1.9106                 1.3970
 Frc consts  --      1.2272                 1.9894                 1.5140
 IR Inten    --      0.1802                17.6870                 1.3038

                     37                     38                     39
                      A                      A                      A
 Frequencies --   1400.7228              1465.9050              1488.2187
 Red. masses --      2.3052                 1.1300                 1.1054
 Frc consts  --      2.6647                 1.4307                 1.4424
 IR Inten    --      2.1765                 1.4382                 5.2617

                     40                     41                     42
                      A                      A                      A
 Frequencies --   1513.2893              1531.7867              3009.6960
 Red. masses --      1.2966                 1.1111                 1.0811
 Frc consts  --      1.7494                 1.5361                 5.7696
 IR Inten    --      0.5957                 1.0026                60.3319

                     43                     44                     45
                      A                      A                      A
 Frequencies --   3021.3845              3061.8658              3065.3796
 Red. masses --      1.0594                 1.1103                 1.0553
 Frc consts  --      5.6980                 6.1329                 5.8425
 IR Inten    --     66.4700                30.2845                35.3085

                     46                     47                     48
                      A                      A                      A
 Frequencies --   3072.8645              3089.8730              3124.5833
 Red. masses --      1.0544                 1.0595                 1.0940
 Frc consts  --      5.8663                 5.9596                 6.2930
 IR Inten    --     21.0210                18.1533                59.3668

                     49                     50                     51
                      A                      A                      A
 Frequencies --   3144.7659              3147.7116              3153.1535
 Red. masses --      1.1096                 1.1105                 1.1121
 Frc consts  --      6.4653                 6.4827                 6.5143
 IR Inten    --     19.0491                19.2059                28.0884

 - Thermochemistry -
 -------------------
 Temperature   298.150 Kelvin.  Pressure   1.00000 Atm.
 Atom     1 has atomic number  6 and mass  12.00000

 Molecular mass:   126.06808 amu.
 Principal axes and moments of inertia in atomic units:
                           1         2         3
     Eigenvalues --   463.257701518.284321604.74597
           X            0.99959   0.02859   0.00313
           Y           -0.02824   0.99621  -0.08225
           Z           -0.00547   0.08213   0.99661
 This molecule is an asymmetric top.
 Rotational symmetry number  1.
 Warning -- assumption of classical behavior for rotation
           may cause significant error
 Rotational temperatures (Kelvin)      0.18697     0.05705     0.05397
 Rotational constants (GHZ):           3.89576     1.18867     1.12463
 Zero-point vibrational energy     418583.5 (Joules/Mol)
                                  100.04385 (Kcal/Mol)
 Warning -- explicit consideration of   8 degrees of freedom as
           vibrations may cause significant error
 Vibrational temperatures:     59.75   108.86   219.56   291.93   504.26
          (Kelvin)            590.50   751.94   852.43   922.00  1065.21
                             1121.85  1154.77  1195.72  1289.22  1319.36
                             1342.63  1358.95  1374.60  1416.76  1447.52
                             1485.01  1492.72  1546.21  1567.88  1607.50
                             1615.37  1661.67  1680.97  1741.40  1748.70
                             1770.90  1786.62  1806.92  1831.83  1912.67
                             1951.32  2015.33  2109.11  2141.21  2177.28
                             2203.90  4330.28  4347.09  4405.34  4410.39
                             4421.16  4445.63  4495.57  4524.61  4528.85
                             4536.68

 Zero-point correction=                           0.159430 (Hartree/Particle)
 Thermal correction to Energy=                    0.167246
 Thermal correction to Enthalpy=                  0.168191
 Thermal correction to Gibbs Free Energy=         0.125944
 Sum of electronic and zero-point Energies=           -422.933157
 Sum of electronic and thermal Energies=              -422.925341
 Sum of electronic and thermal Enthalpies=            -422.924397
 Sum of electronic and thermal Free Energies=         -422.966644

                     E (Thermal)             CV                S
                      KCal/Mol        Cal/Mol-Kelvin    Cal/Mol-Kelvin
 Total                  104.949             29.637             88.916
 Electronic               0.000              0.000              0.000
 Translational            0.889              2.981             40.409
 Rotational               0.889              2.981             28.514
 Vibrational            103.171             23.676             19.993
 Vibration     1          0.594              1.981              5.185
 Vibration     2          0.599              1.965              4.000
 Vibration     3          0.619              1.900              2.640
 Vibration     4          0.639              1.836              2.107
 Vibration     5          0.727              1.574              1.164
 Vibration     6          0.775              1.448              0.925
 Vibration     7          0.878              1.200              0.604
 Vibration     8          0.950              1.048              0.463

 Optimization completed.
    -- Stationary point found.
 Normal termination of Gaussian 09 at Mon Jan 27 13:32:59 2020.
