 Gaussian 09, Revision D.01,
 Gaussian 09:  ES64L-G09RevD.01 24-Apr-2013

 -----------------------------
 # b3lyp 6-31G(2df,p) opt Freq
 -----------------------------

 -----
 titel
 -----
 Symbolic Z-matrix:
 Charge =  0 Multiplicity = 1

 SCF Done:  E(RB3LYP) =  -423.118035855     A.U. after   14 cycles
 Optimization completed.
    -- Stationary point found.
 Normal termination of Gaussian 09 at Tue Jan 28 09:18:23 2020.

 ----------------------------------------------------------------------
 #N Geom=AllCheck Guess=TCheck SCRF=Check GenChk RB3LYP/6-31G(2df,p) Fr
 eq
 ----------------------------------------------------------------------

 Structure from the checkpoint file:  "/scratch/puck/g09_012eec1c-2612-4738-85c0-878a66c89fc7/Gau-109337.chk"
 -----
 titel
 -----
 Charge =  0 Multiplicity = 1

                         Standard orientation:
 ---------------------------------------------------------------------
 Center     Atomic      Atomic             Coordinates (Angstroms)
 Number     Number       Type             X           Y           Z
 ---------------------------------------------------------------------
      1          6           0        1.832431   -1.689291    0.258055
      2          6           0        1.052964   -0.436481    0.044553
      3          8           0        1.499856    0.501456   -0.939423
      4          6           0        0.208768    1.158939   -0.789900
      5          6           0        0.294324    1.805950    0.614544
      6          6           0        0.305759    0.366975    1.130006
      7          6           0       -0.402463   -0.142312   -0.140157
      8          6           0       -1.637205   -0.950210   -0.346744
      9          8           0       -2.826823   -0.253943    0.008467
     10          1           0        1.338979   -2.325988    0.998295
     11          1           0        1.931400   -2.253671   -0.674284
     12          1           0        2.837147   -1.456811    0.626730
     13          1           0       -0.117777    1.690813   -1.680803
     14          1           0        1.162466    2.445975    0.799732
     15          1           0       -0.632043    2.322286    0.879240
     16          1           0        0.201531    0.002674    2.145498
     17          1           0       -1.757096   -1.209153   -1.404516
     18          1           0       -1.545702   -1.898312    0.208963
     19          1           0       -2.730637    0.020657    0.926650
 ---------------------------------------------------------------------

 SCF Done:  E(RB3LYP) =  -423.118035855     A.U. after    1 cycles

 The electronic state is 1-A.
 Alpha  occ. eigenvalues --  -19.13603 -19.13316 -10.24479 -10.24044 -10.23612
 Alpha  occ. eigenvalues --  -10.19615 -10.19559 -10.18867 -10.18790  -1.05994
 Alpha  occ. eigenvalues --   -1.01665  -0.85748  -0.76406  -0.71874  -0.68104
 Alpha  occ. eigenvalues --   -0.63039  -0.55454  -0.53393  -0.50725  -0.49076
 Alpha  occ. eigenvalues --   -0.46225  -0.44959  -0.44106  -0.41726  -0.40830
 Alpha  occ. eigenvalues --   -0.39870  -0.37433  -0.36050  -0.34881  -0.32847
 Alpha  occ. eigenvalues --   -0.28727  -0.27399  -0.25928  -0.22735
 Alpha virt. eigenvalues --    0.06888   0.08690   0.08962   0.11165   0.12514
 Alpha virt. eigenvalues --    0.13152   0.13939   0.14528   0.15245   0.15769
 Alpha virt. eigenvalues --    0.17734   0.17910   0.20248   0.20523   0.21153

 Mulliken charges:
               1
     1  C   -0.508563
     2  C    0.415928
     3  O   -0.331706
     4  C    0.025568
     5  C   -0.234213
     6  C   -0.224463
     7  C    0.222553
     8  C   -0.222828
     9  O   -0.410234
    10  H    0.125284
    11  H    0.133313
    12  H    0.136438
    13  H    0.090467
    14  H    0.100870
    15  H    0.102626
    16  H    0.086438
    17  H    0.120340
    18  H    0.090636
    19  H    0.281548
 Sum of Mulliken charges =   0.00000

 Dipole moment (field-independent basis, Debye):
    X=             -0.0150    Y=             -0.6663    Z=              1.7596  Tot=              1.8816
 Quadrupole moment (field-independent basis, Debye-Ang):
   XX=            -60.9643   YY=            -50.1806   ZZ=            -51.0909
   XY=             -2.4708   XZ=             -0.4742   YZ=             -0.1857

  Exact polarizability:  77.726  -3.122  79.057   1.084   1.179  69.044
 Approx polarizability: 111.775  -3.873 108.633  -0.297   1.103 109.569

                      1                      2                      3
                      A                      A                      A
 Frequencies --     86.2451               111.1684               184.8324
 Red. masses --      3.3580                 4.0738                 1.1018
 Frc consts  --      0.0147                 0.0297                 0.0222
 IR Inten    --      2.6487                 2.0539                 0.2547

                      4                      5                      6
                      A                      A                      A
 Frequencies --    213.3470               268.6039               287.2691
 Red. masses --      2.0645                 2.5277                 2.1473
 Frc consts  --      0.0554                 0.1074                 0.1044
 IR Inten    --      1.8148                13.8298                11.4329

                      7                      8                      9
                      A                      A                      A
 Frequencies --    338.0169               403.7580               470.3500
 Red. masses --      1.3796                 2.5206                 2.9743
 Frc consts  --      0.0929                 0.2421                 0.3877
 IR Inten    --     79.7272                21.8542                 2.2750

                     10                     11                     12
                      A                      A                      A
 Frequencies --    598.6628               607.5674               658.5021
 Red. masses --      4.1998                 3.3533                 3.7002
 Frc consts  --      0.8868                 0.7293                 0.9453
 IR Inten    --      1.1985                 2.1135                 2.7766

                     13                     14                     15
                      A                      A                      A
 Frequencies --    728.5368               809.5399               864.4120
 Red. masses --      3.7437                 3.4422                 2.4613
 Frc consts  --      1.1707                 1.3291                 1.0836
 IR Inten    --      9.9010                 4.1812                13.7933

                     16                     17                     18
                      A                      A                      A
 Frequencies --    891.7741               922.5790               927.3322
 Red. masses --      2.5840                 1.7421                 1.8744
 Frc consts  --      1.2107                 0.8736                 0.9497
 IR Inten    --      2.5507                32.0657                 7.2874

                     19                     20                     21
                      A                      A                      A
 Frequencies --    933.3994               945.6419               994.1073
 Red. masses --      2.6348                 1.7572                 2.2978
 Frc consts  --      1.3525                 0.9258                 1.3379
 IR Inten    --     24.0998                 1.1446                 9.0639

                     22                     23                     24
                      A                      A                      A
 Frequencies --   1038.3042              1068.4244              1084.6117
 Red. masses --      4.1612                 1.9974                 2.6611
 Frc consts  --      2.6432                 1.3434                 1.8444
 IR Inten    --    114.2106                 4.8365                 7.8563

                     25                     26                     27
                      A                      A                      A
 Frequencies --   1103.2171              1118.5990              1153.6083
 Red. masses --      1.6290                 1.5270                 1.5774
 Frc consts  --      1.1682                 1.1258                 1.2368
 IR Inten    --     18.4911                 5.2577                 5.0895

                     28                     29                     30
                      A                      A                      A
 Frequencies --   1172.0210              1217.4149              1234.0544
 Red. masses --      1.7825                 1.7335                 1.3189
 Frc consts  --      1.4426                 1.5137                 1.1834
 IR Inten    --      6.8343                 9.6101                13.9805

                     31                     32                     33
                      A                      A                      A
 Frequencies --   1273.5461              1289.3299              1326.6108
 Red. masses --      1.6591                 2.0331                 2.6455
 Frc consts  --      1.5854                 1.9913                 2.7432
 IR Inten    --      5.1859                 7.9391                10.1180

                     34                     35                     36
                      A                      A                      A
 Frequencies --   1362.1995              1408.7147              1417.9013
 Red. masses --      1.2428                 1.3008                 1.2913
 Frc consts  --      1.3587                 1.5210                 1.5296
 IR Inten    --      2.5812                 5.2565                63.1495

                     37                     38                     39
                      A                      A                      A
 Frequencies --   1471.4181              1482.0888              1486.3395
 Red. masses --      1.1165                 1.5776                 1.3145
 Frc consts  --      1.4243                 2.0418                 1.7110
 IR Inten    --      8.9023                 7.4617                 9.4872

                     40                     41                     42
                      A                      A                      A
 Frequencies --   1493.9335              1509.0689              2966.2888
 Red. masses --      1.0894                 1.5189                 1.0709
 Frc consts  --      1.4325                 2.0380                 5.5517
 IR Inten    --      0.8584                 9.9099                53.7936

                     43                     44                     45
                      A                      A                      A
 Frequencies --   3036.6302              3049.4018              3064.5491
 Red. masses --      1.0352                 1.0567                 1.0903
 Frc consts  --      5.6240                 5.7896                 6.0329
 IR Inten    --     24.9662                46.0572                24.9930

                     46                     47                     48
                      A                      A                      A
 Frequencies --   3102.8747              3112.1608              3114.5917
 Red. masses --      1.1012                 1.1080                 1.1009
 Frc consts  --      6.2468                 6.3228                 6.2920
 IR Inten    --     14.9042                20.3414                17.2871

                     49                     50                     51
                      A                      A                      A
 Frequencies --   3148.7018              3183.8761              3807.7675
 Red. masses --      1.0929                 1.0927                 1.0660
 Frc consts  --      6.3841                 6.5260                 9.1062
 IR Inten    --     32.3536                13.3456                11.5639

 - Thermochemistry -
 -------------------
 Temperature   298.150 Kelvin.  Pressure   1.00000 Atm.
 Atom     1 has atomic number  6 and mass  12.00000

 Molecular mass:   126.06808 amu.
 Principal axes and moments of inertia in atomic units:
                           1         2         3
     Eigenvalues --   710.544061215.882461515.51424
           X            0.99921  -0.03821   0.01056
           Y            0.03813   0.99924   0.00765
           Z           -0.01085  -0.00724   0.99991
 This molecule is an asymmetric top.
 Rotational symmetry number  1.
 Warning -- assumption of classical behavior for rotation
           may cause significant error
 Rotational temperatures (Kelvin)      0.12190     0.07124     0.05715
 Rotational constants (GHZ):           2.53994     1.48431     1.19084
 Zero-point vibrational energy     415964.9 (Joules/Mol)
                                   99.41799 (Kcal/Mol)
 Warning -- explicit consideration of  11 degrees of freedom as
           vibrations may cause significant error
 Vibrational temperatures:    124.09   159.95   265.93   306.96   386.46
          (Kelvin)            413.32   486.33   580.92   676.73   861.34
                              874.15   947.44  1048.20  1164.75  1243.69
                             1283.06  1327.38  1334.22  1342.95  1360.57
                             1430.30  1493.89  1537.22  1560.51  1587.28
                             1609.41  1659.78  1686.27  1751.59  1775.53
                             1832.35  1855.06  1908.69  1959.90  2026.82
                             2040.04  2117.04  2132.39  2138.51  2149.43
                             2171.21  4267.82  4369.03  4387.40  4409.20
                             4464.34  4477.70  4481.20  4530.27  4580.88
                             5478.52

 Zero-point correction=                           0.158433 (Hartree/Particle)
 Thermal correction to Energy=                    0.166947
 Thermal correction to Enthalpy=                  0.167891
 Thermal correction to Gibbs Free Energy=         0.125281
 Sum of electronic and zero-point Energies=           -422.959603
 Sum of electronic and thermal Energies=              -422.951089
 Sum of electronic and thermal Enthalpies=            -422.950145
 Sum of electronic and thermal Free Energies=         -422.992755

                     E (Thermal)             CV                S
                      KCal/Mol        Cal/Mol-Kelvin    Cal/Mol-Kelvin
 Total                  104.761             32.478             89.680
 Electronic               0.000              0.000              0.000
 Translational            0.889              2.981             40.409
 Rotational               0.889              2.981             28.661
 Vibrational            102.983             26.517             20.610
 Vibration     1          0.601              1.959              3.743
 Vibration     2          0.607              1.940              3.248
 Vibration     3          0.631              1.861              2.279
 Vibration     4          0.644              1.821              2.015
 Vibration     5          0.673              1.731              1.605
 Vibration     6          0.684              1.697              1.490
 Vibration     7          0.718              1.600              1.221
 Vibration     8          0.769              1.462              0.949
 Vibration     9          0.827              1.316              0.737
 Vibration    10          0.957              1.035              0.452
 Vibration    11          0.966              1.016              0.437

 Optimization completed.
    -- Stationary point found.
 Normal termination of Gaussian 09 at Tue Jan 28 10:05:38 2020.
