 Gaussian 09, Revision D.01,
 Gaussian 09:  ES64L-G09RevD.01 24-Apr-2013

 -----------------------------
 # b3lyp 6-31G(2df,p) opt Freq
 -----------------------------

 -----
 titel
 -----
 Symbolic Z-matrix:
 Charge =  0 Multiplicity = 1

 SCF Done:  E(RB3LYP) =  -423.128222766     A.U. after   13 cycles
 Optimization completed.
    -- Stationary point found.
 Normal termination of Gaussian 09 at Mon Jan 27 14:20:17 2020.

 ----------------------------------------------------------------------
 #N Geom=AllCheck Guess=TCheck SCRF=Check GenChk RB3LYP/6-31G(2df,p) Fr
 eq
 ----------------------------------------------------------------------

 Structure from the checkpoint file:  "/scratch/puck/g09_b38e3f1c-47f8-4b4b-b18e-87a7a8258e03/Gau-58163.chk"
 -----
 titel
 -----
 Charge =  0 Multiplicity = 1

                         Standard orientation:
 ---------------------------------------------------------------------
 Center     Atomic      Atomic             Coordinates (Angstroms)
 Number     Number       Type             X           Y           Z
 ---------------------------------------------------------------------
      1          6           0        1.186596    1.721621   -0.563850
      2          6           0        0.718844    0.403685    0.082787
      3          8           0        0.407503    0.612549    1.457521
      4          6           0        1.763442   -0.619382   -0.002596
      5          6           0        2.606865   -1.465736   -0.127679
      6          6           0       -0.545266   -0.115973   -0.637060
      7          6           0       -1.257623   -1.347929   -0.046748
      8          6           0       -2.465603   -0.404344    0.099624
      9          8           0       -1.674170    0.739175   -0.316330
     10          1           0        0.361198    2.440171   -0.561245
     11          1           0        2.019775    2.133818    0.008761
     12          1           0        1.509476    1.562437   -1.596516
     13          1           0       -0.419717    1.115230    1.441240
     14          1           0        3.359626   -2.209234   -0.221451
     15          1           0       -0.370364   -0.156221   -1.718951
     16          1           0       -1.380654   -2.200477   -0.714174
     17          1           0       -0.827083   -1.671733    0.900580
     18          1           0       -3.288203   -0.588517   -0.601351
     19          1           0       -2.874249   -0.270911    1.106710
 ---------------------------------------------------------------------

 SCF Done:  E(RB3LYP) =  -423.128222766     A.U. after    1 cycles

 The electronic state is 1-A.
 Alpha  occ. eigenvalues --  -19.14643 -19.13596 -10.26038 -10.24119 -10.23807
 Alpha  occ. eigenvalues --  -10.18994 -10.18285 -10.17860 -10.17816  -1.05293
 Alpha  occ. eigenvalues --   -1.01687  -0.79698  -0.74749  -0.72995  -0.69111
 Alpha  occ. eigenvalues --   -0.63389  -0.56773  -0.52892  -0.51784  -0.49686
 Alpha  occ. eigenvalues --   -0.48137  -0.45380  -0.43628  -0.42554  -0.40015
 Alpha  occ. eigenvalues --   -0.38479  -0.37977  -0.33963  -0.33060  -0.31690
 Alpha  occ. eigenvalues --   -0.28649  -0.27785  -0.27206  -0.25200
 Alpha virt. eigenvalues --    0.03413   0.04903   0.08413   0.09938   0.10504
 Alpha virt. eigenvalues --    0.11991   0.12494   0.14601   0.14821   0.15901
 Alpha virt. eigenvalues --    0.17310   0.18534   0.18829   0.21232   0.21916

 Mulliken charges:
               1
     1  C   -0.426857
     2  C    0.120408
     3  O   -0.463858
     4  C    0.369547
     5  C   -0.475431
     6  C    0.137089
     7  C   -0.287943
     8  C   -0.075560
     9  O   -0.317212
    10  H    0.130064
    11  H    0.133442
    12  H    0.121411
    13  H    0.286118
    14  H    0.199190
    15  H    0.083137
    16  H    0.111901
    17  H    0.134624
    18  H    0.108903
    19  H    0.111026
 Sum of Mulliken charges =   0.00000

 Dipole moment (field-independent basis, Debye):
    X=             -0.8606    Y=             -1.0238    Z=             -1.0656  Tot=              1.7101
 Quadrupole moment (field-independent basis, Debye-Ang):
   XX=            -49.5166   YY=            -50.7077   ZZ=            -54.9134
   XY=              0.0543   XZ=             -3.2865   YZ=              1.2163

  Exact polarizability:  91.849  -8.356  76.872  -3.640   1.262  61.947
 Approx polarizability: 123.845 -22.390 115.231  -5.652   4.041  95.137

                      1                      2                      3
                      A                      A                      A
 Frequencies --     82.3568                98.2894               132.9994
 Red. masses --      2.9533                 2.8483                 4.0736
 Frc consts  --      0.0118                 0.0162                 0.0425
 IR Inten    --      0.9310                 3.6791                 2.7440

                      4                      5                      6
                      A                      A                      A
 Frequencies --    185.3791               227.4591               252.3564
 Red. masses --      3.5216                 2.1185                 1.3083
 Frc consts  --      0.0713                 0.0646                 0.0491
 IR Inten    --      2.2278                 5.0812                 0.0924

                      7                      8                      9
                      A                      A                      A
 Frequencies --    291.0774               357.7742               419.3089
 Red. masses --      3.1604                 3.1392                 3.5341
 Frc consts  --      0.1578                 0.2368                 0.3661
 IR Inten    --     11.3039                 8.3005                 1.6539

                     10                     11                     12
                      A                      A                      A
 Frequencies --    467.6500               474.2080               555.0265
 Red. masses --      3.0357                 1.4719                 4.8230
 Frc consts  --      0.3912                 0.1950                 0.8754
 IR Inten    --     26.6742                77.9304                 9.0491

                     13                     14                     15
                      A                      A                      A
 Frequencies --    597.4925               631.6629               670.0508
 Red. masses --      3.9720                 1.2283                 1.2643
 Frc consts  --      0.8355                 0.2887                 0.3344
 IR Inten    --     14.6308                46.3404                35.8854

                     16                     17                     18
                      A                      A                      A
 Frequencies --    708.6850               787.1190               834.1606
 Red. masses --      2.3082                 1.7622                 2.0515
 Frc consts  --      0.6830                 0.6433                 0.8410
 IR Inten    --      4.8028                 2.9927                 3.6797

                     19                     20                     21
                      A                      A                      A
 Frequencies --    887.8045               944.4865               952.8572
 Red. masses --      2.6310                 2.6999                 2.1473
 Frc consts  --      1.2218                 1.4190                 1.1487
 IR Inten    --      9.8891                26.3780                10.1988

                     22                     23                     24
                      A                      A                      A
 Frequencies --    989.9096              1011.6524              1024.4714
 Red. masses --      2.4835                 6.9378                 1.8828
 Frc consts  --      1.4338                 4.1834                 1.1643
 IR Inten    --     44.5224                94.5153                17.3649

                     25                     26                     27
                      A                      A                      A
 Frequencies --   1078.4189              1134.5639              1141.3564
 Red. masses --      4.2574                 2.2077                 1.9156
 Frc consts  --      2.9172                 1.6743                 1.4703
 IR Inten    --     15.8546                42.2124                30.7348

                     28                     29                     30
                      A                      A                      A
 Frequencies --   1173.8564              1201.0970              1220.7253
 Red. masses --      1.2505                 2.8837                 1.2879
 Frc consts  --      1.0152                 2.4511                 1.1307
 IR Inten    --      2.1277                31.7445                 2.0723

                     31                     32                     33
                      A                      A                      A
 Frequencies --   1260.6186              1274.8857              1350.2090
 Red. masses --      1.4409                 1.2352                 1.3744
 Frc consts  --      1.3491                 1.1829                 1.4763
 IR Inten    --      8.0339                 8.8581                18.9369

                     34                     35                     36
                      A                      A                      A
 Frequencies --   1359.3453              1397.0130              1404.5152
 Red. masses --      1.5317                 1.2368                 1.5004
 Frc consts  --      1.6675                 1.4221                 1.7439
 IR Inten    --     13.3443                 7.5957                44.0357

                     37                     38                     39
                      A                      A                      A
 Frequencies --   1480.6778              1489.7335              1492.1449
 Red. masses --      1.1081                 1.0546                 1.0813
 Frc consts  --      1.4314                 1.3790                 1.4184
 IR Inten    --      5.2415                 1.2917                 6.5152

                     40                     41                     42
                      A                      A                      A
 Frequencies --   1528.0119              2240.2155              3026.5695
 Red. masses --      1.1091                 5.9030                 1.0599
 Frc consts  --      1.5257                17.4542                 5.7203
 IR Inten    --      0.8454                 1.1368                92.6673

                     43                     44                     45
                      A                      A                      A
 Frequencies --   3034.4974              3044.7887              3075.1353
 Red. masses --      1.0795                 1.0369                 1.1103
 Frc consts  --      5.8569                 5.6635                 6.1862
 IR Inten    --     22.8835                17.4783                30.3597

                     46                     47                     48
                      A                      A                      A
 Frequencies --   3096.5335              3119.6674              3137.9539
 Red. masses --      1.0590                 1.1021                 1.1026
 Frc consts  --      5.9830                 6.3196                 6.3970
 IR Inten    --     15.8995                17.6314                12.7715

                     49                     50                     51
                      A                      A                      A
 Frequencies --   3157.0190              3500.6620              3740.0139
 Red. masses --      1.1092                 1.1631                 1.0645
 Frc consts  --      6.5136                 8.3978                 8.7729
 IR Inten    --     12.5698                63.1583                37.9554

 - Thermochemistry -
 -------------------
 Temperature   298.150 Kelvin.  Pressure   1.00000 Atm.
 Atom     1 has atomic number  6 and mass  12.00000

 Molecular mass:   126.06808 amu.
 Principal axes and moments of inertia in atomic units:
                           1         2         3
     Eigenvalues --   675.759421359.829131639.17691
           X            0.99926   0.03506  -0.01605
           Y           -0.03535   0.99920  -0.01858
           Z            0.01539   0.01913   0.99970
 This molecule is an asymmetric top.
 Rotational symmetry number  1.
 Warning -- assumption of classical behavior for rotation
           may cause significant error
 Rotational temperatures (Kelvin)      0.12817     0.06369     0.05284
 Rotational constants (GHZ):           2.67069     1.32718     1.10100
 Zero-point vibrational energy     411183.2 (Joules/Mol)
                                   98.27515 (Kcal/Mol)
 Warning -- explicit consideration of  13 degrees of freedom as
           vibrations may cause significant error
 Vibrational temperatures:    118.49   141.42   191.36   266.72   327.26
          (Kelvin)            363.08   418.79   514.76   603.29   672.84
                              682.28   798.56   859.66   908.82   964.05
                             1019.64  1132.49  1200.17  1277.35  1358.90
                             1370.95  1424.26  1455.54  1473.98  1551.60
                             1632.38  1642.16  1688.92  1728.11  1756.35
                             1813.75  1834.27  1942.65  1955.79  2009.99
                             2020.78  2130.36  2143.39  2146.86  2198.47
                             3223.17  4354.55  4365.96  4380.77  4424.43
                             4455.22  4488.50  4514.81  4542.24  5036.67
                             5381.04

 Zero-point correction=                           0.156611 (Hartree/Particle)
 Thermal correction to Energy=                    0.166108
 Thermal correction to Enthalpy=                  0.167052
 Thermal correction to Gibbs Free Energy=         0.122463
 Sum of electronic and zero-point Energies=           -422.971611
 Sum of electronic and thermal Energies=              -422.962115
 Sum of electronic and thermal Enthalpies=            -422.961170
 Sum of electronic and thermal Free Energies=         -423.005760

                     E (Thermal)             CV                S
                      KCal/Mol        Cal/Mol-Kelvin    Cal/Mol-Kelvin
 Total                  104.234             35.624             93.847
 Electronic               0.000              0.000              0.000
 Translational            0.889              2.981             40.409
 Rotational               0.889              2.981             28.801
 Vibrational            102.457             29.663             24.637
 Vibration     1          0.600              1.961              3.834
 Vibration     2          0.604              1.950              3.488
 Vibration     3          0.613              1.920              2.902
 Vibration     4          0.631              1.860              2.274
 Vibration     5          0.651              1.799              1.899
 Vibration     6          0.664              1.759              1.714
 Vibration     7          0.687              1.690              1.468
 Vibration     8          0.733              1.559              1.132
 Vibration     9          0.782              1.428              0.894
 Vibration    10          0.825              1.322              0.744
 Vibration    11          0.831              1.307              0.726
 Vibration    12          0.910              1.129              0.534
 Vibration    13          0.955              1.037              0.454

 Optimization completed.
    -- Stationary point found.
 Normal termination of Gaussian 09 at Mon Jan 27 15:05:06 2020.
