 Gaussian 09, Revision D.01,
 Gaussian 09:  ES64L-G09RevD.01 24-Apr-2013

 -----------------------------
 # b3lyp 6-31G(2df,p) opt Freq
 -----------------------------

 -----
 titel
 -----
 Symbolic Z-matrix:
 Charge =  0 Multiplicity = 1

 SCF Done:  E(RB3LYP) =  -423.149524273     A.U. after   14 cycles
 Optimization completed.
    -- Stationary point found.
 Normal termination of Gaussian 09 at Tue Jan 28 09:07:19 2020.

 ----------------------------------------------------------------------
 #N Geom=AllCheck Guess=TCheck SCRF=Check GenChk RB3LYP/6-31G(2df,p) Fr
 eq
 ----------------------------------------------------------------------

 Structure from the checkpoint file:  "/scratch/puck/g09_648d4f42-2ad4-4753-9611-0c12ce842edb/Gau-20092.chk"
 -----
 titel
 -----
 Charge =  0 Multiplicity = 1

                         Standard orientation:
 ---------------------------------------------------------------------
 Center     Atomic      Atomic             Coordinates (Angstroms)
 Number     Number       Type             X           Y           Z
 ---------------------------------------------------------------------
      1          6           0       -2.021497   -1.609135   -0.257989
      2          6           0       -0.962742   -1.094626    0.717133
      3          6           0       -0.147813    0.095616    0.176995
      4          6           0        1.073673    0.432020    1.094286
      5          8           0        2.156537   -0.226201    0.462744
      6          6           0        1.874136   -0.097353   -0.906258
      7          8           0        0.486662   -0.312178   -1.053180
      8          6           0       -0.988026    1.274750   -0.046284
      9          6           0       -1.676112    2.248195   -0.200663
     10          1           0       -2.764023   -0.835675   -0.475759
     11          1           0       -1.559492   -1.911898   -1.200893
     12          1           0       -2.543938   -2.473129    0.162926
     13          1           0       -1.429301   -0.786707    1.660401
     14          1           0       -0.242484   -1.887321    0.950340
     15          1           0        1.236512    1.517279    1.136938
     16          1           0        0.963551    0.036899    2.105624
     17          1           0        2.148243    0.909546   -1.269882
     18          1           0        2.420491   -0.864820   -1.461040
     19          1           0       -2.284860    3.106069   -0.348487
 ---------------------------------------------------------------------

 SCF Done:  E(RB3LYP) =  -423.149524273     A.U. after    1 cycles

 The electronic state is 1-A.
 Alpha  occ. eigenvalues --  -19.15618 -19.14982 -10.27768 -10.26565 -10.24058
 Alpha  occ. eigenvalues --  -10.18815 -10.18542 -10.18134 -10.17019  -1.09576
 Alpha  occ. eigenvalues --   -1.00103  -0.81834  -0.74753  -0.73141  -0.65365
 Alpha  occ. eigenvalues --   -0.64104  -0.60828  -0.53637  -0.51112  -0.50868
 Alpha  occ. eigenvalues --   -0.48541  -0.46329  -0.43355  -0.42734  -0.40564
 Alpha  occ. eigenvalues --   -0.38365  -0.36116  -0.35153  -0.34393  -0.33472
 Alpha  occ. eigenvalues --   -0.28836  -0.27672  -0.27172  -0.25972
 Alpha virt. eigenvalues --    0.03149   0.04908   0.09679   0.10437   0.12152
 Alpha virt. eigenvalues --    0.13265   0.13912   0.14101   0.15995   0.16297
 Alpha virt. eigenvalues --    0.16995   0.17830   0.18673   0.20495   0.21283

 Mulliken charges:
               1
     1  C   -0.391138
     2  C   -0.212921
     3  C    0.170029
     4  C   -0.166488
     5  O   -0.231862
     6  C    0.014084
     7  O   -0.278671
     8  C    0.348297
     9  C   -0.484449
    10  H    0.127196
    11  H    0.135439
    12  H    0.110780
    13  H    0.102462
    14  H    0.108901
    15  H    0.108349
    16  H    0.126096
    17  H    0.090121
    18  H    0.123164
    19  H    0.200610
 Sum of Mulliken charges =   0.00000

 Dipole moment (field-independent basis, Debye):
    X=             -0.3805    Y=              0.6245    Z=              0.6547  Tot=              0.9815
 Quadrupole moment (field-independent basis, Debye-Ang):
   XX=            -53.3097   YY=            -49.9399   ZZ=            -53.0460
   XY=             -1.1472   XZ=             -2.6255   YZ=             -0.3707

  Exact polarizability:  82.790  -8.635  83.010  -1.825  -1.206  64.910
 Approx polarizability: 114.031 -22.518 123.224  -0.412  -2.556  96.640

                      1                      2                      3
                      A                      A                      A
 Frequencies --     43.9494               115.2474               161.1375
 Red. masses --      3.4808                 2.6920                 2.4874
 Frc consts  --      0.0040                 0.0211                 0.0381
 IR Inten    --      1.0665                 0.1088                 0.4970

                      4                      5                      6
                      A                      A                      A
 Frequencies --    168.8075               211.9132               252.0102
 Red. masses --      3.8112                 1.7861                 1.6143
 Frc consts  --      0.0640                 0.0473                 0.0604
 IR Inten    --      0.2045                 0.7172                 0.6543

                      7                      8                      9
                      A                      A                      A
 Frequencies --    296.0807               372.9287               408.8553
 Red. masses --      2.2867                 2.5406                 3.1502
 Frc consts  --      0.1181                 0.2082                 0.3103
 IR Inten    --     10.5973                 0.3809                 2.3178

                     10                     11                     12
                      A                      A                      A
 Frequencies --    506.5836               540.1975               622.0716
 Red. masses --      7.6204                 6.3764                 3.2362
 Frc consts  --      1.1522                 1.0963                 0.7378
 IR Inten    --      2.2184                 4.9833                 2.6489

                     13                     14                     15
                      A                      A                      A
 Frequencies --    631.3834               662.4952               734.9998
 Red. masses --      1.2942                 1.2556                 7.4006
 Frc consts  --      0.3040                 0.3247                 2.3555
 IR Inten    --     40.1229                35.1128                 2.5241

                     16                     17                     18
                      A                      A                      A
 Frequencies --    771.3583               792.4062               914.5369
 Red. masses --      3.6668                 1.3257                 2.0470
 Frc consts  --      1.2854                 0.4905                 1.0087
 IR Inten    --      9.5419                 2.8857                20.2587

                     19                     20                     21
                      A                      A                      A
 Frequencies --    960.7642               978.3714              1014.5711
 Red. masses --      2.6933                 3.0070                 1.5619
 Frc consts  --      1.4648                 1.6959                 0.9473
 IR Inten    --     55.7620                54.7802                 7.8633

                     22                     23                     24
                      A                      A                      A
 Frequencies --   1032.4696              1048.5192              1108.6346
 Red. masses --      3.8824                 6.4236                 3.8852
 Frc consts  --      2.4384                 4.1608                 2.8134
 IR Inten    --      6.4589                57.3919               135.1483

                     25                     26                     27
                      A                      A                      A
 Frequencies --   1131.7089              1156.6616              1177.6907
 Red. masses --      2.4448                 2.3642                 1.8479
 Frc consts  --      1.8449                 1.8636                 1.5100
 IR Inten    --     17.3461                 8.8540                69.2982

                     28                     29                     30
                      A                      A                      A
 Frequencies --   1211.6995              1226.4837              1277.3040
 Red. masses --      1.8701                 1.4646                 1.2738
 Frc consts  --      1.6178                 1.2980                 1.2245
 IR Inten    --      3.8427                 7.6608                10.9891

                     31                     32                     33
                      A                      A                      A
 Frequencies --   1312.6057              1359.7683              1365.5643
 Red. masses --      1.2435                 1.2582                 1.4736
 Frc consts  --      1.2623                 1.3706                 1.6190
 IR Inten    --     10.8302                 1.6022                 2.6790

                     34                     35                     36
                      A                      A                      A
 Frequencies --   1410.2910              1426.4095              1475.7931
 Red. masses --      1.2397                 1.2652                 1.0800
 Frc consts  --      1.4527                 1.5167                 1.3858
 IR Inten    --      6.0685                 6.6407                 0.9754

                     37                     38                     39
                      A                      A                      A
 Frequencies --   1496.3285              1508.6759              1511.0906
 Red. masses --      1.0385                 1.0831                 1.0582
 Frc consts  --      1.3700                 1.4525                 1.4237
 IR Inten    --      3.6012                 4.1491                 3.2810

                     40                     41                     42
                      A                      A                      A
 Frequencies --   1540.1188              2232.3431              2940.9193
 Red. masses --      1.1073                 5.9142                 1.0701
 Frc consts  --      1.5475                17.3647                 5.4529
 IR Inten    --      4.3192                 0.8735               102.1107

                     43                     44                     45
                      A                      A                      A
 Frequencies --   3016.0884              3031.7710              3046.3878
 Red. masses --      1.0672                 1.0592                 1.0353
 Frc consts  --      5.7201                 5.7359                 5.6609
 IR Inten    --     39.2793                19.2009                21.5683

                     46                     47                     48
                      A                      A                      A
 Frequencies --   3074.5212              3094.7379              3114.0554
 Red. masses --      1.1031                 1.0945                 1.1016
 Frc consts  --      6.1434                 6.1763                 6.2942
 IR Inten    --     14.5167                39.6656                23.9037

                     49                     50                     51
                      A                      A                      A
 Frequencies --   3118.0557              3128.8626              3499.9600
 Red. masses --      1.0987                 1.1017                 1.1623
 Frc consts  --      6.2937                 6.3548                 8.3889
 IR Inten    --     20.8743                20.7080                64.8000

 - Thermochemistry -
 -------------------
 Temperature   298.150 Kelvin.  Pressure   1.00000 Atm.
 Atom     1 has atomic number  6 and mass  12.00000

 Molecular mass:   126.06808 amu.
 Principal axes and moments of inertia in atomic units:
                           1         2         3
     Eigenvalues --   808.928081234.825231556.05964
           X            0.99777   0.06617  -0.00907
           Y           -0.06618   0.99781  -0.00091
           Z            0.00899   0.00151   0.99996
 This molecule is an asymmetric top.
 Rotational symmetry number  1.
 Warning -- assumption of classical behavior for rotation
           may cause significant error
 Rotational temperatures (Kelvin)      0.10707     0.07014     0.05566
 Rotational constants (GHZ):           2.23103     1.46154     1.15981
 Zero-point vibrational energy     414124.4 (Joules/Mol)
                                   98.97810 (Kcal/Mol)
 Warning -- explicit consideration of  11 degrees of freedom as
           vibrations may cause significant error
 Vibrational temperatures:     63.23   165.82   231.84   242.88   304.90
          (Kelvin)            362.59   425.99   536.56   588.25   728.86
                              777.22   895.02   908.42   953.18  1057.50
                             1109.81  1140.09  1315.81  1382.32  1407.66
                             1459.74  1485.49  1508.58  1595.08  1628.27
                             1664.18  1694.43  1743.36  1764.63  1837.75
                             1888.54  1956.40  1964.74  2029.09  2052.28
                             2123.33  2152.88  2170.65  2174.12  2215.88
                             3211.84  4231.32  4339.47  4362.04  4383.07
                             4423.54  4452.63  4480.43  4486.18  4501.73
                             5035.66

 Zero-point correction=                           0.157732 (Hartree/Particle)
 Thermal correction to Energy=                    0.166970
 Thermal correction to Enthalpy=                  0.167914
 Thermal correction to Gibbs Free Energy=         0.123342
 Sum of electronic and zero-point Energies=           -422.991793
 Sum of electronic and thermal Energies=              -422.982554
 Sum of electronic and thermal Enthalpies=            -422.981610
 Sum of electronic and thermal Free Energies=         -423.026182

                     E (Thermal)             CV                S
                      KCal/Mol        Cal/Mol-Kelvin    Cal/Mol-Kelvin
 Total                  104.775             34.085             93.809
 Electronic               0.000              0.000              0.000
 Translational            0.889              2.981             40.409
 Rotational               0.889              2.981             28.832
 Vibrational            102.998             28.123             24.568
 Vibration     1          0.595              1.980              5.073
 Vibration     2          0.608              1.937              3.179
 Vibration     3          0.622              1.890              2.536
 Vibration     4          0.625              1.881              2.449
 Vibration     5          0.643              1.823              2.027
 Vibration     6          0.664              1.759              1.716
 Vibration     7          0.690              1.681              1.439
 Vibration     8          0.744              1.528              1.068
 Vibration     9          0.773              1.451              0.931
 Vibration    10          0.862              1.235              0.642
 Vibration    11          0.895              1.161              0.565

 Optimization completed.
    -- Stationary point found.
 Normal termination of Gaussian 09 at Tue Jan 28 09:49:15 2020.
