 Gaussian 09, Revision D.01,
 Gaussian 09:  ES64L-G09RevD.01 24-Apr-2013

 -----------------------------
 # b3lyp 6-31G(2df,p) opt Freq
 -----------------------------

 -----
 titel
 -----
 Symbolic Z-matrix:
 Charge =  0 Multiplicity = 1

 SCF Done:  E(RB3LYP) =  -423.163187829     A.U. after   13 cycles
 Optimization completed.
    -- Stationary point found.
 Normal termination of Gaussian 09 at Mon Jan 27 18:19:47 2020.

 ----------------------------------------------------------------------
 #N Geom=AllCheck Guess=TCheck SCRF=Check GenChk RB3LYP/6-31G(2df,p) Fr
 eq
 ----------------------------------------------------------------------

 Structure from the checkpoint file:  "/scratch/puck/g09_2075cdf9-6ea7-4164-ac4c-d8d6f4a3f95f/Gau-4336.chk"
 -----
 titel
 -----
 Charge =  0 Multiplicity = 1

                         Standard orientation:
 ---------------------------------------------------------------------
 Center     Atomic      Atomic             Coordinates (Angstroms)
 Number     Number       Type             X           Y           Z
 ---------------------------------------------------------------------
      1          8           0        2.126728   -0.769914   -0.357213
      2          6           0        0.765718   -0.625168   -0.122925
      3          6           0       -0.341744   -1.571595   -0.551767
      4          6           0       -1.248402   -0.889121    0.535019
      5          6           0       -2.079935    0.255460   -0.076038
      6          6           0       -1.018877    1.237644   -0.638227
      7          6           0        0.275267    0.799971    0.039541
      8          8           0        1.270259    1.757162    0.186480
      9          6           0        0.008511   -0.210781    1.141896
     10          1           0        2.468515   -1.476651    0.201105
     11          1           0       -0.682425   -1.542602   -1.593327
     12          1           0       -0.108558   -2.606458   -0.279970
     13          1           0       -1.813114   -1.574973    1.165625
     14          1           0       -2.777073   -0.101759   -0.840311
     15          1           0       -2.671642    0.740142    0.707830
     16          1           0       -0.942143    1.191764   -1.729771
     17          1           0       -1.231985    2.277350   -0.374129
     18          1           0        2.106392    1.322919   -0.030941
     19          1           0        0.312919   -0.106180    2.174760
 ---------------------------------------------------------------------

 SCF Done:  E(RB3LYP) =  -423.163187829     A.U. after    1 cycles

 The electronic state is 1-A.
 Alpha  occ. eigenvalues --  -19.16277 -19.13186 -10.23731 -10.23044 -10.19254
 Alpha  occ. eigenvalues --  -10.18392 -10.17768 -10.17654 -10.17354  -1.05161
 Alpha  occ. eigenvalues --   -1.01481  -0.89614  -0.75428  -0.72416  -0.66111
 Alpha  occ. eigenvalues --   -0.60840  -0.55326  -0.54514  -0.53257  -0.48585
 Alpha  occ. eigenvalues --   -0.47026  -0.44464  -0.41274  -0.40901  -0.39522
 Alpha  occ. eigenvalues --   -0.37395  -0.36132  -0.35227  -0.33211  -0.32256
 Alpha  occ. eigenvalues --   -0.30318  -0.29820  -0.24790  -0.22402
 Alpha virt. eigenvalues --    0.06106   0.09178   0.10975   0.12624   0.13283
 Alpha virt. eigenvalues --    0.14222   0.15141   0.16206   0.16407   0.17616
 Alpha virt. eigenvalues --    0.18525   0.19445   0.20762   0.22407   0.23738

 Mulliken charges:
               1
     1  O   -0.473566
     2  C    0.302590
     3  C   -0.302227
     4  C   -0.046123
     5  C   -0.205330
     6  C   -0.287437
     7  C    0.432547
     8  O   -0.500091
     9  C   -0.250042
    10  H    0.291260
    11  H    0.093182
    12  H    0.092066
    13  H    0.070942
    14  H    0.095182
    15  H    0.099431
    16  H    0.099977
    17  H    0.110003
    18  H    0.288600
    19  H    0.089036
 Sum of Mulliken charges =   0.00000

 Dipole moment (field-independent basis, Debye):
    X=             -0.0685    Y=             -2.2738    Z=              0.6455  Tot=              2.3647
 Quadrupole moment (field-independent basis, Debye-Ang):
   XX=            -49.8524   YY=            -54.1798   ZZ=            -52.9008
   XY=             -3.4987   XZ=              2.0050   YZ=             -2.0562

  Exact polarizability:  79.946  -1.324  76.010   0.538  -0.767  65.784
 Approx polarizability: 111.456  -0.921 110.460  -2.283  -0.495 104.127

                      1                      2                      3
                      A                      A                      A
 Frequencies --    193.7030               209.3219               274.8041
 Red. masses --      2.1436                 2.9775                 2.6064
 Frc consts  --      0.0474                 0.0769                 0.1160
 IR Inten    --      0.5574                 8.1826                 0.7645

                      4                      5                      6
                      A                      A                      A
 Frequencies --    302.1124               346.0457               390.6452
 Red. masses --      1.6539                 2.0074                 2.0235
 Frc consts  --      0.0889                 0.1416                 0.1819
 IR Inten    --     37.3584                 4.7139                57.7170

                      7                      8                      9
                      A                      A                      A
 Frequencies --    403.5804               445.9802               453.9176
 Red. masses --      1.7489                 2.2060                 2.8184
 Frc consts  --      0.1678                 0.2585                 0.3421
 IR Inten    --     21.1193                35.3661                 4.2823

                     10                     11                     12
                      A                      A                      A
 Frequencies --    582.5215               630.6902               670.9620
 Red. masses --      3.1886                 4.4833                 3.4256
 Frc consts  --      0.6375                 1.0507                 0.9086
 IR Inten    --      4.9493                 2.5251                 7.0342

                     13                     14                     15
                      A                      A                      A
 Frequencies --    729.0770               755.6187               824.3539
 Red. masses --      3.5743                 3.9512                 2.0100
 Frc consts  --      1.1194                 1.3292                 0.8048
 IR Inten    --     11.8419                 1.2311                 1.3096

                     16                     17                     18
                      A                      A                      A
 Frequencies --    852.5195               873.5015               914.7596
 Red. masses --      1.6522                 1.6460                 1.6381
 Frc consts  --      0.7075                 0.7399                 0.8076
 IR Inten    --      1.2887                 3.8541                 1.2142

                     19                     20                     21
                      A                      A                      A
 Frequencies --    946.4630               967.4360               973.5775
 Red. masses --      2.3162                 2.0012                 2.9887
 Frc consts  --      1.2225                 1.1035                 1.6691
 IR Inten    --     12.2065                 4.2444                 3.8301

                     22                     23                     24
                      A                      A                      A
 Frequencies --   1039.4904              1070.5937              1081.3372
 Red. masses --      1.7057                 1.9539                 2.3737
 Frc consts  --      1.0859                 1.3195                 1.6353
 IR Inten    --      1.3847                11.0582                19.8464

                     25                     26                     27
                      A                      A                      A
 Frequencies --   1113.4855              1144.3910              1164.3036
 Red. masses --      1.4546                 2.0732                 1.2481
 Frc consts  --      1.0626                 1.5997                 0.9968
 IR Inten    --     26.6017                11.3302                16.2097

                     28                     29                     30
                      A                      A                      A
 Frequencies --   1185.8710              1222.5853              1228.4940
 Red. masses --      1.6894                 1.6630                 1.9487
 Frc consts  --      1.3998                 1.4646                 1.7328
 IR Inten    --     43.7554                 9.5429                34.5567

                     31                     32                     33
                      A                      A                      A
 Frequencies --   1259.4949              1265.4182              1284.4200
 Red. masses --      1.8167                 1.3926                 1.5517
 Frc consts  --      1.6979                 1.3139                 1.5082
 IR Inten    --     63.3794                54.5213                43.2092

                     34                     35                     36
                      A                      A                      A
 Frequencies --   1316.8518              1336.2268              1346.6889
 Red. masses --      1.7635                 1.7008                 1.9736
 Frc consts  --      1.8017                 1.7892                 2.1088
 IR Inten    --     18.5815                 9.4670                33.2638

                     37                     38                     39
                      A                      A                      A
 Frequencies --   1401.4971              1438.9608              1486.6223
 Red. masses --      1.6955                 2.5187                 1.0883
 Frc consts  --      1.9621                 3.0728                 1.4170
 IR Inten    --     14.5469                59.2578                 0.2223

                     40                     41                     42
                      A                      A                      A
 Frequencies --   1497.4586              1511.7752              3027.9356
 Red. masses --      1.1978                 1.1393                 1.0576
 Frc consts  --      1.5824                 1.5341                 5.7132
 IR Inten    --      4.6133                 4.8167                49.5926

                     43                     44                     45
                      A                      A                      A
 Frequencies --   3040.9184              3048.6469              3078.4009
 Red. masses --      1.0590                 1.0652                 1.1062
 Frc consts  --      5.7698                 5.8331                 6.1765
 IR Inten    --     32.5217                34.4657                12.0933

                     46                     47                     48
                      A                      A                      A
 Frequencies --   3080.4019              3097.0980              3114.3163
 Red. masses --      1.1013                 1.1045                 1.0894
 Frc consts  --      6.1568                 6.2420                 6.2252
 IR Inten    --     27.5402                40.3638                38.8147

                     49                     50                     51
                      A                      A                      A
 Frequencies --   3205.7548              3749.5046              3800.3215
 Red. masses --      1.0950                 1.0652                 1.0663
 Frc consts  --      6.6299                 8.8235                 9.0732
 IR Inten    --      6.7439                56.9375                29.9608

 - Thermochemistry -
 -------------------
 Temperature   298.150 Kelvin.  Pressure   1.00000 Atm.
 Atom     1 has atomic number  8 and mass  15.99491

 Molecular mass:   126.06808 amu.
 Principal axes and moments of inertia in atomic units:
                           1         2         3
     Eigenvalues --   701.84726 949.806161340.15032
           X            0.99939  -0.03152   0.01501
           Y            0.03173   0.99940  -0.01400
           Z           -0.01456   0.01446   0.99979
 This molecule is an asymmetric top.
 Rotational symmetry number  1.
 Warning -- assumption of classical behavior for rotation
           may cause significant error
 Rotational temperatures (Kelvin)      0.12341     0.09119     0.06463
 Rotational constants (GHZ):           2.57142     1.90012     1.34667
 Zero-point vibrational energy     420971.0 (Joules/Mol)
                                  100.61448 (Kcal/Mol)
 Warning -- explicit consideration of  10 degrees of freedom as
           vibrations may cause significant error
 Vibrational temperatures:    278.69   301.17   395.38   434.67   497.88
          (Kelvin)            562.05   580.66   641.67   653.09   838.12
                              907.42   965.36  1048.98  1087.17  1186.06
                             1226.58  1256.77  1316.13  1361.75  1391.92
                             1400.76  1495.59  1540.34  1555.80  1602.06
                             1646.52  1675.17  1706.20  1759.03  1767.53
                             1812.13  1820.65  1847.99  1894.65  1922.53
                             1937.58  2016.44  2070.34  2138.92  2154.51
                             2175.10  4356.52  4375.20  4386.32  4429.13
                             4432.01  4456.03  4480.80  4612.36  5394.69
                             5467.81

 Zero-point correction=                           0.160339 (Hartree/Particle)
 Thermal correction to Energy=                    0.167978
 Thermal correction to Enthalpy=                  0.168922
 Thermal correction to Gibbs Free Energy=         0.128979
 Sum of electronic and zero-point Energies=           -423.002848
 Sum of electronic and thermal Energies=              -422.995210
 Sum of electronic and thermal Enthalpies=            -422.994265
 Sum of electronic and thermal Free Energies=         -423.034209

                     E (Thermal)             CV                S
                      KCal/Mol        Cal/Mol-Kelvin    Cal/Mol-Kelvin
 Total                  105.408             31.752             84.067
 Electronic               0.000              0.000              0.000
 Translational            0.889              2.981             40.409
 Rotational               0.889              2.981             28.282
 Vibrational            103.630             25.790             15.377
 Vibration     1          0.635              1.849              2.192
 Vibration     2          0.642              1.827              2.050
 Vibration     3          0.677              1.720              1.566
 Vibration     4          0.694              1.670              1.405
 Vibration     5          0.724              1.583              1.184
 Vibration     6          0.758              1.490              0.998
 Vibration     7          0.769              1.462              0.950
 Vibration     8          0.805              1.370              0.808
 Vibration     9          0.812              1.352              0.784
 Vibration    10          0.939              1.069              0.481

 Normal termination of Gaussian 09 at Mon Jan 27 19:09:59 2020.
