 Gaussian 09, Revision D.01,
 Gaussian 09:  ES64L-G09RevD.01 24-Apr-2013

 -----------------------------
 # b3lyp 6-31G(2df,p) opt Freq
 -----------------------------

 -----
 titel
 -----
 Symbolic Z-matrix:
 Charge =  0 Multiplicity = 1

 SCF Done:  E(RB3LYP) =  -423.162216139     A.U. after   14 cycles
 Optimization completed.
    -- Stationary point found.
 Normal termination of Gaussian 09 at Tue Jan 28 02:54:59 2020.

 ----------------------------------------------------------------------
 #N Geom=AllCheck Guess=TCheck SCRF=Check GenChk RB3LYP/6-31G(2df,p) Fr
 eq
 ----------------------------------------------------------------------

 Structure from the checkpoint file:  "/scratch/puck/g09_863a87e9-6b3d-4e35-8928-51af579d6ab0/Gau-11486.chk"
 -----
 titel
 -----
 Charge =  0 Multiplicity = 1

                         Standard orientation:
 ---------------------------------------------------------------------
 Center     Atomic      Atomic             Coordinates (Angstroms)
 Number     Number       Type             X           Y           Z
 ---------------------------------------------------------------------
      1          8           0       -3.066172   -0.290993   -0.390181
      2          6           0       -1.856351   -0.175284    0.328031
      3          6           0       -1.312099    1.272585    0.217832
      4          6           0       -0.017257    0.747247   -0.447078
      5          6           0        1.114198    0.308320    0.549076
      6          6           0        0.564107   -1.141488    0.552718
      7          6           0       -0.584115   -0.717694   -0.393885
      8          6           0        2.489610    0.486058   -0.037297
      9          8           0        3.199788   -0.401912   -0.437054
     10          1           0       -3.322236   -1.219409   -0.397243
     11          1           0       -1.969378   -0.554126    1.355120
     12          1           0       -1.936425    1.848043   -0.469416
     13          1           0       -1.196570    1.833845    1.148912
     14          1           0        0.310434    1.239280   -1.364343
     15          1           0        1.079290    0.854797    1.499363
     16          1           0        1.280766   -1.829888    0.100190
     17          1           0        0.256843   -1.537897    1.524861
     18          1           0       -0.772867   -1.320584   -1.283182
     19          1           0        2.812667    1.550712   -0.112767
 ---------------------------------------------------------------------

 SCF Done:  E(RB3LYP) =  -423.162216139     A.U. after    1 cycles

 The electronic state is 1-A.
 Alpha  occ. eigenvalues --  -19.14100 -19.14020 -10.26975 -10.23508 -10.19963
 Alpha  occ. eigenvalues --  -10.19920 -10.18786 -10.18473 -10.18452  -1.04641
 Alpha  occ. eigenvalues --   -1.02375  -0.87599  -0.76262  -0.70133  -0.64100
 Alpha  occ. eigenvalues --   -0.62155  -0.56226  -0.53286  -0.51531  -0.48980
 Alpha  occ. eigenvalues --   -0.48001  -0.47190  -0.43232  -0.40198  -0.39825
 Alpha  occ. eigenvalues --   -0.39005  -0.37412  -0.35359  -0.33579  -0.31779
 Alpha  occ. eigenvalues --   -0.31104  -0.28264  -0.26258  -0.24912
 Alpha virt. eigenvalues --   -0.02172   0.06937   0.08630   0.09504   0.10136
 Alpha virt. eigenvalues --    0.11607   0.13774   0.14655   0.15062   0.16191
 Alpha virt. eigenvalues --    0.18989   0.19131   0.20330   0.20935   0.21151

 Mulliken charges:
               1
     1  O   -0.434429
     2  C    0.140749
     3  C   -0.253219
     4  C   -0.038517
     5  C   -0.085763
     6  C   -0.264543
     7  C   -0.054448
     8  C    0.136597
     9  O   -0.241368
    10  H    0.281341
    11  H    0.060357
    12  H    0.121253
    13  H    0.097296
    14  H    0.075943
    15  H    0.086393
    16  H    0.130427
    17  H    0.095403
    18  H    0.070942
    19  H    0.075583
 Sum of Mulliken charges =   0.00000

 Dipole moment (field-independent basis, Debye):
    X=             -1.5181    Y=              0.2593    Z=              1.1660  Tot=              1.9317
 Quadrupole moment (field-independent basis, Debye-Ang):
   XX=            -64.5141   YY=            -49.7470   ZZ=            -52.4163
   XY=              8.2698   XZ=              1.5103   YZ=              0.1595

  Exact polarizability:  91.108   0.741  75.518  -0.979   0.585  62.910
 Approx polarizability: 119.560  -4.604 114.900  -2.180   3.234  98.653

                      1                      2                      3
                      A                      A                      A
 Frequencies --     32.6082                86.4023               158.0858
 Red. masses --      3.8272                 3.9338                 4.7586
 Frc consts  --      0.0024                 0.0173                 0.0701
 IR Inten    --      0.4232                 6.5325                 6.6506

                      4                      5                      6
                      A                      A                      A
 Frequencies --    250.1839               278.6576               296.4978
 Red. masses --      2.3483                 1.6560                 4.5180
 Frc consts  --      0.0866                 0.0758                 0.2340
 IR Inten    --      3.9667                36.9486                 3.2401

                      7                      8                      9
                      A                      A                      A
 Frequencies --    319.2477               382.7844               471.1671
 Red. masses --      1.6460                 2.5086                 2.5277
 Frc consts  --      0.0988                 0.2166                 0.3306
 IR Inten    --     53.4837                22.1499                15.5309

                     10                     11                     12
                      A                      A                      A
 Frequencies --    649.1588               660.8458               762.1918
 Red. masses --      2.6211                 3.1131                 3.1512
 Frc consts  --      0.6508                 0.8010                 1.0786
 IR Inten    --      0.3396                 7.2629                 6.3042

                     13                     14                     15
                      A                      A                      A
 Frequencies --    803.0651               828.7225               859.0185
 Red. masses --      2.6550                 2.0860                 1.7409
 Frc consts  --      1.0088                 0.8441                 0.7569
 IR Inten    --      3.6875                 1.9814                 5.6873

                     16                     17                     18
                      A                      A                      A
 Frequencies --    880.3084               910.3766               946.4617
 Red. masses --      2.5581                 2.2283                 1.9305
 Frc consts  --      1.1680                 1.0881                 1.0189
 IR Inten    --     18.9701                 0.3475                 2.9487

                     19                     20                     21
                      A                      A                      A
 Frequencies --    986.8925               991.6388              1032.5006
 Red. masses --      1.8431                 1.9468                 2.4421
 Frc consts  --      1.0577                 1.1279                 1.5339
 IR Inten    --      3.3963                 0.8735                 1.4122

                     22                     23                     24
                      A                      A                      A
 Frequencies --   1049.0520              1060.9806              1121.3348
 Red. masses --      1.8085                 2.2816                 1.7981
 Frc consts  --      1.1726                 1.5132                 1.3321
 IR Inten    --     82.6758                 1.5631                10.7848

                     25                     26                     27
                      A                      A                      A
 Frequencies --   1129.0701              1141.1716              1180.6855
 Red. masses --      1.8260                 1.8140                 1.3893
 Frc consts  --      1.3715                 1.3919                 1.1410
 IR Inten    --     34.9694                 9.0547                 2.0831

                     28                     29                     30
                      A                      A                      A
 Frequencies --   1204.2769              1220.5561              1242.3677
 Red. masses --      1.5122                 1.4528                 1.3921
 Frc consts  --      1.2922                 1.2752                 1.2659
 IR Inten    --      1.8721                11.7406                21.7933

                     31                     32                     33
                      A                      A                      A
 Frequencies --   1257.6744              1267.1378              1274.5716
 Red. masses --      1.4856                 1.3875                 1.5432
 Frc consts  --      1.3844                 1.3126                 1.4771
 IR Inten    --     10.2185                 1.4981                 2.3375

                     34                     35                     36
                      A                      A                      A
 Frequencies --   1289.6125              1322.5996              1350.3030
 Red. masses --      1.3803                 1.4849                 1.7390
 Frc consts  --      1.3526                 1.5304                 1.8681
 IR Inten    --      0.9944                63.5049                13.0108

                     37                     38                     39
                      A                      A                      A
 Frequencies --   1420.1930              1423.7844              1469.6168
 Red. masses --      1.2305                 1.3673                 1.1196
 Frc consts  --      1.4623                 1.6331                 1.4247
 IR Inten    --      5.2146                 7.4924                 5.9119

                     40                     41                     42
                      A                      A                      A
 Frequencies --   1480.8812              1822.3300              2859.8871
 Red. masses --      1.1007                10.3014                 1.0821
 Frc consts  --      1.4222                20.1557                 5.2148
 IR Inten    --      4.9280               171.8463               126.2147

                     43                     44                     45
                      A                      A                      A
 Frequencies --   2978.4409              3036.0104              3057.8710
 Red. masses --      1.0851                 1.0836                 1.0617
 Frc consts  --      5.6713                 5.8846                 5.8491
 IR Inten    --     59.2584                21.4113                35.8541

                     46                     47                     48
                      A                      A                      A
 Frequencies --   3060.8315              3088.1980              3101.9938
 Red. masses --      1.0596                 1.0876                 1.0914
 Frc consts  --      5.8487                 6.1114                 6.1875
 IR Inten    --     31.6250                27.7517                18.6799

                     49                     50                     51
                      A                      A                      A
 Frequencies --   3120.3923              3121.9558              3807.0824
 Red. masses --      1.1043                 1.1051                 1.0660
 Frc consts  --      6.3351                 6.3463                 9.1027
 IR Inten    --      2.0024                28.1952                20.4063

 - Thermochemistry -
 -------------------
 Temperature   298.150 Kelvin.  Pressure   1.00000 Atm.
 Atom     1 has atomic number  8 and mass  15.99491

 Molecular mass:   126.06808 amu.
 Principal axes and moments of inertia in atomic units:
                           1         2         3
     Eigenvalues --   384.516871913.028672078.95457
           X            0.99997   0.00765   0.00102
           Y           -0.00764   0.99993  -0.00910
           Z           -0.00109   0.00910   0.99996
 This molecule is an asymmetric top.
 Rotational symmetry number  1.
 Rotational temperatures (Kelvin)      0.22525     0.04528     0.04166
 Rotational constants (GHZ):           4.69353     0.94339     0.86810
 Zero-point vibrational energy     415987.5 (Joules/Mol)
                                   99.42340 (Kcal/Mol)
 Warning -- explicit consideration of   9 degrees of freedom as
           vibrations may cause significant error
 Vibrational temperatures:     46.92   124.31   227.45   359.96   400.93
          (Kelvin)            426.59   459.33   550.74   677.90   933.99
                              950.81  1096.62  1155.43  1192.35  1235.93
                             1266.57  1309.83  1361.75  1419.92  1426.75
                             1485.54  1509.35  1526.51  1613.35  1624.48
                             1641.89  1698.74  1732.68  1756.11  1787.49
                             1809.51  1823.13  1833.82  1855.46  1902.92
                             1942.78  2043.34  2048.51  2114.45  2130.66
                             2621.92  4114.73  4285.31  4368.14  4399.59
                             4403.85  4443.22  4463.07  4489.54  4491.79
                             5477.54

 Zero-point correction=                           0.158441 (Hartree/Particle)
 Thermal correction to Energy=                    0.166979
 Thermal correction to Enthalpy=                  0.167923
 Thermal correction to Gibbs Free Energy=         0.124263
 Sum of electronic and zero-point Energies=           -423.003775
 Sum of electronic and thermal Energies=              -422.995237
 Sum of electronic and thermal Enthalpies=            -422.994293
 Sum of electronic and thermal Free Energies=         -423.037953

                     E (Thermal)             CV                S
                      KCal/Mol        Cal/Mol-Kelvin    Cal/Mol-Kelvin
 Total                  104.781             31.837             91.891
 Electronic               0.000              0.000              0.000
 Translational            0.889              2.981             40.409
 Rotational               0.889              2.981             28.816
 Vibrational            103.003             25.876             22.667
 Vibration     1          0.594              1.983              5.664
 Vibration     2          0.601              1.959              3.740
 Vibration     3          0.621              1.894              2.573
 Vibration     4          0.663              1.762              1.729
 Vibration     5          0.679              1.713              1.542
 Vibration     6          0.690              1.680              1.437
 Vibration     7          0.705              1.637              1.314
 Vibration     8          0.752              1.507              1.028
 Vibration     9          0.828              1.314              0.734

 Optimization completed.
    -- Stationary point found.
 Normal termination of Gaussian 09 at Tue Jan 28 03:42:02 2020.
