 Gaussian 09, Revision D.01,
 Gaussian 09:  ES64L-G09RevD.01 24-Apr-2013

 -----------------------------
 # b3lyp 6-31G(2df,p) opt Freq
 -----------------------------

 -----
 titel
 -----
 Symbolic Z-matrix:
 Charge =  0 Multiplicity = 1

 SCF Done:  E(RB3LYP) =  -423.162993709     A.U. after   15 cycles
 Optimization completed.
    -- Stationary point found.
 Normal termination of Gaussian 09 at Tue Jan 28 08:20:01 2020.

 ----------------------------------------------------------------------
 #N Geom=AllCheck Guess=TCheck SCRF=Check GenChk RB3LYP/6-31G(2df,p) Fr
 eq
 ----------------------------------------------------------------------

 Structure from the checkpoint file:  "/scratch/puck/g09_04ed8287-f6eb-4d29-b1bd-5e1865e58b0f/Gau-60226.chk"
 -----
 titel
 -----
 Charge =  0 Multiplicity = 1

                         Standard orientation:
 ---------------------------------------------------------------------
 Center     Atomic      Atomic             Coordinates (Angstroms)
 Number     Number       Type             X           Y           Z
 ---------------------------------------------------------------------
      1          6           0        1.706408   -0.417161    1.449355
      2          6           0        1.173192   -0.375897   -0.000899
      3          6           0        1.753406   -1.540022   -0.830614
      4          6           0        1.567591    0.976055   -0.663581
      5          8           0        1.052989    2.099695    0.011824
      6          6           0       -0.288522   -0.453230    0.021739
      7          6           0       -1.498486   -0.451644    0.029424
      8          6           0       -2.937658   -0.489073    0.045207
      9          8           0       -3.646784    0.486294   -0.057631
     10          1           0        1.372110   -1.319826    1.967109
     11          1           0        2.801201   -0.412304    1.432975
     12          1           0        1.365269    0.458992    2.003443
     13          1           0        1.364151   -1.532248   -1.852726
     14          1           0        2.843993   -1.454808   -0.876055
     15          1           0        1.504203   -2.503329   -0.378000
     16          1           0        2.658455    1.069578   -0.631501
     17          1           0        1.260798    0.958461   -1.720246
     18          1           0        0.090575    2.058631   -0.044008
     19          1           0       -3.365982   -1.505220    0.161675
 ---------------------------------------------------------------------

 SCF Done:  E(RB3LYP) =  -423.162993709     A.U. after    1 cycles

 The electronic state is 1-A.
 Alpha  occ. eigenvalues --  -19.14672 -19.14390 -10.29260 -10.24073 -10.23372
 Alpha  occ. eigenvalues --  -10.21455 -10.19760 -10.19664 -10.19015  -1.05243
 Alpha  occ. eigenvalues --   -1.02797  -0.84488  -0.77167  -0.70454  -0.68692
 Alpha  occ. eigenvalues --   -0.67142  -0.60762  -0.52225  -0.51125  -0.49338
 Alpha  occ. eigenvalues --   -0.46695  -0.44883  -0.43304  -0.42412  -0.40702
 Alpha  occ. eigenvalues --   -0.40280  -0.38560  -0.37711  -0.36624  -0.33467
 Alpha  occ. eigenvalues --   -0.29605  -0.28858  -0.27261  -0.26930
 Alpha virt. eigenvalues --   -0.06448   0.02500   0.07289   0.09186   0.09942
 Alpha virt. eigenvalues --    0.11875   0.13139   0.13866   0.14378   0.15178
 Alpha virt. eigenvalues --    0.17824   0.18421   0.19247   0.19987   0.21637

 Mulliken charges:
               1
     1  C   -0.400068
     2  C    0.028750
     3  C   -0.413909
     4  C   -0.063699
     5  O   -0.417782
     6  C    0.166573
     7  C   -0.062303
     8  C    0.022717
     9  O   -0.231329
    10  H    0.122795
    11  H    0.119087
    12  H    0.144423
    13  H    0.128472
    14  H    0.122885
    15  H    0.129908
    16  H    0.112351
    17  H    0.096662
    18  H    0.294095
    19  H    0.100371
 Sum of Mulliken charges =   0.00000

 Dipole moment (field-independent basis, Debye):
    X=              2.3863    Y=             -2.6998    Z=             -0.3378  Tot=              3.6190
 Quadrupole moment (field-independent basis, Debye-Ang):
   XX=            -59.9739   YY=            -56.0436   ZZ=            -52.4317
   XY=              1.8538   XZ=             -1.3301   YZ=             -0.7844

  Exact polarizability: 117.923  -3.372  71.737  -0.039  -0.359  61.919
 Approx polarizability: 180.069 -12.165 106.030   0.868  -0.557  88.217

                      1                      2                      3
                      A                      A                      A
 Frequencies --     36.2224                61.5088               106.9118
 Red. masses --      3.8616                 6.6656                 2.4680
 Frc consts  --      0.0030                 0.0149                 0.0166
 IR Inten    --      6.6147                 1.1056                 2.1110

                      4                      5                      6
                      A                      A                      A
 Frequencies --    143.3383               190.7647               222.0817
 Red. masses --      3.1827                 4.1025                 1.2334
 Frc consts  --      0.0385                 0.0880                 0.0358
 IR Inten    --      5.1067                 2.1750                 0.2864

                      7                      8                      9
                      A                      A                      A
 Frequencies --    234.4743               257.1527               282.7711
 Red. masses --      1.7323                 1.4113                 2.8949
 Frc consts  --      0.0561                 0.0550                 0.1364
 IR Inten    --      0.0752                 0.1774                 2.3604

                     10                     11                     12
                      A                      A                      A
 Frequencies --    321.3373               342.3580               399.7148
 Red. masses --      2.3772                 2.4736                 1.2756
 Frc consts  --      0.1446                 0.1708                 0.1201
 IR Inten    --      7.0923                 0.4156               102.5605

                     13                     14                     15
                      A                      A                      A
 Frequencies --    443.8090               551.3015               574.6049
 Red. masses --      3.4364                 3.7480                 5.3149
 Frc consts  --      0.3988                 0.6712                 1.0339
 IR Inten    --     23.1294                 6.0017                 0.4697

                     16                     17                     18
                      A                      A                      A
 Frequencies --    593.9291               730.7576               851.1851
 Red. masses --      4.3970                 5.9145                 2.6709
 Frc consts  --      0.9139                 1.8609                 1.1402
 IR Inten    --      8.3469                17.0490                55.8230

                     19                     20                     21
                      A                      A                      A
 Frequencies --    898.3000               951.6674               986.5917
 Red. masses --      1.9454                 1.4962                 1.4828
 Frc consts  --      0.9249                 0.7984                 0.8504
 IR Inten    --      4.1335                 2.2629                11.4079

                     22                     23                     24
                      A                      A                      A
 Frequencies --   1022.3976              1037.0523              1070.4357
 Red. masses --      1.7605                 1.4054                 2.9001
 Frc consts  --      1.0842                 0.8905                 1.9579
 IR Inten    --      0.9556                12.2952                42.3057

                     25                     26                     27
                      A                      A                      A
 Frequencies --   1095.3632              1167.2994              1196.6703
 Red. masses --      4.8412                 2.2250                 1.6410
 Frc consts  --      3.4223                 1.7863                 1.3845
 IR Inten    --     92.1277                 7.0002                18.8568

                     28                     29                     30
                      A                      A                      A
 Frequencies --   1217.9091              1303.3534              1382.3823
 Red. masses --      2.5439                 2.1695                 1.2215
 Frc consts  --      2.2232                 2.1714                 1.3754
 IR Inten    --      2.6666                38.7063                 0.2475

                     31                     32                     33
                      A                      A                      A
 Frequencies --   1392.9927              1409.0770              1421.8741
 Red. masses --      1.2225                 1.2053                 1.1995
 Frc consts  --      1.3976                 1.4100                 1.4288
 IR Inten    --      4.4079                19.4001                21.5329

                     34                     35                     36
                      A                      A                      A
 Frequencies --   1428.6176              1480.7758              1486.0728
 Red. masses --      1.2123                 1.0548                 1.0457
 Frc consts  --      1.4578                 1.3626                 1.3606
 IR Inten    --     30.6725                 2.7570                 0.4605

                     37                     38                     39
                      A                      A                      A
 Frequencies --   1497.6425              1499.7454              1510.5620
 Red. masses --      1.0553                 1.0735                 1.0624
 Frc consts  --      1.3946                 1.4226                 1.4283
 IR Inten    --      5.0138                 1.4893                 6.1283

                     40                     41                     42
                      A                      A                      A
 Frequencies --   1764.6582              2312.2469              2921.8779
 Red. masses --     10.5082                11.9335                 1.0818
 Frc consts  --     19.2797                37.5912                 5.4416
 IR Inten    --    253.3443               190.2499                96.9544

                     43                     44                     45
                      A                      A                      A
 Frequencies --   2990.1212              3038.9469              3044.0807
 Red. masses --      1.0666                 1.0348                 1.0363
 Frc consts  --      5.6187                 5.6306                 5.6580
 IR Inten    --     50.1328                17.8087                19.5327

                     46                     47                     48
                      A                      A                      A
 Frequencies --   3073.8063              3111.8045              3116.1935
 Red. masses --      1.0963                 1.1016                 1.1008
 Frc consts  --      6.1031                 6.2848                 6.2983
 IR Inten    --     25.5174                12.0072                25.2458

                     49                     50                     51
                      A                      A                      A
 Frequencies --   3121.8283              3142.9976              3785.5843
 Red. masses --      1.1022                 1.1017                 1.0657
 Frc consts  --      6.3292                 6.4123                 8.9984
 IR Inten    --     20.9401                 9.1719                25.1841

 - Thermochemistry -
 -------------------
 Temperature   298.150 Kelvin.  Pressure   1.00000 Atm.
 Atom     1 has atomic number  6 and mass  12.00000

 Molecular mass:   126.06808 amu.
 Principal axes and moments of inertia in atomic units:
                           1         2         3
     Eigenvalues --   727.961422069.559572392.77766
           X            0.99996  -0.00902  -0.00113
           Y            0.00902   0.99996   0.00149
           Z            0.00112  -0.00150   1.00000
 This molecule is an asymmetric top.
 Rotational symmetry number  1.
 Warning -- assumption of classical behavior for rotation
           may cause significant error
 Rotational temperatures (Kelvin)      0.11898     0.04185     0.03620
 Rotational constants (GHZ):           2.47917     0.87204     0.75425
 Zero-point vibrational energy     408077.0 (Joules/Mol)
                                   97.53275 (Kcal/Mol)
 Warning -- explicit consideration of  16 degrees of freedom as
           vibrations may cause significant error
 Vibrational temperatures:     52.12    88.50   153.82   206.23   274.47
          (Kelvin)            319.53   337.36   369.98   406.84   462.33
                              492.58   575.10   638.54   793.20   826.73
                              854.53  1051.40  1224.66  1292.45  1369.24
                             1419.48  1471.00  1492.09  1540.12  1575.98
                             1679.48  1721.74  1752.30  1875.23  1988.94
                             2004.20  2027.34  2045.76  2055.46  2130.50
                             2138.12  2154.77  2157.80  2173.36  2538.95
                             3326.80  4203.93  4302.11  4372.36  4379.75
                             4422.52  4477.19  4483.50  4491.61  4522.07
                             5446.60

 Zero-point correction=                           0.155428 (Hartree/Particle)
 Thermal correction to Energy=                    0.166260
 Thermal correction to Enthalpy=                  0.167204
 Thermal correction to Gibbs Free Energy=         0.118546
 Sum of electronic and zero-point Energies=           -423.007565
 Sum of electronic and thermal Energies=              -422.996734
 Sum of electronic and thermal Enthalpies=            -422.995790
 Sum of electronic and thermal Free Energies=         -423.044447

                     E (Thermal)             CV                S
                      KCal/Mol        Cal/Mol-Kelvin    Cal/Mol-Kelvin
 Total                  104.329             37.669            102.408
 Electronic               0.000              0.000              0.000
 Translational            0.889              2.981             40.409
 Rotational               0.889              2.981             29.668
 Vibrational            102.552             31.707             32.332
 Vibration     1          0.594              1.982              5.456
 Vibration     2          0.597              1.973              4.408
 Vibration     3          0.606              1.944              3.324
 Vibration     4          0.616              1.910              2.759
 Vibration     5          0.634              1.853              2.220
 Vibration     6          0.648              1.807              1.942
 Vibration     7          0.654              1.788              1.844
 Vibration     8          0.667              1.751              1.681
 Vibration     9          0.682              1.706              1.517
 Vibration    10          0.707              1.633              1.303
 Vibration    11          0.721              1.591              1.201
 Vibration    12          0.766              1.471              0.964
 Vibration    13          0.803              1.375              0.815
 Vibration    14          0.907              1.137              0.541
 Vibration    15          0.931              1.086              0.495
 Vibration    16          0.952              1.045              0.460

 Normal termination of Gaussian 09 at Tue Jan 28 09:57:51 2020.
