 Gaussian 09, Revision D.01,
 Gaussian 09:  ES64L-G09RevD.01 24-Apr-2013

 -----------------------------
 # b3lyp 6-31G(2df,p) opt Freq
 -----------------------------

 -----
 titel
 -----
 Symbolic Z-matrix:
 Charge =  0 Multiplicity = 1

 SCF Done:  E(RB3LYP) =  -423.196204373     A.U. after   14 cycles
 Optimization completed.
    -- Stationary point found.
 Normal termination of Gaussian 09 at Tue Jan 28 09:20:32 2020.

 ----------------------------------------------------------------------
 #N Geom=AllCheck Guess=TCheck SCRF=Check GenChk RB3LYP/6-31G(2df,p) Fr
 eq
 ----------------------------------------------------------------------

 Structure from the checkpoint file:  "/scratch/puck/g09_4e141b9c-98e7-4bbd-8cc0-b1cd28b272d2/Gau-84165.chk"
 -----
 titel
 -----
 Charge =  0 Multiplicity = 1

                         Standard orientation:
 ---------------------------------------------------------------------
 Center     Atomic      Atomic             Coordinates (Angstroms)
 Number     Number       Type             X           Y           Z
 ---------------------------------------------------------------------
      1          6           0       -2.424361   -0.069050   -1.137291
      2          8           0       -2.034312   -0.147630    0.223855
      3          6           0       -0.685795    0.055309    0.466119
      4          6           0       -0.088331   -0.759925    1.547411
      5          6           0        0.370511   -0.999436    0.101750
      6          6           0        1.589991   -0.264131   -0.334561
      7          8           0        2.508861   -0.713047   -0.975366
      8          6           0        1.441139    1.205966    0.097643
      9          6           0       -0.077765    1.441788    0.236947
     10          1           0       -1.832746   -0.749677   -1.764088
     11          1           0       -3.474490   -0.365646   -1.177176
     12          1           0       -2.333230    0.948471   -1.539754
     13          1           0        0.597804   -0.313781    2.259704
     14          1           0       -0.718713   -1.545171    1.947949
     15          1           0        0.132670   -1.950252   -0.357402
     16          1           0        1.962462    1.344374    1.052369
     17          1           0        1.929420    1.858480   -0.628134
     18          1           0       -0.339194    2.133383    1.043736
     19          1           0       -0.472700    1.862110   -0.693214
 ---------------------------------------------------------------------

 SCF Done:  E(RB3LYP) =  -423.196204373     A.U. after    1 cycles

 The electronic state is 1-A.
 Alpha  occ. eigenvalues --  -19.15856 -19.12087 -10.26399 -10.25556 -10.23369
 Alpha  occ. eigenvalues --  -10.20275 -10.19870 -10.19803 -10.19350  -1.05404
 Alpha  occ. eigenvalues --   -1.03205  -0.88668  -0.77487  -0.71402  -0.67087
 Alpha  occ. eigenvalues --   -0.63900  -0.56543  -0.54645  -0.51802  -0.48079
 Alpha  occ. eigenvalues --   -0.46542  -0.45467  -0.43921  -0.42070  -0.41725
 Alpha  occ. eigenvalues --   -0.40321  -0.38986  -0.37499  -0.35783  -0.34423
 Alpha  occ. eigenvalues --   -0.31842  -0.29102  -0.26312  -0.23347
 Alpha virt. eigenvalues --   -0.00905   0.08031   0.08751   0.10495   0.11563
 Alpha virt. eigenvalues --    0.12434   0.13904   0.15057   0.15382   0.16937
 Alpha virt. eigenvalues --    0.18381   0.19170   0.20089   0.20531   0.23154

 Mulliken charges:
               1
     1  C   -0.260906
     2  O   -0.288316
     3  C    0.453526
     4  C   -0.340764
     5  C   -0.230875
     6  C    0.423769
     7  O   -0.333328
     8  C   -0.344614
     9  C   -0.296060
    10  H    0.117002
    11  H    0.133503
    12  H    0.116129
    13  H    0.120037
    14  H    0.135343
    15  H    0.109212
    16  H    0.131235
    17  H    0.130342
    18  H    0.111599
    19  H    0.113167
 Sum of Mulliken charges =   0.00000

 Dipole moment (field-independent basis, Debye):
    X=             -2.0910    Y=              1.2743    Z=              0.6762  Tot=              2.5403
 Quadrupole moment (field-independent basis, Debye-Ang):
   XX=            -61.2449   YY=            -51.5619   ZZ=            -51.9530
   XY=              4.1063   XZ=              7.5974   YZ=             -1.4195

  Exact polarizability:  85.401   0.521  71.770  -1.398   0.191  70.633
 Approx polarizability: 121.991  -4.622 104.464 -10.578   3.465 109.826

                      1                      2                      3
                      A                      A                      A
 Frequencies --     83.9636               112.1653               157.2546
 Red. masses --      2.6317                 2.4568                 2.1199
 Frc consts  --      0.0109                 0.0182                 0.0309
 IR Inten    --      3.6937                 2.6267                 1.0712

                      4                      5                      6
                      A                      A                      A
 Frequencies --    189.3258               288.4937               329.7952
 Red. masses --      1.4465                 2.5538                 3.5800
 Frc consts  --      0.0305                 0.1252                 0.2294
 IR Inten    --      1.4562                 1.2236                 4.7021

                      7                      8                      9
                      A                      A                      A
 Frequencies --    383.8188               458.1172               499.5529
 Red. masses --      2.9922                 4.1463                 3.7485
 Frc consts  --      0.2597                 0.5127                 0.5511
 IR Inten    --      6.9640                 3.1209                 4.5134

                     10                     11                     12
                      A                      A                      A
 Frequencies --    535.4739               561.7953               648.9932
 Red. masses --      2.8270                 2.7487                 4.2604
 Frc consts  --      0.4776                 0.5111                 1.0572
 IR Inten    --      1.6916                 6.3212                 4.5353

                     13                     14                     15
                      A                      A                      A
 Frequencies --    672.9965               773.5027               814.6689
 Red. masses --      3.1065                 2.6226                 1.9869
 Frc consts  --      0.8290                 0.9245                 0.7769
 IR Inten    --      0.5869                22.8100                 4.6198

                     16                     17                     18
                      A                      A                      A
 Frequencies --    895.7281               909.1134               952.4514
 Red. masses --      1.7134                 1.6508                 1.9744
 Frc consts  --      0.8100                 0.8038                 1.0553
 IR Inten    --     16.2834                16.4138                20.9038

                     19                     20                     21
                      A                      A                      A
 Frequencies --    973.1624               995.6505              1031.1596
 Red. masses --      2.5757                 2.5115                 1.5105
 Frc consts  --      1.4372                 1.4669                 0.9463
 IR Inten    --      3.8261                 1.8719                11.6411

                     22                     23                     24
                      A                      A                      A
 Frequencies --   1048.9522              1074.7906              1104.7325
 Red. masses --      2.2091                 1.3522                 3.7453
 Frc consts  --      1.4321                 0.9203                 2.6931
 IR Inten    --     11.0792                 5.2738                59.3507

                     25                     26                     27
                      A                      A                      A
 Frequencies --   1158.0285              1177.7322              1180.6372
 Red. masses --      1.3226                 1.3817                 1.9576
 Frc consts  --      1.0450                 1.1292                 1.6077
 IR Inten    --     13.7007                 3.1955                29.8781

                     28                     29                     30
                      A                      A                      A
 Frequencies --   1209.0952              1227.0524              1251.1555
 Red. masses --      1.5389                 1.5057                 1.8735
 Frc consts  --      1.3255                 1.3357                 1.7279
 IR Inten    --     10.2533                 6.2628                50.1775

                     31                     32                     33
                      A                      A                      A
 Frequencies --   1280.7339              1293.2496              1330.7998
 Red. masses --      1.4804                 2.1339                 2.4257
 Frc consts  --      1.4307                 2.1028                 2.5311
 IR Inten    --     19.7366                54.8612                 0.6168

                     34                     35                     36
                      A                      A                      A
 Frequencies --   1383.1635              1462.7660              1473.9570
 Red. masses --      1.9795                 1.1158                 1.1203
 Frc consts  --      2.2312                 1.4066                 1.4341
 IR Inten    --     77.9403                 7.9111                 2.7008

                     37                     38                     39
                      A                      A                      A
 Frequencies --   1485.5436              1493.3296              1502.7195
 Red. masses --      1.1609                 1.1336                 1.1173
 Frc consts  --      1.5094                 1.4894                 1.4866
 IR Inten    --      6.9092                 6.1089                26.1357

                     40                     41                     42
                      A                      A                      A
 Frequencies --   1511.7089              1829.2164              3002.0824
 Red. masses --      1.1109                12.1748                 1.0345
 Frc consts  --      1.4957                24.0017                 5.4933
 IR Inten    --      0.6859               284.9464                38.4538

                     43                     44                     45
                      A                      A                      A
 Frequencies --   3046.8251              3052.2992              3059.3535
 Red. masses --      1.0671                 1.0678                 1.0960
 Frc consts  --      5.8365                 5.8613                 6.0441
 IR Inten    --     13.4224                 4.4183                63.6623

                     46                     47                     48
                      A                      A                      A
 Frequencies --   3091.6344              3120.9554              3125.8988
 Red. masses --      1.1028                 1.0964                 1.0988
 Frc consts  --      6.2102                 6.2921                 6.3258
 IR Inten    --     18.9172                10.9449                25.0969

                     49                     50                     51
                      A                      A                      A
 Frequencies --   3134.6652              3204.8542              3228.8936
 Red. masses --      1.0553                 1.0928                 1.1152
 Frc consts  --      6.1093                 6.6134                 6.8501
 IR Inten    --     10.0104                 1.3423                 3.6090

 - Thermochemistry -
 -------------------
 Temperature   298.150 Kelvin.  Pressure   1.00000 Atm.
 Atom     1 has atomic number  6 and mass  12.00000

 Molecular mass:   126.06808 amu.
 Principal axes and moments of inertia in atomic units:
                           1         2         3
     Eigenvalues --   626.920781478.641021509.05005
           X            0.99862   0.03029   0.04286
           Y           -0.02353   0.98836  -0.15027
           Z           -0.04692   0.14905   0.98772
 This molecule is an asymmetric top.
 Rotational symmetry number  1.
 Warning -- assumption of classical behavior for rotation
           may cause significant error
 Rotational temperatures (Kelvin)      0.13816     0.05858     0.05740
 Rotational constants (GHZ):           2.87874     1.22054     1.19595
 Zero-point vibrational energy     417580.5 (Joules/Mol)
                                   99.80414 (Kcal/Mol)
 Warning -- explicit consideration of  11 degrees of freedom as
           vibrations may cause significant error
 Vibrational temperatures:    120.80   161.38   226.25   272.40   415.08
          (Kelvin)            474.50   552.23   659.13   718.74   770.43
                              808.30   933.76   968.29  1112.90  1172.13
                             1288.75  1308.01  1370.36  1400.16  1432.52
                             1483.61  1509.21  1546.38  1589.46  1666.14
                             1694.49  1698.67  1739.62  1765.45  1800.13
                             1842.69  1860.70  1914.72  1990.06  2104.59
                             2120.69  2137.36  2148.57  2162.08  2175.01
                             2631.83  4319.32  4383.70  4391.57  4401.72
                             4448.17  4490.35  4497.47  4510.08  4611.06
                             4645.65

 Zero-point correction=                           0.159048 (Hartree/Particle)
 Thermal correction to Energy=                    0.167513
 Thermal correction to Enthalpy=                  0.168457
 Thermal correction to Gibbs Free Energy=         0.125829
 Sum of electronic and zero-point Energies=           -423.037156
 Sum of electronic and thermal Energies=              -423.028692
 Sum of electronic and thermal Enthalpies=            -423.027747
 Sum of electronic and thermal Free Energies=         -423.070376

                     E (Thermal)             CV                S
                      KCal/Mol        Cal/Mol-Kelvin    Cal/Mol-Kelvin
 Total                  105.116             32.184             89.719
 Electronic               0.000              0.000              0.000
 Translational            0.889              2.981             40.409
 Rotational               0.889              2.981             28.727
 Vibrational            103.338             26.223             20.583
 Vibration     1          0.601              1.960              3.796
 Vibration     2          0.607              1.939              3.231
 Vibration     3          0.621              1.895              2.583
 Vibration     4          0.633              1.855              2.234
 Vibration     5          0.685              1.695              1.483
 Vibration     6          0.713              1.616              1.261
 Vibration     7          0.753              1.505              1.024
 Vibration     8          0.816              1.343              0.772
 Vibration     9          0.855              1.251              0.659
 Vibration    10          0.890              1.172              0.575
 Vibration    11          0.917              1.114              0.520

 Optimization completed.
    -- Stationary point found.
 Normal termination of Gaussian 09 at Tue Jan 28 10:10:08 2020.
