 Gaussian 09, Revision D.01,
 Gaussian 09:  ES64L-G09RevD.01 24-Apr-2013

 -----------------------------
 # b3lyp 6-31G(2df,p) opt Freq
 -----------------------------

 -----
 titel
 -----
 Symbolic Z-matrix:
 Charge =  0 Multiplicity = 1

 SCF Done:  E(RB3LYP) =  -423.157087772     A.U. after   14 cycles
 Optimization completed.
    -- Stationary point found.
 Normal termination of Gaussian 09 at Tue Jan 28 08:13:48 2020.

 ----------------------------------------------------------------------
 #N Geom=AllCheck Guess=TCheck SCRF=Check GenChk RB3LYP/6-31G(2df,p) Fr
 eq
 ----------------------------------------------------------------------

 Structure from the checkpoint file:  "/scratch/puck/g09_797a4f09-982a-47cd-bba6-32bc3b68dc51/Gau-14392.chk"
 -----
 titel
 -----
 Charge =  0 Multiplicity = 1

                         Standard orientation:
 ---------------------------------------------------------------------
 Center     Atomic      Atomic             Coordinates (Angstroms)
 Number     Number       Type             X           Y           Z
 ---------------------------------------------------------------------
      1          8           0        0.095286    2.109409   -0.381699
      2          6           0       -0.547442    0.996511    0.186384
      3          6           0       -1.594958    0.401442   -0.753439
      4          6           0       -1.750123   -1.080802   -0.300402
      5          6           0       -0.640529   -1.326313    0.755951
      6          6           0        0.386152   -0.195420    0.515093
      7          8           0        1.142489    0.175097    1.668199
      8          6           0        1.281950   -0.516314   -0.599401
      9          6           0        2.038089   -0.823973   -1.482406
     10          1           0        0.807216    2.358728    0.219048
     11          1           0       -1.009721    1.264198    1.151192
     12          1           0       -2.533727    0.958474   -0.722094
     13          1           0       -1.209952    0.464536   -1.775172
     14          1           0       -2.738293   -1.278901    0.121822
     15          1           0       -1.630855   -1.753863   -1.152733
     16          1           0       -1.023959   -1.196405    1.772943
     17          1           0       -0.193505   -2.320755    0.691157
     18          1           0        1.889036   -0.428321    1.743421
     19          1           0        2.702718   -1.074522   -2.272258
 ---------------------------------------------------------------------

 SCF Done:  E(RB3LYP) =  -423.157087772     A.U. after    1 cycles

 The electronic state is 1-A.
 Alpha  occ. eigenvalues --  -19.14842 -19.13184 -10.25471 -10.22850 -10.18419
 Alpha  occ. eigenvalues --  -10.18407 -10.18377 -10.18021 -10.17629  -1.03620
 Alpha  occ. eigenvalues --   -1.01229  -0.83387  -0.75443  -0.70670  -0.69786
 Alpha  occ. eigenvalues --   -0.60436  -0.57778  -0.54706  -0.51339  -0.50796
 Alpha  occ. eigenvalues --   -0.47000  -0.44454  -0.43644  -0.39934  -0.38250
 Alpha  occ. eigenvalues --   -0.36636  -0.36107  -0.34040  -0.33338  -0.31444
 Alpha  occ. eigenvalues --   -0.29067  -0.27750  -0.27162  -0.25297
 Alpha virt. eigenvalues --    0.02933   0.04911   0.08032   0.09452   0.10977
 Alpha virt. eigenvalues --    0.12388   0.12464   0.15281   0.16121   0.17096
 Alpha virt. eigenvalues --    0.18162   0.18687   0.19985   0.23296   0.24112

 Mulliken charges:
               1
     1  O   -0.443561
     2  C    0.145630
     3  C   -0.232128
     4  C   -0.214404
     5  C   -0.260958
     6  C    0.155799
     7  O   -0.479907
     8  C    0.333011
     9  C   -0.506089
    10  H    0.287380
    11  H    0.074728
    12  H    0.103924
    13  H    0.121599
    14  H    0.104543
    15  H    0.112414
    16  H    0.109932
    17  H    0.102090
    18  H    0.284657
    19  H    0.201340
 Sum of Mulliken charges =   0.00000

 Dipole moment (field-independent basis, Debye):
    X=              0.5373    Y=             -1.6343    Z=              0.4859  Tot=              1.7877
 Quadrupole moment (field-independent basis, Debye-Ang):
   XX=            -47.3914   YY=            -54.3773   ZZ=            -52.7014
   XY=             -0.7167   XZ=             -1.0757   YZ=              1.9074

  Exact polarizability:  82.655  -2.617  68.859  -8.326   3.366  75.977
 Approx polarizability: 115.664  -6.607  97.784 -18.768   8.879 121.269

                      1                      2                      3
                      A                      A                      A
 Frequencies --     64.0540               109.1874               137.7510
 Red. masses --      1.7901                 3.6189                 4.3257
 Frc consts  --      0.0043                 0.0254                 0.0484
 IR Inten    --      0.0759                 0.8675                 0.3852

                      4                      5                      6
                      A                      A                      A
 Frequencies --    199.8055               243.2775               285.5745
 Red. masses --      2.8667                 3.3688                 1.3604
 Frc consts  --      0.0674                 0.1175                 0.0654
 IR Inten    --      2.0814                 6.0360                66.9626

                      7                      8                      9
                      A                      A                      A
 Frequencies --    324.9751               383.5256               390.3730
 Red. masses --      2.3843                 1.5443                 2.4664
 Frc consts  --      0.1484                 0.1338                 0.2215
 IR Inten    --     24.7405                93.7578                26.1722

                     10                     11                     12
                      A                      A                      A
 Frequencies --    467.1229               491.4205               585.9693
 Red. masses --      4.8673                 3.9217                 4.8342
 Frc consts  --      0.6258                 0.5580                 0.9780
 IR Inten    --      3.7188                27.4968                 2.8685

                     13                     14                     15
                      A                      A                      A
 Frequencies --    625.6280               632.9841               656.8315
 Red. masses --      1.2824                 4.3855                 3.6339
 Frc consts  --      0.2957                 1.0353                 0.9237
 IR Inten    --     36.0497                 6.1317                 7.6336

                     16                     17                     18
                      A                      A                      A
 Frequencies --    670.0990               691.3122               782.7871
 Red. masses --      1.2515                 2.8735                 1.4203
 Frc consts  --      0.3311                 0.8091                 0.5128
 IR Inten    --     35.2379                 3.4378                 5.5787

                     19                     20                     21
                      A                      A                      A
 Frequencies --    846.8942               909.6509               973.0678
 Red. masses --      1.7831                 2.7424                 1.8987
 Frc consts  --      0.7535                 1.3370                 1.0592
 IR Inten    --      3.1690                 3.0522                13.6555

                     22                     23                     24
                      A                      A                      A
 Frequencies --   1017.3149              1024.6168              1052.7583
 Red. masses --      2.7958                 1.8495                 2.3555
 Frc consts  --      1.7048                 1.1440                 1.5381
 IR Inten    --      2.2714                 4.1835                56.0928

                     25                     26                     27
                      A                      A                      A
 Frequencies --   1081.1362              1121.2291              1146.5983
 Red. masses --      2.2569                 4.7378                 3.3862
 Frc consts  --      1.5543                 3.5092                 2.6229
 IR Inten    --     45.1352                59.6353                65.7648

                     28                     29                     30
                      A                      A                      A
 Frequencies --   1203.5372              1217.2589              1251.8531
 Red. masses --      1.3080                 1.6854                 1.2783
 Frc consts  --      1.1163                 1.4713                 1.1803
 IR Inten    --     11.0602                 1.1551                 8.1969

                     31                     32                     33
                      A                      A                      A
 Frequencies --   1267.2854              1306.6634              1309.0567
 Red. masses --      1.1716                 1.3214                 1.2793
 Frc consts  --      1.1086                 1.3293                 1.2916
 IR Inten    --     10.9345                18.6463                25.2823

                     34                     35                     36
                      A                      A                      A
 Frequencies --   1332.9509              1372.3705              1381.9405
 Red. masses --      1.3698                 1.6376                 1.4940
 Frc consts  --      1.4340                 1.8171                 1.6811
 IR Inten    --      0.4768                30.2099                56.3355

                     37                     38                     39
                      A                      A                      A
 Frequencies --   1437.2735              1486.6373              1492.1632
 Red. masses --      1.4828                 1.0770                 1.0863
 Frc consts  --      1.8047                 1.4024                 1.4251
 IR Inten    --      4.7845                 0.3996                 3.4950

                     40                     41                     42
                      A                      A                      A
 Frequencies --   1512.8440              2227.2799              2964.6163
 Red. masses --      1.1053                 5.9196                 1.0824
 Frc consts  --      1.4905                17.3019                 5.6050
 IR Inten    --      3.8632                 1.1159                39.6881

                     43                     44                     45
                      A                      A                      A
 Frequencies --   3054.9267              3063.0763              3071.8150
 Red. masses --      1.0615                 1.0601                 1.0620
 Frc consts  --      5.8365                 5.8604                 5.9045
 IR Inten    --     19.6012                28.0009                27.0475

                     46                     47                     48
                      A                      A                      A
 Frequencies --   3094.4691              3110.2909              3121.3299
 Red. masses --      1.1038                 1.1041                 1.1053
 Frc consts  --      6.2274                 6.2933                 6.3445
 IR Inten    --      7.9426                 5.4176                50.5648

                     49                     50                     51
                      A                      A                      A
 Frequencies --   3499.7211              3797.1505              3818.7787
 Red. masses --      1.1618                 1.0656                 1.0664
 Frc consts  --      8.3837                 9.0525                 9.1624
 IR Inten    --     64.0607                25.6364                29.1035

 - Thermochemistry -
 -------------------
 Temperature   298.150 Kelvin.  Pressure   1.00000 Atm.
 Atom     1 has atomic number  8 and mass  15.99491

 Molecular mass:   126.06808 amu.
 Principal axes and moments of inertia in atomic units:
                           1         2         3
     Eigenvalues --   956.480901122.144731262.78019
           X            0.99900   0.04453  -0.00261
           Y           -0.04451   0.99898   0.00724
           Z            0.00293  -0.00711   0.99997
 This molecule is an asymmetric top.
 Rotational symmetry number  1.
 Warning -- assumption of classical behavior for rotation
           may cause significant error
 Rotational temperatures (Kelvin)      0.09055     0.07719     0.06859
 Rotational constants (GHZ):           1.88686     1.60830     1.42918
 Zero-point vibrational energy     414573.2 (Joules/Mol)
                                   99.08538 (Kcal/Mol)
 Warning -- explicit consideration of  12 degrees of freedom as
           vibrations may cause significant error
 Vibrational temperatures:     92.16   157.10   198.19   287.48   350.02
          (Kelvin)            410.88   467.57   551.81   561.66   672.08
                              707.04   843.08   900.14   910.72   945.03
                              964.12   994.64  1126.25  1218.49  1308.78
                             1400.03  1463.69  1474.19  1514.68  1555.51
                             1613.20  1649.70  1731.62  1751.36  1801.14
                             1823.34  1879.99  1883.44  1917.82  1974.53
                             1988.30  2067.91  2138.94  2146.89  2176.64
                             3204.55  4265.42  4395.35  4407.08  4419.65
                             4452.25  4475.01  4490.89  5035.31  5463.25
                             5494.36

 Zero-point correction=                           0.157903 (Hartree/Particle)
 Thermal correction to Energy=                    0.167301
 Thermal correction to Enthalpy=                  0.168246
 Thermal correction to Gibbs Free Energy=         0.123884
 Sum of electronic and zero-point Energies=           -422.999185
 Sum of electronic and thermal Energies=              -422.989786
 Sum of electronic and thermal Enthalpies=            -422.988842
 Sum of electronic and thermal Free Energies=         -423.033204

                     E (Thermal)             CV                S
                      KCal/Mol        Cal/Mol-Kelvin    Cal/Mol-Kelvin
 Total                  104.983             35.664             93.367
 Electronic               0.000              0.000              0.000
 Translational            0.889              2.981             40.409
 Rotational               0.889              2.981             28.696
 Vibrational            103.206             29.703             24.263
 Vibration     1          0.597              1.971              4.328
 Vibration     2          0.606              1.942              3.283
 Vibration     3          0.614              1.916              2.835
 Vibration     4          0.638              1.840              2.135
 Vibration     5          0.659              1.774              1.779
 Vibration     6          0.683              1.700              1.500
 Vibration     7          0.709              1.626              1.285
 Vibration     8          0.753              1.505              1.025
 Vibration     9          0.758              1.491              0.999
 Vibration    10          0.824              1.323              0.746
 Vibration    11          0.847              1.269              0.680
 Vibration    12          0.943              1.062              0.474

 Normal termination of Gaussian 09 at Tue Jan 28 08:58:09 2020.
