 Gaussian 09, Revision D.01,
 Gaussian 09:  ES64L-G09RevD.01 24-Apr-2013

 -----------------------------
 # b3lyp 6-31G(2df,p) opt Freq
 -----------------------------

 -----
 titel
 -----
 Symbolic Z-matrix:
 Charge =  0 Multiplicity = 1

 SCF Done:  E(RB3LYP) =  -423.148329497     A.U. after   14 cycles
 Optimization completed.
    -- Stationary point found.
 Normal termination of Gaussian 09 at Mon Jan 27 17:16:11 2020.

 ----------------------------------------------------------------------
 #N Geom=AllCheck Guess=TCheck SCRF=Check GenChk RB3LYP/6-31G(2df,p) Fr
 eq
 ----------------------------------------------------------------------

 Structure from the checkpoint file:  "/scratch/puck/g09_53d8ccc6-28bb-4bed-8711-b189c1f9cd96/Gau-38485.chk"
 -----
 titel
 -----
 Charge =  0 Multiplicity = 1

                         Standard orientation:
 ---------------------------------------------------------------------
 Center     Atomic      Atomic             Coordinates (Angstroms)
 Number     Number       Type             X           Y           Z
 ---------------------------------------------------------------------
      1          6           0       -0.974076   -2.307415   -0.023459
      2          6           0       -0.765977   -0.818001   -0.013935
      3          6           0       -1.553283    0.245566   -0.842889
      4          6           0       -0.507966    1.035910   -0.003010
      5          8           0       -0.317390    2.395896    0.087531
      6          6           0       -0.896195    0.156182    1.201975
      7          6           0        0.548439   -0.058848   -0.443054
      8          6           0        1.830599   -0.232516    0.306587
      9          8           0        2.904700   -0.319961   -0.241342
     10          1           0       -0.812746   -2.720052   -1.024738
     11          1           0       -0.284675   -2.810664    0.662339
     12          1           0       -1.995234   -2.556789    0.284003
     13          1           0       -1.408995    0.223752   -1.926931
     14          1           0       -2.602445    0.390653   -0.570745
     15          1           0       -0.122504    2.742358   -0.790372
     16          1           0       -0.182133    0.058471    2.019650
     17          1           0       -1.909863    0.301218    1.585206
     18          1           0        0.764844   -0.087014   -1.515872
     19          1           0        1.766021   -0.274689    1.414663
 ---------------------------------------------------------------------

 SCF Done:  E(RB3LYP) =  -423.148329497     A.U. after    1 cycles

 The electronic state is 1-A.
 Alpha  occ. eigenvalues --  -19.15885 -19.13175 -10.26602 -10.26363 -10.22612
 Alpha  occ. eigenvalues --  -10.19844 -10.19550 -10.19524 -10.18902  -1.04742
 Alpha  occ. eigenvalues --   -1.03739  -0.92184  -0.73829  -0.71426  -0.68490
 Alpha  occ. eigenvalues --   -0.60702  -0.59386  -0.54195  -0.51442  -0.48791
 Alpha  occ. eigenvalues --   -0.45692  -0.43882  -0.43265  -0.42429  -0.41148
 Alpha  occ. eigenvalues --   -0.39433  -0.37952  -0.37074  -0.33954  -0.33193
 Alpha  occ. eigenvalues --   -0.32480  -0.30768  -0.27257  -0.24113
 Alpha virt. eigenvalues --   -0.02466   0.07291   0.09228   0.11011   0.11784
 Alpha virt. eigenvalues --    0.13515   0.13793   0.14570   0.14905   0.15669
 Alpha virt. eigenvalues --    0.16283   0.18360   0.19591   0.20888   0.21727

 Mulliken charges:
               1
     1  C   -0.506464
     2  C    0.308320
     3  C   -0.320713
     4  C    0.383178
     5  O   -0.460177
     6  C   -0.310443
     7  C   -0.166774
     8  C    0.124053
     9  O   -0.262616
    10  H    0.127761
    11  H    0.127318
    12  H    0.125708
    13  H    0.091779
    14  H    0.096457
    15  H    0.289225
    16  H    0.104458
    17  H    0.098587
    18  H    0.076093
    19  H    0.074248
 Sum of Mulliken charges =   0.00000

 Dipole moment (field-independent basis, Debye):
    X=             -2.8925    Y=             -0.3584    Z=             -0.5091  Tot=              2.9587
 Quadrupole moment (field-independent basis, Debye-Ang):
   XX=            -63.2540   YY=            -52.6104   ZZ=            -50.7737
   XY=              2.2446   XZ=              2.0999   YZ=             -4.4465

  Exact polarizability:  86.918  -0.788  74.014  -1.241  -1.388  72.087
 Approx polarizability: 129.557  -3.301 104.281  -6.731  -0.585 112.232

                      1                      2                      3
                      A                      A                      A
 Frequencies --     63.8043               185.1348               198.3779
 Red. masses --      5.5036                 2.1397                 1.2026
 Frc consts  --      0.0132                 0.0432                 0.0279
 IR Inten    --      4.9693                 1.5014                 0.8281

                      4                      5                      6
                      A                      A                      A
 Frequencies --    218.5487               227.6077               269.4202
 Red. masses --      2.5411                 2.1740                 2.9500
 Frc consts  --      0.0715                 0.0664                 0.1262
 IR Inten    --      8.2361                 5.8672                19.2014

                      7                      8                      9
                      A                      A                      A
 Frequencies --    299.6280               403.5853               440.3946
 Red. masses --      1.3535                 2.7239                 3.8105
 Frc consts  --      0.0716                 0.2614                 0.4354
 IR Inten    --     76.4835                 7.8716                 0.0790

                     10                     11                     12
                      A                      A                      A
 Frequencies --    453.7419               546.8058               589.9127
 Red. masses --      3.4246                 2.8790                 3.8020
 Frc consts  --      0.4154                 0.5072                 0.7795
 IR Inten    --     15.3869                10.8675                 3.5175

                     13                     14                     15
                      A                      A                      A
 Frequencies --    599.7256               644.0285               722.6976
 Red. masses --      2.2990                 3.5606                 3.0866
 Frc consts  --      0.4872                 0.8701                 0.9498
 IR Inten    --      4.0448                 1.0750                 6.4056

                     16                     17                     18
                      A                      A                      A
 Frequencies --    784.1969               946.3955               958.4807
 Red. masses --      2.9520                 2.8599                 1.8449
 Frc consts  --      1.0696                 1.5092                 0.9986
 IR Inten    --      1.5020                 4.3093                 0.3517

                     19                     20                     21
                      A                      A                      A
 Frequencies --    967.0062              1003.8365              1014.2390
 Red. masses --      1.6331                 1.2276                 1.6515
 Frc consts  --      0.8998                 0.7288                 1.0010
 IR Inten    --      2.4215                 0.5432                 6.0005

                     22                     23                     24
                      A                      A                      A
 Frequencies --   1051.0603              1075.7690              1105.8196
 Red. masses --      1.8712                 1.7462                 1.7166
 Frc consts  --      1.2179                 1.1907                 1.2368
 IR Inten    --     16.7722                12.2269                 8.7485

                     25                     26                     27
                      A                      A                      A
 Frequencies --   1118.7690              1136.8349              1146.3267
 Red. masses --      1.5209                 1.4775                 2.4680
 Frc consts  --      1.1216                 1.1250                 1.9108
 IR Inten    --     37.9719                 7.1294                43.6051

                     28                     29                     30
                      A                      A                      A
 Frequencies --   1148.1575              1188.5322              1200.9678
 Red. masses --      1.5230                 2.0618                 1.9592
 Frc consts  --      1.1829                 1.7160                 1.6649
 IR Inten    --      7.6483                18.2579                 4.3057

                     31                     32                     33
                      A                      A                      A
 Frequencies --   1277.5368              1322.2899              1334.8872
 Red. masses --      2.5555                 1.5274                 2.1228
 Frc consts  --      2.4574                 1.5734                 2.2287
 IR Inten    --    267.8692                15.8456                 9.1209

                     34                     35                     36
                      A                      A                      A
 Frequencies --   1391.2287              1414.6138              1451.7145
 Red. masses --      1.8542                 1.3924                 1.2894
 Frc consts  --      2.1145                 1.6416                 1.6010
 IR Inten    --      9.7252                 0.1323                 6.5869

                     37                     38                     39
                      A                      A                      A
 Frequencies --   1488.8282              1489.6076              1504.9642
 Red. masses --      1.0496                 1.0465                 1.1230
 Frc consts  --      1.3708                 1.3681                 1.4986
 IR Inten    --      3.8364                 2.7924                 1.0966

                     40                     41                     42
                      A                      A                      A
 Frequencies --   1555.1354              1805.1096              2897.3341
 Red. masses --      1.2644                 9.9398                 1.0814
 Frc consts  --      1.8017                19.0824                 5.3487
 IR Inten    --      8.3782               204.0024                74.6820

                     43                     44                     45
                      A                      A                      A
 Frequencies --   3031.4101              3046.2595              3064.4346
 Red. masses --      1.0352                 1.0547                 1.0753
 Frc consts  --      5.6046                 5.7666                 5.9494
 IR Inten    --     25.0004                34.9053                52.7322

                     46                     47                     48
                      A                      A                      A
 Frequencies --   3068.6132              3099.7938              3101.6713
 Red. masses --      1.0689                 1.1012                 1.1013
 Frc consts  --      5.9302                 6.2342                 6.2423
 IR Inten    --      6.6329                13.7586                14.4100

                     49                     50                     51
                      A                      A                      A
 Frequencies --   3116.2185              3139.2448              3806.5308
 Red. masses --      1.1111                 1.1055                 1.0657
 Frc consts  --      6.3570                 6.4187                 9.0980
 IR Inten    --     37.0046                31.4096                34.6258

 - Thermochemistry -
 -------------------
 Temperature   298.150 Kelvin.  Pressure   1.00000 Atm.
 Atom     1 has atomic number  6 and mass  12.00000

 Molecular mass:   126.06808 amu.
 Principal axes and moments of inertia in atomic units:
                           1         2         3
     Eigenvalues --   917.070891104.925021681.94251
           X            0.99433   0.10585   0.01037
           Y           -0.10571   0.99430  -0.01364
           Z           -0.01175   0.01247   0.99985
 This molecule is an asymmetric top.
 Rotational symmetry number  1.
 Warning -- assumption of classical behavior for rotation
           may cause significant error
 Rotational temperatures (Kelvin)      0.09445     0.07839     0.05150
 Rotational constants (GHZ):           1.96794     1.63336     1.07301
 Zero-point vibrational energy     413412.9 (Joules/Mol)
                                   98.80804 (Kcal/Mol)
 Warning -- explicit consideration of  13 degrees of freedom as
           vibrations may cause significant error
 Vibrational temperatures:     91.80   266.37   285.42   314.44   327.48
          (Kelvin)            387.64   431.10   580.67   633.63   652.83
                              786.73   848.75   862.87   926.61  1039.80
                             1128.28  1361.65  1379.04  1391.30  1444.29
                             1459.26  1512.24  1547.79  1591.03  1609.66
                             1635.65  1649.31  1651.94  1710.03  1727.92
                             1838.09  1902.48  1920.60  2001.67  2035.31
                             2088.69  2142.09  2143.21  2165.31  2237.49
                             2597.15  4168.61  4361.52  4382.88  4409.03
                             4415.04  4459.91  4462.61  4483.54  4516.67
                             5476.74

 Zero-point correction=                           0.157461 (Hartree/Particle)
 Thermal correction to Energy=                    0.166336
 Thermal correction to Enthalpy=                  0.167280
 Thermal correction to Gibbs Free Energy=         0.124003
 Sum of electronic and zero-point Energies=           -422.990869
 Sum of electronic and thermal Energies=              -422.981994
 Sum of electronic and thermal Enthalpies=            -422.981049
 Sum of electronic and thermal Free Energies=         -423.024326

                     E (Thermal)             CV                S
                      KCal/Mol        Cal/Mol-Kelvin    Cal/Mol-Kelvin
 Total                  104.377             33.859             91.084
 Electronic               0.000              0.000              0.000
 Translational            0.889              2.981             40.409
 Rotational               0.889              2.981             28.923
 Vibrational            102.600             27.897             21.752
 Vibration     1          0.597              1.972              4.336
 Vibration     2          0.631              1.860              2.276
 Vibration     3          0.637              1.842              2.148
 Vibration     4          0.646              1.813              1.971
 Vibration     5          0.651              1.799              1.898
 Vibration     6          0.674              1.729              1.600
 Vibration     7          0.692              1.674              1.419
 Vibration     8          0.769              1.462              0.950
 Vibration     9          0.800              1.382              0.825
 Vibration    10          0.812              1.353              0.785
 Vibration    11          0.902              1.147              0.551
 Vibration    12          0.947              1.053              0.467
 Vibration    13          0.958              1.032              0.450

 Optimization completed.
    -- Stationary point found.
 Normal termination of Gaussian 09 at Mon Jan 27 18:13:04 2020.
