 Gaussian 09, Revision D.01,
 Gaussian 09:  ES64L-G09RevD.01 24-Apr-2013

 -----------------------------
 # b3lyp 6-31G(2df,p) opt Freq
 -----------------------------

 -----
 titel
 -----
 Symbolic Z-matrix:
 Charge =  0 Multiplicity = 1

 SCF Done:  E(RB3LYP) =  -423.202610578     A.U. after   14 cycles
 Optimization completed.
    -- Stationary point found.
 Normal termination of Gaussian 09 at Tue Jan 28 02:21:04 2020.

 ----------------------------------------------------------------------
 #N Geom=AllCheck Guess=TCheck SCRF=Check GenChk RB3LYP/6-31G(2df,p) Fr
 eq
 ----------------------------------------------------------------------

 Structure from the checkpoint file:  "/scratch/puck/g09_0b3eee42-1048-45f9-8e57-13b551ca2aff/Gau-41711.chk"
 -----
 titel
 -----
 Charge =  0 Multiplicity = 1

                         Standard orientation:
 ---------------------------------------------------------------------
 Center     Atomic      Atomic             Coordinates (Angstroms)
 Number     Number       Type             X           Y           Z
 ---------------------------------------------------------------------
      1          6           0        2.487394   -0.620645   -0.719491
      2          6           0        1.516494    0.477734   -0.357258
      3          6           0        1.264743    0.838704    1.083157
      4          6           0        0.194106    0.116447    0.321092
      5          8           0       -0.102044   -1.214350    0.651122
      6          6           0       -1.266345   -1.586535   -0.101355
      7          6           0       -2.121775   -0.317128   -0.182653
      8          6           0       -1.060597    0.786740   -0.131105
      9          8           0       -1.190983    1.952410   -0.412374
     10          1           0        2.302655   -0.993922   -1.732326
     11          1           0        3.519766   -0.257013   -0.680838
     12          1           0        2.392953   -1.464251   -0.030891
     13          1           0        1.434775    1.300724   -1.062633
     14          1           0        1.772128    0.253156    1.843020
     15          1           0        1.067834    1.874986    1.336813
     16          1           0       -0.976405   -1.927446   -1.106262
     17          1           0       -1.742107   -2.415917    0.424959
     18          1           0       -2.745567   -0.234766   -1.074240
     19          1           0       -2.765934   -0.211927    0.698102
 ---------------------------------------------------------------------

 SCF Done:  E(RB3LYP) =  -423.202610578     A.U. after    1 cycles

 The electronic state is 1-A.
 Alpha  occ. eigenvalues --  -19.15440 -19.13124 -10.26992 -10.24214 -10.24173
 Alpha  occ. eigenvalues --  -10.20069 -10.19800 -10.19252 -10.18090  -1.05904
 Alpha  occ. eigenvalues --   -1.03658  -0.86376  -0.77876  -0.72192  -0.67989
 Alpha  occ. eigenvalues --   -0.61304  -0.57666  -0.54116  -0.49931  -0.48521
 Alpha  occ. eigenvalues --   -0.46584  -0.45434  -0.41899  -0.41699  -0.40915
 Alpha  occ. eigenvalues --   -0.39973  -0.39138  -0.37734  -0.36312  -0.34480
 Alpha  occ. eigenvalues --   -0.32133  -0.30401  -0.25152  -0.23402
 Alpha virt. eigenvalues --   -0.02075   0.08436   0.10762   0.11883   0.12620
 Alpha virt. eigenvalues --    0.13334   0.13837   0.14720   0.15762   0.16846
 Alpha virt. eigenvalues --    0.17598   0.18681   0.19751   0.20956   0.21826

 Mulliken charges:
               1
     1  C   -0.409295
     2  C   -0.060415
     3  C   -0.349696
     4  C    0.318112
     5  O   -0.298675
     6  C   -0.105858
     7  C   -0.339202
     8  C    0.334792
     9  O   -0.331036
    10  H    0.118761
    11  H    0.122146
    12  H    0.133787
    13  H    0.107284
    14  H    0.127267
    15  H    0.133432
    16  H    0.104248
    17  H    0.118866
    18  H    0.134223
    19  H    0.141258
 Sum of Mulliken charges =   0.00000

 Dipole moment (field-independent basis, Debye):
    X=             -0.0221    Y=             -1.9588    Z=             -0.1814  Tot=              1.9673
 Quadrupole moment (field-independent basis, Debye-Ang):
   XX=            -49.4062   YY=            -58.4330   ZZ=            -52.1645
   XY=              5.1618   XZ=             -0.5111   YZ=              2.8535

  Exact polarizability:  90.644   2.427  76.238   1.210   1.668  64.965
 Approx polarizability: 118.084   0.966 115.947   2.707  -2.654 100.207

                      1                      2                      3
                      A                      A                      A
 Frequencies --     83.4091               138.6638               157.4984
 Red. masses --      3.4717                 3.2539                 2.2594
 Frc consts  --      0.0142                 0.0369                 0.0330
 IR Inten    --      5.1755                 0.4332                 1.8653

                      4                      5                      6
                      A                      A                      A
 Frequencies --    167.1554               219.7753               271.0205
 Red. masses --      1.0955                 2.7353                 3.8830
 Frc consts  --      0.0180                 0.0778                 0.1680
 IR Inten    --      0.1433                 0.7878                 6.4333

                      7                      8                      9
                      A                      A                      A
 Frequencies --    374.7616               446.3278               522.7417
 Red. masses --      2.4185                 3.0432                 3.8468
 Frc consts  --      0.2001                 0.3572                 0.6193
 IR Inten    --      2.5372                 4.0492                 6.4213

                     10                     11                     12
                      A                      A                      A
 Frequencies --    539.2825               585.9250               667.3532
 Red. masses --      2.9985                 2.9521                 4.2406
 Frc consts  --      0.5138                 0.5971                 1.1127
 IR Inten    --      1.2128                 0.1833                 7.0592

                     13                     14                     15
                      A                      A                      A
 Frequencies --    698.9091               780.5950               831.7017
 Red. masses --      4.0447                 3.1658                 1.9418
 Frc consts  --      1.1641                 1.1365                 0.7914
 IR Inten    --      2.9551                13.7448                 0.7830

                     16                     17                     18
                      A                      A                      A
 Frequencies --    872.8764               880.4850               914.2969
 Red. masses --      2.1816                 1.5622                 1.6985
 Frc consts  --      0.9793                 0.7136                 0.8365
 IR Inten    --     26.5858                 2.5162                 9.0789

                     19                     20                     21
                      A                      A                      A
 Frequencies --    966.1796               994.3651              1006.8065
 Red. masses --      2.2914                 3.2595                 1.4064
 Frc consts  --      1.2603                 1.8989                 0.8400
 IR Inten    --      4.7487                 4.3476                 5.3876

                     22                     23                     24
                      A                      A                      A
 Frequencies --   1060.2443              1073.4830              1094.4276
 Red. masses --      1.5807                 1.8152                 2.2603
 Frc consts  --      1.0469                 1.2325                 1.5951
 IR Inten    --     20.9575                14.5298                67.6156

                     25                     26                     27
                      A                      A                      A
 Frequencies --   1115.9006              1141.1959              1188.9218
 Red. masses --      2.3330                 1.7438                 1.6310
 Frc consts  --      1.7116                 1.3380                 1.3583
 IR Inten    --     37.4640                17.8873                 4.9808

                     28                     29                     30
                      A                      A                      A
 Frequencies --   1194.1882              1238.9900              1264.4293
 Red. masses --      1.3796                 1.4167                 2.5336
 Frc consts  --      1.1592                 1.2813                 2.3865
 IR Inten    --      5.2389                 5.2506                98.1493

                     31                     32                     33
                      A                      A                      A
 Frequencies --   1289.1065              1299.0665              1387.7568
 Red. masses --      1.4859                 1.9510                 1.3638
 Frc consts  --      1.4548                 1.9398                 1.5475
 IR Inten    --     19.6331                16.0075                 3.1073

                     34                     35                     36
                      A                      A                      A
 Frequencies --   1396.7516              1420.4745              1450.1973
 Red. masses --      1.4661                 1.4744                 1.0943
 Frc consts  --      1.6852                 1.7528                 1.3560
 IR Inten    --     18.0292                 8.5219                 6.3882

                     37                     38                     39
                      A                      A                      A
 Frequencies --   1464.1013              1492.0593              1500.5167
 Red. masses --      1.4507                 1.0655                 1.0728
 Frc consts  --      1.8321                 1.3976                 1.4231
 IR Inten    --     10.5098                 4.9201                 7.1769

                     40                     41                     42
                      A                      A                      A
 Frequencies --   1517.4242              1837.9499              2996.6095
 Red. masses --      1.1072                12.5257                 1.0711
 Frc consts  --      1.5021                24.9298                 5.6669
 IR Inten    --      1.2522               182.6525                53.8385

                     43                     44                     45
                      A                      A                      A
 Frequencies --   3035.0539              3051.9658              3094.1910
 Red. masses --      1.0361                 1.0655                 1.1013
 Frc consts  --      5.6232                 5.8477                 6.2122
 IR Inten    --     32.4558                 7.9258                22.1975

                     46                     47                     48
                      A                      A                      A
 Frequencies --   3111.2636              3117.9742              3127.2719
 Red. masses --      1.0938                 1.0982                 1.0978
 Frc consts  --      6.2380                 6.2902                 6.3257
 IR Inten    --     25.8413                 6.0116                 6.8956

                     49                     50                     51
                      A                      A                      A
 Frequencies --   3128.3846              3147.7667              3223.9726
 Red. masses --      1.0541                 1.0889                 1.1176
 Frc consts  --      6.0781                 6.3570                 6.8442
 IR Inten    --      8.5919                11.4700                 2.3483

 - Thermochemistry -
 -------------------
 Temperature   298.150 Kelvin.  Pressure   1.00000 Atm.
 Atom     1 has atomic number  6 and mass  12.00000

 Molecular mass:   126.06808 amu.
 Principal axes and moments of inertia in atomic units:
                           1         2         3
     Eigenvalues --   726.685191165.856281564.10790
           X            0.99920   0.03934  -0.00750
           Y           -0.03899   0.99835   0.04216
           Z            0.00915  -0.04184   0.99908
 This molecule is an asymmetric top.
 Rotational symmetry number  1.
 Warning -- assumption of classical behavior for rotation
           may cause significant error
 Rotational temperatures (Kelvin)      0.11919     0.07429     0.05538
 Rotational constants (GHZ):           2.48353     1.54800     1.15385
 Zero-point vibrational energy     416191.4 (Joules/Mol)
                                   99.47213 (Kcal/Mol)
 Warning -- explicit consideration of  11 degrees of freedom as
           vibrations may cause significant error
 Vibrational temperatures:    120.01   199.51   226.60   240.50   316.21
          (Kelvin)            389.94   539.20   642.17   752.11   775.91
                              843.01   960.17  1005.57  1123.10  1196.63
                             1255.87  1266.82  1315.47  1390.12  1430.67
                             1448.57  1525.45  1544.50  1574.64  1605.53
                             1641.92  1710.59  1718.17  1782.63  1819.23
                             1854.73  1869.06  1996.67  2009.61  2043.74
                             2086.51  2106.51  2146.74  2158.91  2183.23
                             2644.40  4311.45  4366.76  4391.09  4451.85
                             4476.41  4486.06  4499.44  4501.04  4528.93
                             4638.57

 Zero-point correction=                           0.158519 (Hartree/Particle)
 Thermal correction to Energy=                    0.167128
 Thermal correction to Enthalpy=                  0.168072
 Thermal correction to Gibbs Free Energy=         0.125185
 Sum of electronic and zero-point Energies=           -423.044092
 Sum of electronic and thermal Energies=              -423.035483
 Sum of electronic and thermal Enthalpies=            -423.034539
 Sum of electronic and thermal Free Energies=         -423.077425

                     E (Thermal)             CV                S
                      KCal/Mol        Cal/Mol-Kelvin    Cal/Mol-Kelvin
 Total                  104.874             32.415             90.262
 Electronic               0.000              0.000              0.000
 Translational            0.889              2.981             40.409
 Rotational               0.889              2.981             28.673
 Vibrational            103.097             26.453             21.180
 Vibration     1          0.600              1.961              3.809
 Vibration     2          0.614              1.915              2.822
 Vibration     3          0.621              1.894              2.580
 Vibration     4          0.624              1.883              2.467
 Vibration     5          0.647              1.811              1.961
 Vibration     6          0.675              1.727              1.590
 Vibration     7          0.746              1.524              1.060
 Vibration     8          0.806              1.369              0.807
 Vibration     9          0.878              1.200              0.604
 Vibration    10          0.894              1.163              0.567
 Vibration    11          0.943              1.062              0.475

 Normal termination of Gaussian 09 at Tue Jan 28 04:13:23 2020.
