 Gaussian 09, Revision D.01,
 Gaussian 09:  ES64L-G09RevD.01 24-Apr-2013

 -----------------------------
 # b3lyp 6-31G(2df,p) opt Freq
 -----------------------------

 -----
 titel
 -----
 Symbolic Z-matrix:
 Charge =  0 Multiplicity = 1

 SCF Done:  E(RB3LYP) =  -423.144816831     A.U. after   13 cycles
 Optimization completed.
    -- Stationary point found.
 Normal termination of Gaussian 09 at Mon Jan 27 12:06:25 2020.

 ----------------------------------------------------------------------
 #N Geom=AllCheck Guess=TCheck SCRF=Check GenChk RB3LYP/6-31G(2df,p) Fr
 eq
 ----------------------------------------------------------------------

 Structure from the checkpoint file:  "/scratch/puck/g09_a7ff4b75-5209-4bbd-aa34-fb6ae36a3169/Gau-71372.chk"
 -----
 titel
 -----
 Charge =  0 Multiplicity = 1

                         Standard orientation:
 ---------------------------------------------------------------------
 Center     Atomic      Atomic             Coordinates (Angstroms)
 Number     Number       Type             X           Y           Z
 ---------------------------------------------------------------------
      1          6           0        2.509054   -0.140529   -0.611092
      2          6           0        2.244524   -0.556411    0.815407
      3          6           0        1.440268    0.557551    0.194065
      4          6           0       -0.000066    0.367278   -0.132018
      5          6           0       -0.893205    1.478855   -0.665723
      6          6           0       -1.179295    0.815209    0.670950
      7          8           0       -2.094793   -0.252167    0.703161
      8          6           0       -1.691557   -1.150393   -0.313065
      9          8           0       -0.313081   -0.943854   -0.560336
     10          1           0        3.418804    0.405752   -0.834182
     11          1           0        2.179335   -0.813934   -1.393401
     12          1           0        1.739361   -1.502271    0.969336
     13          1           0        2.972033   -0.297133    1.576457
     14          1           0        1.666474    1.566993    0.523989
     15          1           0       -0.488805    2.485353   -0.627649
     16          1           0       -1.546094    1.289180   -1.510661
     17          1           0       -1.134780    1.353044    1.609519
     18          1           0       -1.850908   -2.179290    0.026011
     19          1           0       -2.270774   -0.968887   -1.233163
 ---------------------------------------------------------------------

 SCF Done:  E(RB3LYP) =  -423.144816831     A.U. after    1 cycles

 The electronic state is 1-A.
 Alpha  occ. eigenvalues --  -19.15487 -19.15301 -10.27854 -10.24342 -10.23663
 Alpha  occ. eigenvalues --  -10.19514 -10.18647 -10.18115 -10.18037  -1.09754
 Alpha  occ. eigenvalues --   -1.00178  -0.86333  -0.83426  -0.68898  -0.64397
 Alpha  occ. eigenvalues --   -0.60080  -0.59184  -0.56573  -0.52604  -0.50225
 Alpha  occ. eigenvalues --   -0.47723  -0.46220  -0.44031  -0.43755  -0.40300
 Alpha  occ. eigenvalues --   -0.38701  -0.36731  -0.36058  -0.34312  -0.33364
 Alpha  occ. eigenvalues --   -0.29763  -0.28501  -0.25592  -0.22323
 Alpha virt. eigenvalues --    0.08341   0.09456   0.11552   0.11707   0.12866
 Alpha virt. eigenvalues --    0.13055   0.14070   0.15539   0.16020   0.16793
 Alpha virt. eigenvalues --    0.18224   0.19532   0.20645   0.21508   0.23260

 Mulliken charges:
               1
     1  C   -0.266603
     2  C   -0.268277
     3  C   -0.080137
     4  C    0.411851
     5  C   -0.402483
     6  C    0.029584
     7  O   -0.255959
     8  C    0.007368
     9  O   -0.298512
    10  H    0.108375
    11  H    0.127674
    12  H    0.124798
    13  H    0.107661
    14  H    0.083515
    15  H    0.118503
    16  H    0.123391
    17  H    0.112891
    18  H    0.121087
    19  H    0.095271
 Sum of Mulliken charges =   0.00000

 Dipole moment (field-independent basis, Debye):
    X=              0.4383    Y=              0.8573    Z=             -0.1768  Tot=              0.9789
 Quadrupole moment (field-independent basis, Debye-Ang):
   XX=            -54.3065   YY=            -50.1814   ZZ=            -53.2736
   XY=              2.5478   XZ=              3.1935   YZ=              0.9236

  Exact polarizability:  83.226   1.122  74.960   2.107  -0.957  66.540
 Approx polarizability: 108.772   0.124 110.126  -1.216  -0.683 101.900

                      1                      2                      3
                      A                      A                      A
 Frequencies --     69.8482               146.6420               181.1750
 Red. masses --      3.0432                 2.9723                 3.2575
 Frc consts  --      0.0087                 0.0377                 0.0630
 IR Inten    --      0.0273                 0.9192                 0.3953

                      4                      5                      6
                      A                      A                      A
 Frequencies --    224.8612               303.9777               365.2272
 Red. masses --      2.7273                 3.3334                 3.7090
 Frc consts  --      0.0812                 0.1815                 0.2915
 IR Inten    --      8.5987                 0.3331                 0.2720

                      7                      8                      9
                      A                      A                      A
 Frequencies --    448.6860               490.2461               619.1648
 Red. masses --      2.0957                 3.1412                 2.7813
 Frc consts  --      0.2486                 0.4448                 0.6282
 IR Inten    --      2.6683                 1.9547                 0.5480

                     10                     11                     12
                      A                      A                      A
 Frequencies --    735.6132               750.0894               787.3469
 Red. masses --      4.5706                 3.8618                 1.1337
 Frc consts  --      1.4572                 1.2802                 0.4141
 IR Inten    --      3.0449                16.8287                 6.3561

                     13                     14                     15
                      A                      A                      A
 Frequencies --    810.9999               819.7805               865.4716
 Red. masses --      1.3229                 1.6251                 2.6800
 Frc consts  --      0.5126                 0.6435                 1.1827
 IR Inten    --      0.5371                16.0175                 3.1120

                     16                     17                     18
                      A                      A                      A
 Frequencies --    910.8412               940.7264               969.4494
 Red. masses --      3.3094                 2.4066                 3.6623
 Frc consts  --      1.6177                 1.2548                 2.0279
 IR Inten    --     28.3808                 1.4569                50.1686

                     19                     20                     21
                      A                      A                      A
 Frequencies --    975.4211               998.7658              1019.7560
 Red. masses --      4.1227                 1.9561                 1.9907
 Frc consts  --      2.3111                 1.1496                 1.2197
 IR Inten    --     23.7742                 5.5561                 1.2628

                     22                     23                     24
                      A                      A                      A
 Frequencies --   1057.2251              1067.3535              1071.1274
 Red. masses --      1.4883                 1.3714                 2.4740
 Frc consts  --      0.9801                 0.9205                 1.6724
 IR Inten    --      1.1502                 6.4209                16.6199

                     25                     26                     27
                      A                      A                      A
 Frequencies --   1084.9462              1095.1670              1128.2312
 Red. masses --      1.3667                 2.0990                 1.1189
 Frc consts  --      0.9479                 1.4833                 0.8392
 IR Inten    --      1.5004                63.9639                 0.5945

                     28                     29                     30
                      A                      A                      A
 Frequencies --   1154.2940              1162.0992              1201.4893
 Red. masses --      2.0098                 2.3114                 1.3577
 Frc consts  --      1.5778                 1.8391                 1.1548
 IR Inten    --     41.2636                84.8513                 0.2345

                     31                     32                     33
                      A                      A                      A
 Frequencies --   1218.7186              1220.7550              1245.3642
 Red. masses --      1.3809                 1.7211                 1.8682
 Frc consts  --      1.2084                 1.5111                 1.7071
 IR Inten    --      2.2510                 0.0613                34.6714

                     34                     35                     36
                      A                      A                      A
 Frequencies --   1288.4250              1347.4826              1435.1656
 Red. masses --      2.0026                 1.5017                 1.3108
 Frc consts  --      1.9587                 1.6065                 1.5907
 IR Inten    --     51.1055                10.8067                 5.0172

                     37                     38                     39
                      A                      A                      A
 Frequencies --   1439.5091              1460.3912              1477.6150
 Red. masses --      1.3337                 1.0890                 1.5744
 Frc consts  --      1.6284                 1.3685                 2.0253
 IR Inten    --      1.9395                 2.3500                12.0582

                     40                     41                     42
                      A                      A                      A
 Frequencies --   1509.3476              1552.6066              2963.1594
 Red. masses --      1.8665                 1.1012                 1.0701
 Frc consts  --      2.5052                 1.5640                 5.5360
 IR Inten    --      1.2286                 4.2976                96.5929

                     43                     44                     45
                      A                      A                      A
 Frequencies --   3068.8659              3130.7738              3138.7111
 Red. masses --      1.0958                 1.0546                 1.0516
 Frc consts  --      6.0807                 6.0902                 6.1039
 IR Inten    --     49.1145                 5.2048                17.5005

                     46                     47                     48
                      A                      A                      A
 Frequencies --   3142.2861              3153.1854              3195.3139
 Red. masses --      1.0584                 1.0874                 1.0939
 Frc consts  --      6.1571                 6.3699                 6.5802
 IR Inten    --     13.3837                 7.7698                 8.9687

                     49                     50                     51
                      A                      A                      A
 Frequencies --   3220.6073              3223.3396              3237.5780
 Red. masses --      1.1159                 1.1174                 1.1153
 Frc consts  --      6.8193                 6.8404                 6.8879
 IR Inten    --      6.6538                 0.4519                13.8036

 - Thermochemistry -
 -------------------
 Temperature   298.150 Kelvin.  Pressure   1.00000 Atm.
 Atom     1 has atomic number  6 and mass  12.00000

 Molecular mass:   126.06808 amu.
 Principal axes and moments of inertia in atomic units:
                           1         2         3
     Eigenvalues --   524.552821386.120571545.84328
           X            0.99986   0.00134   0.01694
           Y           -0.00115   0.99994  -0.01114
           Z           -0.01695   0.01112   0.99979
 This molecule is an asymmetric top.
 Rotational symmetry number  1.
 Warning -- assumption of classical behavior for rotation
           may cause significant error
 Rotational temperatures (Kelvin)      0.16512     0.06249     0.05603
 Rotational constants (GHZ):           3.44053     1.30201     1.16748
 Zero-point vibrational energy     419442.0 (Joules/Mol)
                                  100.24904 (Kcal/Mol)
 Warning -- explicit consideration of   9 degrees of freedom as
           vibrations may cause significant error
 Vibrational temperatures:    100.50   210.98   260.67   323.52   437.36
          (Kelvin)            525.48   645.56   705.35   890.84  1058.38
                             1079.21  1132.82  1166.85  1179.48  1245.22
                             1310.50  1353.49  1394.82  1403.41  1437.00
                             1467.20  1521.11  1535.68  1541.11  1560.99
                             1575.70  1623.27  1660.77  1672.00  1728.67
                             1753.46  1756.39  1791.80  1853.75  1938.72
                             2064.88  2071.13  2101.17  2125.96  2171.61
                             2233.85  4263.32  4415.41  4504.48  4515.90
                             4521.04  4536.72  4597.34  4633.73  4637.66
                             4658.15

 Zero-point correction=                           0.159757 (Hartree/Particle)
 Thermal correction to Energy=                    0.167603
 Thermal correction to Enthalpy=                  0.168548
 Thermal correction to Gibbs Free Energy=         0.127149
 Sum of electronic and zero-point Energies=           -422.985060
 Sum of electronic and thermal Energies=              -422.977214
 Sum of electronic and thermal Enthalpies=            -422.976269
 Sum of electronic and thermal Free Energies=         -423.017668

                     E (Thermal)             CV                S
                      KCal/Mol        Cal/Mol-Kelvin    Cal/Mol-Kelvin
 Total                  105.173             30.567             87.131
 Electronic               0.000              0.000              0.000
 Translational            0.889              2.981             40.409
 Rotational               0.889              2.981             28.510
 Vibrational            103.395             24.605             18.213
 Vibration     1          0.598              1.968              4.158
 Vibration     2          0.617              1.906              2.715
 Vibration     3          0.630              1.865              2.316
 Vibration     4          0.650              1.803              1.920
 Vibration     5          0.695              1.666              1.395
 Vibration     6          0.738              1.544              1.100
 Vibration     7          0.808              1.364              0.800
 Vibration     8          0.846              1.272              0.683
 Vibration     9          0.979              0.991              0.418

 Optimization completed.
    -- Stationary point found.
 Normal termination of Gaussian 09 at Mon Jan 27 12:49:29 2020.
