 Gaussian 09, Revision D.01,
 Gaussian 09:  ES64L-G09RevD.01 24-Apr-2013

 -----------------------------
 # b3lyp 6-31G(2df,p) opt Freq
 -----------------------------

 -----
 titel
 -----
 Symbolic Z-matrix:
 Charge =  0 Multiplicity = 1

 SCF Done:  E(RB3LYP) =  -423.176503667     A.U. after   14 cycles
 Optimization completed.
    -- Stationary point found.
 Normal termination of Gaussian 09 at Mon Jan 27 22:12:40 2020.

 ----------------------------------------------------------------------
 #N Geom=AllCheck Guess=TCheck SCRF=Check GenChk RB3LYP/6-31G(2df,p) Fr
 eq
 ----------------------------------------------------------------------

 Structure from the checkpoint file:  "/scratch/puck/g09_e2820a2a-2ec8-42d8-aa06-451c626bcaa6/Gau-28273.chk"
 -----
 titel
 -----
 Charge =  0 Multiplicity = 1

                         Standard orientation:
 ---------------------------------------------------------------------
 Center     Atomic      Atomic             Coordinates (Angstroms)
 Number     Number       Type             X           Y           Z
 ---------------------------------------------------------------------
      1          6           0        2.773183   -0.461165    0.136049
      2          6           0        1.310775   -0.507422    0.533938
      3          6           0        0.328205   -0.891340   -0.592669
      4          6           0       -1.052169   -0.994319   -0.046366
      5          8           0       -1.959320   -1.762815   -0.218368
      6          6           0       -1.001727    0.403813    0.636731
      7          6           0       -2.059415    1.350125    0.073223
      8          6           0        0.407220    0.554168    0.040502
      9          8           0        0.798837    1.746428   -0.520679
     10          1           0        3.219910   -1.458612    0.180940
     11          1           0        2.906933   -0.090688   -0.886084
     12          1           0        3.344042    0.185429    0.812887
     13          1           0        1.140499   -0.920514    1.528205
     14          1           0        0.705267   -1.314609   -1.516616
     15          1           0       -1.034495    0.399020    1.733416
     16          1           0       -3.054063    1.021877    0.385835
     17          1           0       -1.896268    2.370990    0.429339
     18          1           0       -2.035479    1.367253   -1.020646
     19          1           0        1.751074    1.847795   -0.423353
 ---------------------------------------------------------------------

 SCF Done:  E(RB3LYP) =  -423.176503667     A.U. after    1 cycles

 The electronic state is 1-A.
 Alpha  occ. eigenvalues --  -19.16933 -19.12090 -10.26097 -10.25957 -10.21737
 Alpha  occ. eigenvalues --  -10.20311 -10.19647 -10.19461 -10.17746  -1.05771
 Alpha  occ. eigenvalues --   -1.03074  -0.89946  -0.78242  -0.72897  -0.64255
 Alpha  occ. eigenvalues --   -0.63365  -0.59770  -0.52783  -0.51700  -0.47611
 Alpha  occ. eigenvalues --   -0.46139  -0.44323  -0.42290  -0.40841  -0.40409
 Alpha  occ. eigenvalues --   -0.39930  -0.38259  -0.37272  -0.36852  -0.35979
 Alpha  occ. eigenvalues --   -0.33837  -0.29441  -0.24624  -0.23151
 Alpha virt. eigenvalues --   -0.00286   0.05266   0.09755   0.10281   0.11974
 Alpha virt. eigenvalues --    0.12705   0.14283   0.14960   0.15514   0.16387
 Alpha virt. eigenvalues --    0.17135   0.17810   0.19097   0.19594   0.22391

 Mulliken charges:
               1
     1  C   -0.452695
     2  C   -0.087372
     3  C   -0.281708
     4  C    0.439642
     5  O   -0.337323
     6  C   -0.194917
     7  C   -0.401567
     8  C    0.418813
     9  O   -0.456336
    10  H    0.139836
    11  H    0.125424
    12  H    0.126488
    13  H    0.094079
    14  H    0.105060
    15  H    0.082159
    16  H    0.132580
    17  H    0.123883
    18  H    0.127132
    19  H    0.296820
 Sum of Mulliken charges =   0.00000

 Dipole moment (field-independent basis, Debye):
    X=              3.8534    Y=              1.6402    Z=              0.8525  Tot=              4.2738
 Quadrupole moment (field-independent basis, Debye-Ang):
   XX=            -51.9335   YY=            -58.3646   ZZ=            -52.0704
   XY=             -4.3328   XZ=             -1.1980   YZ=              0.2892

  Exact polarizability:  93.582   0.687  76.003  -0.297   2.699  62.628
 Approx polarizability: 125.881  11.271 119.349   1.168   5.207  98.928

                      1                      2                      3
                      A                      A                      A
 Frequencies --     42.7805                97.1473               163.6990
 Red. masses --      1.2589                 5.3422                 2.8595
 Frc consts  --      0.0014                 0.0297                 0.0451
 IR Inten    --     57.6828                10.6261                 4.7920

                      4                      5                      6
                      A                      A                      A
 Frequencies --    185.8222               199.1201               214.4245
 Red. masses --      1.3665                 1.3597                 1.7868
 Frc consts  --      0.0278                 0.0318                 0.0484
 IR Inten    --      0.6758                 0.9885                 1.7502

                      7                      8                      9
                      A                      A                      A
 Frequencies --    239.1764               280.0431               361.8589
 Red. masses --      1.9113                 3.0501                 3.1231
 Frc consts  --      0.0644                 0.1409                 0.2409
 IR Inten    --      2.3056                 2.8563                 3.1183

                     10                     11                     12
                      A                      A                      A
 Frequencies --    429.8125               490.7003               493.0967
 Red. masses --      3.5145                 3.4751                 4.4837
 Frc consts  --      0.3825                 0.4930                 0.6423
 IR Inten    --      1.8404                 2.0539                 2.7888

                     13                     14                     15
                      A                      A                      A
 Frequencies --    629.6396               676.9518               721.7608
 Red. masses --      3.9105                 4.0242                 3.7622
 Frc consts  --      0.9134                 1.0865                 1.1547
 IR Inten    --      1.1578                 6.6508                31.7180

                     16                     17                     18
                      A                      A                      A
 Frequencies --    763.0965               826.9480               885.3000
 Red. masses --      3.5469                 2.2013                 2.2270
 Frc consts  --      1.2169                 0.8869                 1.0284
 IR Inten    --     23.3433                 6.4043                35.0389

                     19                     20                     21
                      A                      A                      A
 Frequencies --    942.0870               946.0538              1016.9693
 Red. masses --      1.8998                 1.9686                 1.3381
 Frc consts  --      0.9934                 1.0381                 0.8153
 IR Inten    --      0.8372                21.5640                 8.9647

                     22                     23                     24
                      A                      A                      A
 Frequencies --   1043.0206              1072.9520              1082.8543
 Red. masses --      1.3784                 1.6860                 2.3061
 Frc consts  --      0.8835                 1.1436                 1.5932
 IR Inten    --     11.8302                26.4802                41.0908

                     25                     26                     27
                      A                      A                      A
 Frequencies --   1119.1956              1125.2688              1152.0468
 Red. masses --      2.2569                 2.2561                 1.6540
 Frc consts  --      1.6656                 1.6832                 1.2934
 IR Inten    --      5.2158                 2.1250                 5.0753

                     28                     29                     30
                      A                      A                      A
 Frequencies --   1180.8752              1226.9224              1235.1722
 Red. masses --      1.7859                 2.2931                 1.6430
 Frc consts  --      1.4673                 2.0338                 1.4768
 IR Inten    --     57.9162                23.3156                14.3842

                     31                     32                     33
                      A                      A                      A
 Frequencies --   1307.1653              1342.0617              1392.9687
 Red. masses --      1.2720                 1.6020                 1.7718
 Frc consts  --      1.2806                 1.7000                 2.0255
 IR Inten    --     48.7198                30.8057                 5.4720

                     34                     35                     36
                      A                      A                      A
 Frequencies --   1407.6688              1420.9685              1435.1837
 Red. masses --      1.2449                 1.5185                 2.9560
 Frc consts  --      1.4534                 1.8064                 3.5874
 IR Inten    --      5.1039                 4.3308                59.7639

                     37                     38                     39
                      A                      A                      A
 Frequencies --   1490.2949              1495.4692              1501.3624
 Red. masses --      1.0473                 1.0556                 1.0669
 Frc consts  --      1.3705                 1.3909                 1.4169
 IR Inten    --      4.8730                 4.4112                 5.7278

                     40                     41                     42
                      A                      A                      A
 Frequencies --   1505.5721              1869.8420              3026.2797
 Red. masses --      1.0954                12.3329                 1.0829
 Frc consts  --      1.4629                25.4054                 5.8432
 IR Inten    --     12.5742               328.2455                27.7272

                     43                     44                     45
                      A                      A                      A
 Frequencies --   3028.1557              3044.4881              3085.8780
 Red. masses --      1.0376                 1.0342                 1.0950
 Frc consts  --      5.6058                 5.6479                 6.1435
 IR Inten    --     22.9286                19.7632                 1.5940

                     46                     47                     48
                      A                      A                      A
 Frequencies --   3097.3939              3110.1710              3115.2466
 Red. masses --      1.0949                 1.0987                 1.1018
 Frc consts  --      6.1889                 6.2616                 6.2998
 IR Inten    --     24.4307                27.9238                20.6745

                     49                     50                     51
                      A                      A                      A
 Frequencies --   3124.8294              3184.6161              3819.1409
 Red. masses --      1.1025                 1.0935                 1.0662
 Frc consts  --      6.3430                 6.5341                 9.1625
 IR Inten    --     13.6099                 5.2055                37.1773

 - Thermochemistry -
 -------------------
 Temperature   298.150 Kelvin.  Pressure   1.00000 Atm.
 Atom     1 has atomic number  6 and mass  12.00000

 Molecular mass:   126.06808 amu.
 Principal axes and moments of inertia in atomic units:
                           1         2         3
     Eigenvalues --   704.801821239.731421739.75698
           X            0.99581  -0.09132  -0.00363
           Y            0.09134   0.99581   0.00393
           Z            0.00326  -0.00425   0.99999
 This molecule is an asymmetric top.
 Rotational symmetry number  1.
 Warning -- assumption of classical behavior for rotation
           may cause significant error
 Rotational temperatures (Kelvin)      0.12289     0.06986     0.04979
 Rotational constants (GHZ):           2.56064     1.45575     1.03735
 Zero-point vibrational energy     410615.5 (Joules/Mol)
                                   98.13946 (Kcal/Mol)
 Warning -- explicit consideration of  12 degrees of freedom as
           vibrations may cause significant error
 Vibrational temperatures:     61.55   139.77   235.53   267.36   286.49
          (Kelvin)            308.51   344.12   402.92   520.63   618.40
                              706.01   709.46   905.91   973.98  1038.45
                             1097.92  1189.79  1273.75  1355.45  1361.16
                             1463.19  1500.67  1543.74  1557.98  1610.27
                             1619.01  1657.54  1699.01  1765.27  1777.14
                             1880.72  1930.93  2004.17  2025.32  2044.45
                             2064.91  2144.20  2151.64  2160.12  2166.18
                             2690.28  4354.14  4356.84  4380.33  4439.88
                             4456.45  4474.84  4482.14  4495.93  4581.95
                             5494.89

 Zero-point correction=                           0.156395 (Hartree/Particle)
 Thermal correction to Energy=                    0.166142
 Thermal correction to Enthalpy=                  0.167087
 Thermal correction to Gibbs Free Energy=         0.121461
 Sum of electronic and zero-point Energies=           -423.020108
 Sum of electronic and thermal Energies=              -423.010361
 Sum of electronic and thermal Enthalpies=            -423.009417
 Sum of electronic and thermal Free Energies=         -423.055043

                     E (Thermal)             CV                S
                      KCal/Mol        Cal/Mol-Kelvin    Cal/Mol-Kelvin
 Total                  104.256             35.281             96.028
 Electronic               0.000              0.000              0.000
 Translational            0.889              2.981             40.409
 Rotational               0.889              2.981             28.810
 Vibrational            102.478             29.319             26.809
 Vibration     1          0.595              1.980              5.126
 Vibration     2          0.603              1.951              3.511
 Vibration     3          0.623              1.887              2.507
 Vibration     4          0.632              1.859              2.269
 Vibration     5          0.637              1.841              2.141
 Vibration     6          0.644              1.819              2.006
 Vibration     7          0.657              1.781              1.809
 Vibration     8          0.680              1.711              1.533
 Vibration     9          0.736              1.551              1.114
 Vibration    10          0.791              1.405              0.859
 Vibration    11          0.846              1.271              0.682
 Vibration    12          0.849              1.265              0.676

 Optimization completed on the basis of negligible forces.
    -- Stationary point found.
 Normal termination of Gaussian 09 at Tue Jan 28 00:25:09 2020.
