 Gaussian 09, Revision D.01,
 Gaussian 09:  ES64L-G09RevD.01 24-Apr-2013

 -----------------------------
 # b3lyp 6-31G(2df,p) opt Freq
 -----------------------------

 -----
 titel
 -----
 Symbolic Z-matrix:
 Charge =  0 Multiplicity = 1

 SCF Done:  E(RB3LYP) =  -423.159215414     A.U. after   15 cycles
 Optimization completed.
    -- Stationary point found.
 Normal termination of Gaussian 09 at Mon Jan 27 15:29:38 2020.

 ----------------------------------------------------------------------
 #N Geom=AllCheck Guess=TCheck SCRF=Check GenChk RB3LYP/6-31G(2df,p) Fr
 eq
 ----------------------------------------------------------------------

 Structure from the checkpoint file:  "/scratch/puck/g09_ec6dd836-e2c0-44af-9877-01803117fcf6/Gau-44391.chk"
 -----
 titel
 -----
 Charge =  0 Multiplicity = 1

                         Standard orientation:
 ---------------------------------------------------------------------
 Center     Atomic      Atomic             Coordinates (Angstroms)
 Number     Number       Type             X           Y           Z
 ---------------------------------------------------------------------
      1          6           0        2.559012   -0.752379    0.272013
      2          6           0        1.251362    0.023710    0.480831
      3          6           0        1.521280    1.523367    0.661381
      4          6           0        0.280779   -0.243527   -0.687798
      5          8           0        0.085505   -1.646742   -0.774498
      6          6           0       -1.057729    0.474361   -0.478080
      7          8           0       -1.343157    1.502033   -1.054187
      8          6           0       -1.975973   -0.155736    0.457905
      9          6           0       -2.748134   -0.643000    1.242572
     10          1           0        3.088169   -0.389756   -0.617353
     11          1           0        3.221887   -0.615185    1.132156
     12          1           0        2.369737   -1.819334    0.144591
     13          1           0        0.762606   -0.361378    1.385601
     14          1           0        0.609025    2.094512    0.853124
     15          1           0        2.200103    1.682706    1.504527
     16          1           0        1.994815    1.947124   -0.231482
     17          1           0        0.707342    0.167873   -1.614709
     18          1           0       -0.445256   -1.836517   -1.554672
     19          1           0       -3.430793   -1.073151    1.934751
 ---------------------------------------------------------------------

 SCF Done:  E(RB3LYP) =  -423.159215414     A.U. after    1 cycles

 The electronic state is 1-A.
 Alpha  occ. eigenvalues --  -19.15344 -19.14533 -10.29031 -10.24405 -10.20780
 Alpha  occ. eigenvalues --  -10.20096 -10.19683 -10.17601 -10.17237  -1.05707
 Alpha  occ. eigenvalues --   -1.03319  -0.80970  -0.77595  -0.71106  -0.68409
 Alpha  occ. eigenvalues --   -0.63682  -0.57787  -0.54074  -0.52927  -0.48660
 Alpha  occ. eigenvalues --   -0.45907  -0.45199  -0.42879  -0.40568  -0.39104
 Alpha  occ. eigenvalues --   -0.38169  -0.37241  -0.34517  -0.33987  -0.33171
 Alpha  occ. eigenvalues --   -0.30230  -0.29625  -0.29449  -0.25556
 Alpha virt. eigenvalues --   -0.06381   0.03269   0.07261   0.09090   0.10525
 Alpha virt. eigenvalues --    0.10964   0.12849   0.15004   0.15273   0.17098
 Alpha virt. eigenvalues --    0.17529   0.18115   0.19309   0.22002   0.22750

 Mulliken charges:
               1
     1  C   -0.395046
     2  C    0.024701
     3  C   -0.400945
     4  C    0.022086
     5  O   -0.427510
     6  C    0.192508
     7  O   -0.291468
     8  C    0.309585
     9  C   -0.450191
    10  H    0.110373
    11  H    0.110960
    12  H    0.136313
    13  H    0.092650
    14  H    0.130438
    15  H    0.115692
    16  H    0.120650
    17  H    0.090110
    18  H    0.291713
    19  H    0.217379
 Sum of Mulliken charges =   0.00000

 Dipole moment (field-independent basis, Debye):
    X=              0.1049    Y=             -1.6307    Z=              0.6343  Tot=              1.7528
 Quadrupole moment (field-independent basis, Debye-Ang):
   XX=            -50.2322   YY=            -57.6300   ZZ=            -48.9317
   XY=              6.7108   XZ=             -3.7286   YZ=              2.9836

  Exact polarizability:  89.776   5.750  73.504  -9.553  -7.401  73.061
 Approx polarizability: 118.214  11.940 117.354 -20.308 -24.954 120.852

                      1                      2                      3
                      A                      A                      A
 Frequencies --     20.5128                55.4585               139.0721
 Red. masses --      4.3407                 2.9501                 4.6107
 Frc consts  --      0.0011                 0.0053                 0.0525
 IR Inten    --      2.6020                 0.3668                 2.0840

                      4                      5                      6
                      A                      A                      A
 Frequencies --    152.2548               207.6353               224.6184
 Red. masses --      4.8694                 1.1271                 1.1230
 Frc consts  --      0.0665                 0.0286                 0.0334
 IR Inten    --      1.6447                 0.3430                 0.2229

                      7                      8                      9
                      A                      A                      A
 Frequencies --    253.1301               281.8163               300.3312
 Red. masses --      3.5837                 1.4163                 4.4307
 Frc consts  --      0.1353                 0.0663                 0.2355
 IR Inten    --      0.2341                51.2647                19.4008

                     10                     11                     12
                      A                      A                      A
 Frequencies --    315.2321               357.1679               386.0584
 Red. masses --      2.0784                 2.5877                 3.3848
 Frc consts  --      0.1217                 0.1945                 0.2972
 IR Inten    --     58.6960                 4.7424                 1.7048

                     13                     14                     15
                      A                      A                      A
 Frequencies --    427.1890               532.3495               649.2052
 Red. masses --      2.9747                 5.2356                 1.2949
 Frc consts  --      0.3198                 0.8742                 0.3215
 IR Inten    --      0.6204                 3.9928                37.9787

                     16                     17                     18
                      A                      A                      A
 Frequencies --    669.3857               714.2798               732.3103
 Red. masses --      7.4681                 1.4327                 3.6017
 Frc consts  --      1.9716                 0.4307                 1.1380
 IR Inten    --      9.6512                20.9857                31.8056

                     19                     20                     21
                      A                      A                      A
 Frequencies --    766.8122               859.6368               930.5642
 Red. masses --      5.4250                 2.2989                 1.5818
 Frc consts  --      1.8795                 1.0009                 0.8070
 IR Inten    --     25.7559                 1.9314                 6.3272

                     22                     23                     24
                      A                      A                      A
 Frequencies --    938.7012               970.2642              1072.6692
 Red. masses --      1.3823                 1.4340                 3.7326
 Frc consts  --      0.7176                 0.7954                 2.5304
 IR Inten    --      5.8180                 3.7379                74.7051

                     25                     26                     27
                      A                      A                      A
 Frequencies --   1104.5008              1135.8666              1192.4716
 Red. masses --      2.2502                 2.0752                 1.7453
 Frc consts  --      1.6173                 1.5775                 1.4622
 IR Inten    --     32.6631                 2.4750                12.0435

                     28                     29                     30
                      A                      A                      A
 Frequencies --   1204.6893              1262.3060              1309.7477
 Red. masses --      4.8828                 1.3452                 1.3378
 Frc consts  --      4.1751                 1.2629                 1.3521
 IR Inten    --     84.3039                28.7144                30.3085

                     31                     32                     33
                      A                      A                      A
 Frequencies --   1346.1385              1356.1630              1394.4218
 Red. masses --      1.3810                 1.3169                 1.2880
 Frc consts  --      1.4744                 1.4270                 1.4756
 IR Inten    --      3.5762                 1.7502                 2.4941

                     34                     35                     36
                      A                      A                      A
 Frequencies --   1399.6557              1426.6833              1487.4463
 Red. masses --      1.3040                 1.2325                 1.0502
 Frc consts  --      1.5051                 1.4781                 1.3691
 IR Inten    --      3.5779                 2.7102                 2.1933

                     37                     38                     39
                      A                      A                      A
 Frequencies --   1489.3088              1504.1164              1511.8900
 Red. masses --      1.0432                 1.0503                 1.0538
 Frc consts  --      1.3633                 1.4000                 1.4192
 IR Inten    --      2.9908                 2.6414                 8.2407

                     40                     41                     42
                      A                      A                      A
 Frequencies --   1762.2260              2208.8925              3000.8435
 Red. masses --     12.3144                 5.9164                 1.0823
 Frc consts  --     22.5314                17.0081                 5.7424
 IR Inten    --    150.9892                66.4162                15.3981

                     43                     44                     45
                      A                      A                      A
 Frequencies --   3024.8102              3032.0610              3038.6023
 Red. masses --      1.0775                 1.0413                 1.0403
 Frc consts  --      5.8086                 5.6404                 5.6592
 IR Inten    --      9.6454                20.9800                36.2044

                     46                     47                     48
                      A                      A                      A
 Frequencies --   3094.7554              3103.8238              3116.9937
 Red. masses --      1.0998                 1.0997                 1.1010
 Frc consts  --      6.2061                 6.2418                 6.3026
 IR Inten    --     10.4661                43.2641                23.5877

                     49                     50                     51
                      A                      A                      A
 Frequencies --   3138.6466              3493.4731              3820.0430
 Red. masses --      1.0987                 1.1617                 1.0667
 Frc consts  --      6.3769                 8.3535                 9.1712
 IR Inten    --     13.4907                51.1069                30.0680

 - Thermochemistry -
 -------------------
 Temperature   298.150 Kelvin.  Pressure   1.00000 Atm.
 Atom     1 has atomic number  6 and mass  12.00000

 Molecular mass:   126.06808 amu.
 Principal axes and moments of inertia in atomic units:
                           1         2         3
     Eigenvalues --   798.210051551.154061770.45496
           X            0.99964   0.02677  -0.00010
           Y           -0.02673   0.99835   0.05082
           Z            0.00146  -0.05080   0.99871
 This molecule is an asymmetric top.
 Rotational symmetry number  1.
 Warning -- assumption of classical behavior for rotation
           may cause significant error
 Rotational temperatures (Kelvin)      0.10851     0.05584     0.04892
 Rotational constants (GHZ):           2.26099     1.16348     1.01937
 Zero-point vibrational energy     406235.3 (Joules/Mol)
                                   97.09256 (Kcal/Mol)
 Warning -- explicit consideration of  14 degrees of freedom as
           vibrations may cause significant error
 Vibrational temperatures:     29.51    79.79   200.09   219.06   298.74
          (Kelvin)            323.18   364.20   405.47   432.11   453.55
                              513.88   555.45   614.63   765.93   934.06
                              963.10  1027.69  1053.63  1103.27  1236.82
                             1338.87  1350.58  1395.99  1543.33  1589.13
                             1634.26  1715.70  1733.28  1816.17  1884.43
                             1936.79  1951.21  2006.26  2013.79  2052.68
                             2140.10  2142.78  2164.09  2175.27  2535.45
                             3178.10  4317.54  4352.02  4362.45  4371.87
                             4452.66  4465.70  4484.65  4515.81  5026.32
                             5496.18

 Zero-point correction=                           0.154727 (Hartree/Particle)
 Thermal correction to Energy=                    0.165512
 Thermal correction to Enthalpy=                  0.166456
 Thermal correction to Gibbs Free Energy=         0.117847
 Sum of electronic and zero-point Energies=           -423.004489
 Sum of electronic and thermal Energies=              -422.993704
 Sum of electronic and thermal Enthalpies=            -422.992760
 Sum of electronic and thermal Free Energies=         -423.041368

                     E (Thermal)             CV                S
                      KCal/Mol        Cal/Mol-Kelvin    Cal/Mol-Kelvin
 Total                  103.860             38.227            102.305
 Electronic               0.000              0.000              0.000
 Translational            0.889              2.981             40.409
 Rotational               0.889              2.981             29.173
 Vibrational            102.083             32.265             32.723
 Vibration     1          0.593              1.986              6.584
 Vibration     2          0.596              1.975              4.613
 Vibration     3          0.615              1.914              2.817
 Vibration     4          0.619              1.900              2.644
 Vibration     5          0.641              1.829              2.064
 Vibration     6          0.649              1.804              1.922
 Vibration     7          0.664              1.758              1.709
 Vibration     8          0.681              1.707              1.523
 Vibration     9          0.693              1.673              1.415
 Vibration    10          0.703              1.645              1.335
 Vibration    11          0.732              1.561              1.134
 Vibration    12          0.755              1.500              1.015
 Vibration    13          0.789              1.411              0.868
 Vibration    14          0.887              1.178              0.582

 Normal termination of Gaussian 09 at Mon Jan 27 16:08:38 2020.
