 Gaussian 09, Revision D.01,
 Gaussian 09:  ES64L-G09RevD.01 24-Apr-2013

 -----------------------------
 # b3lyp 6-31G(2df,p) opt Freq
 -----------------------------

 -----
 titel
 -----
 Symbolic Z-matrix:
 Charge =  0 Multiplicity = 1

 SCF Done:  E(RB3LYP) =  -423.163199939     A.U. after   14 cycles
 Optimization completed.
    -- Stationary point found.
 Normal termination of Gaussian 09 at Tue Jan 28 08:21:05 2020.

 ----------------------------------------------------------------------
 #N Geom=AllCheck Guess=TCheck SCRF=Check GenChk RB3LYP/6-31G(2df,p) Fr
 eq
 ----------------------------------------------------------------------

 Structure from the checkpoint file:  "/scratch/puck/g09_b4780640-a21c-4f59-9bf9-c98f61b56e29/Gau-59657.chk"
 -----
 titel
 -----
 Charge =  0 Multiplicity = 1

                         Standard orientation:
 ---------------------------------------------------------------------
 Center     Atomic      Atomic             Coordinates (Angstroms)
 Number     Number       Type             X           Y           Z
 ---------------------------------------------------------------------
      1          6           0       -3.421741   -0.097890    0.130495
      2          6           0       -2.104588   -0.597910   -0.456724
      3          6           0       -0.906384    0.270548   -0.100186
      4          8           0       -1.023428    1.326447    0.484504
      5          6           0        0.452546   -0.262999   -0.498231
      6          6           0        1.131750   -1.098942    0.667567
      7          6           0        2.249714   -0.049165    0.694107
      8          8           0        2.818569    0.011332   -0.618066
      9          6           0        1.612553    0.739133   -0.368399
     10          1           0       -4.252762   -0.735460   -0.183400
     11          1           0       -3.385753   -0.091289    1.223247
     12          1           0       -3.625640    0.925657   -0.192532
     13          1           0       -1.886505   -1.628515   -0.144201
     14          1           0       -2.153345   -0.642806   -1.554466
     15          1           0        0.412139   -0.786040   -1.457812
     16          1           0        0.528986   -1.097912    1.579356
     17          1           0        1.437397   -2.118422    0.422536
     18          1           0        2.877709    0.251799    1.523847
     19          1           0        1.603537    1.804101   -0.559859
 ---------------------------------------------------------------------

 SCF Done:  E(RB3LYP) =  -423.163199939     A.U. after    1 cycles

 The electronic state is 1-A.
 Alpha  occ. eigenvalues --  -19.15385 -19.13170 -10.27060 -10.24144 -10.23966
 Alpha  occ. eigenvalues --  -10.20467 -10.20406 -10.19736 -10.17877  -1.08165
 Alpha  occ. eigenvalues --   -1.04160  -0.81816  -0.77899  -0.69636  -0.65802
 Alpha  occ. eigenvalues --   -0.62661  -0.57408  -0.54153  -0.50858  -0.48556
 Alpha  occ. eigenvalues --   -0.46480  -0.45229  -0.43785  -0.41640  -0.40103
 Alpha  occ. eigenvalues --   -0.38389  -0.37007  -0.36327  -0.35768  -0.34563
 Alpha  occ. eigenvalues --   -0.34040  -0.29661  -0.26396  -0.24359
 Alpha virt. eigenvalues --   -0.01627   0.08322   0.09033   0.10286   0.11756
 Alpha virt. eigenvalues --    0.12352   0.12885   0.14823   0.15566   0.16021
 Alpha virt. eigenvalues --    0.16716   0.16883   0.18456   0.19500   0.20166

 Mulliken charges:
               1
     1  C   -0.378484
     2  C   -0.282208
     3  C    0.360641
     4  O   -0.313318
     5  C   -0.124853
     6  C   -0.268489
     7  C    0.046439
     8  O   -0.252881
     9  C    0.032811
    10  H    0.111048
    11  H    0.128040
    12  H    0.135544
    13  H    0.121783
    14  H    0.126582
    15  H    0.091762
    16  H    0.120681
    17  H    0.116307
    18  H    0.109239
    19  H    0.119355
 Sum of Mulliken charges =   0.00000

 Dipole moment (field-independent basis, Debye):
    X=             -1.0381    Y=             -1.7998    Z=              0.0455  Tot=              2.0782
 Quadrupole moment (field-independent basis, Debye-Ang):
   XX=            -57.1800   YY=            -54.0201   ZZ=            -51.6930
   XY=              3.3831   XZ=              5.6241   YZ=             -2.1724

  Exact polarizability:  89.860   0.439  70.960   3.006  -0.099  65.440
 Approx polarizability: 111.316  -3.343 113.930   1.309   2.755 105.530

                      1                      2                      3
                      A                      A                      A
 Frequencies --     35.5667                64.3511               114.1953
 Red. masses --      4.3389                 1.8596                 4.1257
 Frc consts  --      0.0032                 0.0045                 0.0317
 IR Inten    --      1.4838                 1.2074                 3.1132

                      4                      5                      6
                      A                      A                      A
 Frequencies --    166.7106               209.2451               256.9158
 Red. masses --      2.2352                 1.4650                 3.1414
 Frc consts  --      0.0366                 0.0378                 0.1222
 IR Inten    --      2.5264                 0.1755                 7.3721

                      7                      8                      9
                      A                      A                      A
 Frequencies --    315.0220               350.5811               462.1382
 Red. masses --      4.0793                 3.1126                 3.8788
 Frc consts  --      0.2385                 0.2254                 0.4881
 IR Inten    --      0.8482                 6.0427                 4.1180

                     10                     11                     12
                      A                      A                      A
 Frequencies --    560.3142               654.5715               748.8182
 Red. masses --      2.0250                 3.4840                 3.3455
 Frc consts  --      0.3746                 0.8795                 1.1053
 IR Inten    --      0.0381                 9.2547                 2.6824

                     13                     14                     15
                      A                      A                      A
 Frequencies --    786.1684               809.0880               846.8620
 Red. masses --      2.5199                 1.7608                 2.7302
 Frc consts  --      0.9176                 0.6791                 1.1536
 IR Inten    --      0.8016                 5.0884                10.2243

                     16                     17                     18
                      A                      A                      A
 Frequencies --    858.5006               904.9374               939.5440
 Red. masses --      2.0217                 2.8115                 2.5810
 Frc consts  --      0.8779                 1.3565                 1.3424
 IR Inten    --     29.4352                 7.2059                 5.9002

                     19                     20                     21
                      A                      A                      A
 Frequencies --    955.2130               980.9934              1003.0347
 Red. masses --      2.6138                 1.9545                 2.1956
 Frc consts  --      1.4052                 1.1082                 1.3015
 IR Inten    --     23.4213                13.5788                14.4071

                     22                     23                     24
                      A                      A                      A
 Frequencies --   1015.2579              1047.9780              1080.5141
 Red. masses --      1.6573                 1.3363                 1.8090
 Frc consts  --      1.0065                 0.8647                 1.2443
 IR Inten    --      1.6702                 4.2108                17.3576

                     25                     26                     27
                      A                      A                      A
 Frequencies --   1100.1368              1137.9560              1151.2235
 Red. masses --      2.0558                 2.0659                 1.4721
 Frc consts  --      1.4660                 1.5762                 1.1495
 IR Inten    --      0.5871                57.7628                 8.7621

                     28                     29                     30
                      A                      A                      A
 Frequencies --   1210.1476              1226.0276              1233.9263
 Red. masses --      1.3158                 1.3740                 1.3822
 Frc consts  --      1.1353                 1.2168                 1.2399
 IR Inten    --      5.0435                 6.4140                 1.1460

                     31                     32                     33
                      A                      A                      A
 Frequencies --   1269.2858              1279.1275              1333.8009
 Red. masses --      1.4508                 1.2600                 1.6276
 Frc consts  --      1.3771                 1.2147                 1.7060
 IR Inten    --      7.8418                 0.0681                16.5234

                     34                     35                     36
                      A                      A                      A
 Frequencies --   1379.3925              1391.4791              1414.0065
 Red. masses --      2.2864                 3.4073                 1.2245
 Frc consts  --      2.5632                 3.8870                 1.4424
 IR Inten    --     60.0764                 9.1232                 3.7694

                     37                     38                     39
                      A                      A                      A
 Frequencies --   1449.9552              1467.4338              1493.7424
 Red. masses --      1.0883                 1.1187                 1.0383
 Frc consts  --      1.3480                 1.4194                 1.3650
 IR Inten    --      9.0413                 1.7379                 5.9212

                     40                     41                     42
                      A                      A                      A
 Frequencies --   1497.9666              1792.5826              3013.4712
 Red. masses --      1.0508                11.0280                 1.0617
 Frc consts  --      1.3893                20.8789                 5.6807
 IR Inten    --      7.7131               113.3224                17.4087

                     43                     44                     45
                      A                      A                      A
 Frequencies --   3040.8204              3051.9654              3065.2040
 Red. masses --      1.0969                 1.0356                 1.0576
 Frc consts  --      5.9756                 5.6834                 5.8545
 IR Inten    --      8.6342                21.5151                23.4302

                     46                     47                     48
                      A                      A                      A
 Frequencies --   3074.2229              3121.3310              3126.3843
 Red. masses --      1.0843                 1.1021                 1.1091
 Frc consts  --      6.0376                 6.3265                 6.3869
 IR Inten    --     16.3207                21.6367                16.3269

                     49                     50                     51
                      A                      A                      A
 Frequencies --   3130.2184              3192.0351              3213.9321
 Red. masses --      1.1015                 1.0896                 1.0994
 Frc consts  --      6.3589                 6.5413                 6.6910
 IR Inten    --     17.1793                16.1541                 9.2477

 - Thermochemistry -
 -------------------
 Temperature   298.150 Kelvin.  Pressure   1.00000 Atm.
 Atom     1 has atomic number  6 and mass  12.00000

 Molecular mass:   126.06808 amu.
 Principal axes and moments of inertia in atomic units:
                           1         2         3
     Eigenvalues --   390.200292004.323572109.80943
           X            0.99989   0.01020   0.01046
           Y           -0.00984   0.99939  -0.03361
           Z           -0.01080   0.03351   0.99938
 This molecule is an asymmetric top.
 Rotational symmetry number  1.
 Rotational temperatures (Kelvin)      0.22197     0.04321     0.04105
 Rotational constants (GHZ):           4.62517     0.90042     0.85540
 Zero-point vibrational energy     412857.0 (Joules/Mol)
                                   98.67519 (Kcal/Mol)
 Warning -- explicit consideration of  10 degrees of freedom as
           vibrations may cause significant error
 Vibrational temperatures:     51.17    92.59   164.30   239.86   301.06
          (Kelvin)            369.64   453.25   504.41   664.91   806.17
                              941.78  1077.38  1131.12  1164.10  1218.44
                             1235.19  1302.00  1351.79  1374.34  1411.43
                             1443.14  1460.73  1507.80  1554.62  1582.85
                             1637.26  1656.35  1741.13  1763.98  1775.34
                             1826.22  1840.38  1919.04  1984.64  2002.03
                             2034.44  2086.16  2111.31  2149.16  2155.24
                             2579.12  4335.71  4375.06  4391.09  4410.14
                             4423.12  4490.89  4498.16  4503.68  4592.62
                             4624.13

 Zero-point correction=                           0.157249 (Hartree/Particle)
 Thermal correction to Energy=                    0.166316
 Thermal correction to Enthalpy=                  0.167260
 Thermal correction to Gibbs Free Energy=         0.122153
 Sum of electronic and zero-point Energies=           -423.005951
 Sum of electronic and thermal Energies=              -422.996884
 Sum of electronic and thermal Enthalpies=            -422.995940
 Sum of electronic and thermal Free Energies=         -423.041047

                     E (Thermal)             CV                S
                      KCal/Mol        Cal/Mol-Kelvin    Cal/Mol-Kelvin
 Total                  104.365             32.684             94.937
 Electronic               0.000              0.000              0.000
 Translational            0.889              2.981             40.409
 Rotational               0.889              2.981             28.891
 Vibrational            102.587             26.723             25.637
 Vibration     1          0.594              1.982              5.492
 Vibration     2          0.597              1.971              4.319
 Vibration     3          0.607              1.938              3.196
 Vibration     4          0.624              1.883              2.472
 Vibration     5          0.642              1.827              2.050
 Vibration     6          0.667              1.751              1.683
 Vibration     7          0.702              1.645              1.336
 Vibration     8          0.727              1.574              1.164
 Vibration     9          0.820              1.334              0.760
 Vibration    10          0.916              1.117              0.523

 Normal termination of Gaussian 09 at Tue Jan 28 10:08:21 2020.
