 Gaussian 09, Revision D.01,
 Gaussian 09:  ES64L-G09RevD.01 24-Apr-2013

 -----------------------------
 # b3lyp 6-31G(2df,p) opt Freq
 -----------------------------

 -----
 titel
 -----
 Symbolic Z-matrix:
 Charge =  0 Multiplicity = 1

 SCF Done:  E(RB3LYP) =  -423.188671619     A.U. after   14 cycles
 Optimization completed.
    -- Stationary point found.
 Normal termination of Gaussian 09 at Tue Jan 28 03:17:42 2020.

 ----------------------------------------------------------------------
 #N Geom=AllCheck Guess=TCheck SCRF=Check GenChk RB3LYP/6-31G(2df,p) Fr
 eq
 ----------------------------------------------------------------------

 Structure from the checkpoint file:  "/scratch/puck/g09_0c33806f-e51e-453e-9211-3dc2317eeb59/Gau-79193.chk"
 -----
 titel
 -----
 Charge =  0 Multiplicity = 1

                         Standard orientation:
 ---------------------------------------------------------------------
 Center     Atomic      Atomic             Coordinates (Angstroms)
 Number     Number       Type             X           Y           Z
 ---------------------------------------------------------------------
      1          6           0        2.709378    0.149033    0.009601
      2          6           0        1.201973    0.101989    0.015758
      3          8           0        0.635813   -0.833437    0.988080
      4          6           0        0.473694   -1.110232   -0.410843
      5          6           0       -0.922920   -0.973743   -0.968507
      6          6           0       -1.690847    0.197710   -0.325452
      7          8           0       -2.159779   -0.149165    0.975718
      8          6           0       -0.843759    1.451498   -0.275875
      9          6           0        0.478103    1.398349   -0.102320
     10          1           0        3.079148    0.767544    0.834581
     11          1           0        3.128593   -0.853694    0.118849
     12          1           0        3.077157    0.583281   -0.926279
     13          1           0        1.056019   -1.963490   -0.762042
     14          1           0       -0.848097   -0.828890   -2.054046
     15          1           0       -1.495007   -1.891952   -0.797128
     16          1           0       -2.596015    0.389780   -0.910115
     17          1           0       -1.361744   -0.342472    1.488177
     18          1           0       -1.355118    2.408157   -0.324895
     19          1           0        1.073062    2.304915   -0.031661
 ---------------------------------------------------------------------

 SCF Done:  E(RB3LYP) =  -423.188671619     A.U. after    1 cycles

 The electronic state is 1-A.
 Alpha  occ. eigenvalues --  -19.15588 -19.11956 -10.24859 -10.24057 -10.23362
 Alpha  occ. eigenvalues --  -10.19040 -10.18868 -10.18784 -10.18775  -1.07126
 Alpha  occ. eigenvalues --   -1.00342  -0.80946  -0.76687  -0.73733  -0.67216
 Alpha  occ. eigenvalues --   -0.61102  -0.60446  -0.53454  -0.50684  -0.47674
 Alpha  occ. eigenvalues --   -0.45520  -0.45001  -0.43895  -0.42531  -0.40728
 Alpha  occ. eigenvalues --   -0.39238  -0.38571  -0.37272  -0.34743  -0.32673
 Alpha  occ. eigenvalues --   -0.30817  -0.27232  -0.26584  -0.24482
 Alpha virt. eigenvalues --   -0.00783   0.08824   0.10906   0.11587   0.12074
 Alpha virt. eigenvalues --    0.12689   0.14119   0.15275   0.15975   0.16633
 Alpha virt. eigenvalues --    0.16781   0.18214   0.20277   0.21007   0.23576

 Mulliken charges:
               1
     1  C   -0.484865
     2  C    0.368852
     3  O   -0.304952
     4  C   -0.011071
     5  C   -0.274062
     6  C    0.067523
     7  O   -0.439335
     8  C   -0.108881
     9  C   -0.083894
    10  H    0.131088
    11  H    0.130799
    12  H    0.127162
    13  H    0.090518
    14  H    0.107534
    15  H    0.118339
    16  H    0.084935
    17  H    0.287377
    18  H    0.101038
    19  H    0.091895
 Sum of Mulliken charges =   0.00000

 Dipole moment (field-independent basis, Debye):
    X=              1.9116    Y=              0.4811    Z=             -2.1781  Tot=              2.9377
 Quadrupole moment (field-independent basis, Debye-Ang):
   XX=            -54.7930   YY=            -50.5855   ZZ=            -54.4755
   XY=              0.0315   XZ=              2.6537   YZ=              1.6520

  Exact polarizability:  91.938   1.083  76.052   3.340   1.644  60.119
 Approx polarizability: 131.366   1.956 111.211   4.221  -1.576  99.148

                      1                      2                      3
                      A                      A                      A
 Frequencies --    141.9557               183.4104               219.6920
 Red. masses --      4.0518                 1.3363                 2.3675
 Frc consts  --      0.0481                 0.0265                 0.0673
 IR Inten    --      1.5725                 0.6724                 0.8935

                      4                      5                      6
                      A                      A                      A
 Frequencies --    246.5350               318.1877               366.6510
 Red. masses --      3.2642                 2.2875                 2.5704
 Frc consts  --      0.1169                 0.1365                 0.2036
 IR Inten    --      3.0248                 0.6373                 1.2900

                      7                      8                      9
                      A                      A                      A
 Frequencies --    400.1217               435.9798               475.0395
 Red. masses --      2.4565                 3.9685                 4.7274
 Frc consts  --      0.2317                 0.4444                 0.6285
 IR Inten    --      1.9844                 5.9542                 2.7763

                     10                     11                     12
                      A                      A                      A
 Frequencies --    558.5871               590.4986               647.8979
 Red. masses --      1.1081                 3.5588                 4.4286
 Frc consts  --      0.2037                 0.7311                 1.0953
 IR Inten    --     74.6145                 4.6051                10.8748

                     13                     14                     15
                      A                      A                      A
 Frequencies --    699.7320               724.8024               786.0912
 Red. masses --      4.9205                 2.9197                 2.2965
 Frc consts  --      1.4195                 0.9037                 0.8361
 IR Inten    --      6.9770                 9.0881                 4.2464

                     16                     17                     18
                      A                      A                      A
 Frequencies --    824.3183               870.3606               914.9034
 Red. masses --      2.4990                 3.4126                 2.2425
 Frc consts  --      1.0005                 1.5231                 1.1059
 IR Inten    --     39.0713                 3.0292                 2.9699

                     19                     20                     21
                      A                      A                      A
 Frequencies --    940.7977               956.9293               993.0868
 Red. masses --      2.1802                 2.8141                 1.3157
 Frc consts  --      1.1369                 1.5183                 0.7645
 IR Inten    --      8.2272                 3.6759                 1.3339

                     22                     23                     24
                      A                      A                      A
 Frequencies --   1019.2600              1050.8603              1082.6447
 Red. masses --      1.4585                 2.6272                 1.8445
 Frc consts  --      0.8927                 1.7093                 1.2738
 IR Inten    --     13.9613                55.3997                31.0023

                     25                     26                     27
                      A                      A                      A
 Frequencies --   1096.9745              1129.1129              1186.0974
 Red. masses --      1.7891                 1.9770                 1.1140
 Frc consts  --      1.2685                 1.4850                 0.9234
 IR Inten    --     39.1580                20.3986                 1.1174

                     28                     29                     30
                      A                      A                      A
 Frequencies --   1228.7407              1249.9198              1276.6842
 Red. masses --      1.5454                 1.4662                 1.5942
 Frc consts  --      1.3748                 1.3496                 1.5310
 IR Inten    --      7.5549                13.5224                 7.2563

                     31                     32                     33
                      A                      A                      A
 Frequencies --   1316.8808              1347.8624              1377.3578
 Red. masses --      1.4191                 1.6422                 1.4883
 Frc consts  --      1.4499                 1.7578                 1.6635
 IR Inten    --     11.7179                 3.5079                 0.6202

                     34                     35                     36
                      A                      A                      A
 Frequencies --   1412.7125              1418.2316              1452.6968
 Red. masses --      1.2950                 1.7154                 1.3818
 Frc consts  --      1.5227                 2.0328                 1.7181
 IR Inten    --      5.8242                 6.3110                17.1785

                     37                     38                     39
                      A                      A                      A
 Frequencies --   1456.4628              1468.3288              1485.3892
 Red. masses --      1.6456                 1.1548                 1.1066
 Frc consts  --      2.0567                 1.4669                 1.4385
 IR Inten    --     53.0006                24.4876                 4.6768

                     40                     41                     42
                      A                      A                      A
 Frequencies --   1497.4297              1703.3384              3028.6263
 Red. masses --      1.1727                 6.8987                 1.0626
 Frc consts  --      1.5493                11.7929                 5.7426
 IR Inten    --      3.3528                 2.6279                13.6073

                     43                     44                     45
                      A                      A                      A
 Frequencies --   3036.0612              3060.6147              3078.9630
 Red. masses --      1.0365                 1.0850                 1.1003
 Frc consts  --      5.6289                 5.9883                 6.1455
 IR Inten    --     17.3783                44.4004                14.8305

                     46                     47                     48
                      A                      A                      A
 Frequencies --   3097.7187              3099.0908              3127.4815
 Red. masses --      1.0894                 1.0999                 1.1009
 Frc consts  --      6.1590                 6.2242                 6.3444
 IR Inten    --     28.5899                23.1108                15.1658

                     49                     50                     51
                      A                      A                      A
 Frequencies --   3157.4828              3182.4726              3737.9358
 Red. masses --      1.0847                 1.0976                 1.0654
 Frc consts  --      6.3716                 6.5495                 8.7706
 IR Inten    --      6.9189                21.5333                48.5392

 - Thermochemistry -
 -------------------
 Temperature   298.150 Kelvin.  Pressure   1.00000 Atm.
 Atom     1 has atomic number  6 and mass  12.00000

 Molecular mass:   126.06808 amu.
 Principal axes and moments of inertia in atomic units:
                           1         2         3
     Eigenvalues --   589.592961235.824921422.73447
           X            0.99989   0.00801   0.01252
           Y           -0.00871   0.99835   0.05668
           Z           -0.01205  -0.05679   0.99831
 This molecule is an asymmetric top.
 Rotational symmetry number  1.
 Warning -- assumption of classical behavior for rotation
           may cause significant error
 Rotational temperatures (Kelvin)      0.14690     0.07009     0.06088
 Rotational constants (GHZ):           3.06100     1.46035     1.26850
 Zero-point vibrational energy     419644.1 (Joules/Mol)
                                  100.29734 (Kcal/Mol)
 Warning -- explicit consideration of  11 degrees of freedom as
           vibrations may cause significant error
 Vibrational temperatures:    204.24   263.89   316.09   354.71   457.80
          (Kelvin)            527.53   575.69   627.28   683.48   803.68
                              849.59   932.18  1006.76  1042.83  1131.01
                             1186.01  1252.25  1316.34  1353.60  1376.81
                             1428.83  1466.49  1511.95  1557.68  1578.30
                             1624.54  1706.53  1767.88  1798.35  1836.86
                             1894.70  1939.27  1981.71  2032.58  2040.52
                             2090.10  2095.52  2112.60  2137.14  2154.46
                             2450.72  4357.51  4368.21  4403.54  4429.94
                             4456.92  4458.89  4499.74  4542.91  4578.86
                             5378.05

 Zero-point correction=                           0.159834 (Hartree/Particle)
 Thermal correction to Energy=                    0.167865
 Thermal correction to Enthalpy=                  0.168810
 Thermal correction to Gibbs Free Energy=         0.127852
 Sum of electronic and zero-point Energies=           -423.028838
 Sum of electronic and thermal Energies=              -423.020806
 Sum of electronic and thermal Enthalpies=            -423.019862
 Sum of electronic and thermal Free Energies=         -423.060820

                     E (Thermal)             CV                S
                      KCal/Mol        Cal/Mol-Kelvin    Cal/Mol-Kelvin
 Total                  105.337             32.227             86.203
 Electronic               0.000              0.000              0.000
 Translational            0.889              2.981             40.409
 Rotational               0.889              2.981             28.429
 Vibrational            103.560             26.266             17.365
 Vibration     1          0.615              1.911              2.777
 Vibration     2          0.631              1.862              2.293
 Vibration     3          0.647              1.811              1.962
 Vibration     4          0.661              1.769              1.755
 Vibration     5          0.705              1.639              1.319
 Vibration     6          0.740              1.541              1.094
 Vibration     7          0.766              1.470              0.962
 Vibration     8          0.796              1.392              0.839
 Vibration     9          0.832              1.305              0.724
 Vibration    10          0.914              1.121              0.527
 Vibration    11          0.948              1.052              0.466

 Optimization completed.
    -- Stationary point found.
 Normal termination of Gaussian 09 at Tue Jan 28 04:01:53 2020.
