 Gaussian 09, Revision D.01,
 Gaussian 09:  ES64L-G09RevD.01 24-Apr-2013

 -----------------------------
 # b3lyp 6-31G(2df,p) opt Freq
 -----------------------------

 -----
 titel
 -----
 Symbolic Z-matrix:
 Charge =  0 Multiplicity = 1

 SCF Done:  E(RB3LYP) =  -423.099594197     A.U. after   12 cycles
 Optimization completed.
    -- Stationary point found.
 Normal termination of Gaussian 09 at Tue Jan 28 14:08:43 2020.

 ----------------------------------------------------------------------
 #N Geom=AllCheck Guess=TCheck SCRF=Check GenChk RB3LYP/6-31G(2df,p) Fr
 eq
 ----------------------------------------------------------------------

 Structure from the checkpoint file:  "/scratch/puck/g09_73fdacc9-76db-4e84-b99d-d2e876ede53e/Gau-161881.chk"
 -----
 titel
 -----
 Charge =  0 Multiplicity = 1

                         Standard orientation:
 ---------------------------------------------------------------------
 Center     Atomic      Atomic             Coordinates (Angstroms)
 Number     Number       Type             X           Y           Z
 ---------------------------------------------------------------------
      1          6           0       -3.388665   -0.182581   -0.026537
      2          8           0       -2.008232   -0.421570    0.116744
      3          6           0       -1.219930    0.693087   -0.235073
      4          6           0        0.213535    0.322894   -0.030832
      5          8           0        1.215680    1.313211   -0.268400
      6          6           0        2.141339    0.408983    0.407159
      7          6           0        2.308798   -0.755425   -0.602689
      8          6           0        0.841929   -1.056714   -0.293794
      9          6           0        0.940850   -0.365647    1.070079
     10          1           0       -3.654324    0.059964   -1.067365
     11          1           0       -3.909533   -1.096505    0.268296
     12          1           0       -3.727858    0.644776    0.616156
     13          1           0       -1.384178    0.980479   -1.288324
     14          1           0       -1.473462    1.569112    0.385369
     15          1           0        2.974329    0.920826    0.883946
     16          1           0        2.600003   -0.476723   -1.620570
     17          1           0        2.966229   -1.537244   -0.213247
     18          1           0        0.243168   -1.918214   -0.554960
     19          1           0        0.678905   -0.667171    2.074070
 ---------------------------------------------------------------------

 SCF Done:  E(RB3LYP) =  -423.099594197     A.U. after    1 cycles

 The electronic state is 1-A.
 Alpha  occ. eigenvalues --  -19.14754 -19.13197 -10.24038 -10.23735 -10.23435
 Alpha  occ. eigenvalues --  -10.22873 -10.18905 -10.18751 -10.18326  -1.05877
 Alpha  occ. eigenvalues --   -1.03899  -0.85163  -0.76102  -0.70053  -0.65688
 Alpha  occ. eigenvalues --   -0.63174  -0.54672  -0.53422  -0.51965  -0.49104
 Alpha  occ. eigenvalues --   -0.47765  -0.45348  -0.44219  -0.42733  -0.41490
 Alpha  occ. eigenvalues --   -0.40009  -0.36774  -0.35631  -0.33267  -0.32146
 Alpha  occ. eigenvalues --   -0.28744  -0.26259  -0.25696  -0.22670
 Alpha virt. eigenvalues --    0.07001   0.09969   0.10347   0.12408   0.13986
 Alpha virt. eigenvalues --    0.14200   0.14799   0.15190   0.15771   0.16304
 Alpha virt. eigenvalues --    0.17092   0.17536   0.18776   0.19742   0.21058

 Mulliken charges:
               1
     1  C   -0.219369
     2  O   -0.238333
     3  C   -0.202178
     4  C    0.478494
     5  O   -0.342092
     6  C    0.061583
     7  C   -0.236227
     8  C   -0.146639
     9  C   -0.188263
    10  H    0.107757
    11  H    0.129274
    12  H    0.107692
    13  H    0.099719
    14  H    0.099825
    15  H    0.085251
    16  H    0.098667
    17  H    0.102996
    18  H    0.101469
    19  H    0.100374
 Sum of Mulliken charges =   0.00000

 Dipole moment (field-independent basis, Debye):
    X=             -0.8827    Y=             -0.6370    Z=              0.4543  Tot=              1.1796
 Quadrupole moment (field-independent basis, Debye-Ang):
   XX=            -45.5754   YY=            -55.4919   ZZ=            -52.4513
   XY=             -2.5014   XZ=              2.0271   YZ=              0.8393

  Exact polarizability:  92.355  -1.227  68.475  -0.051   0.982  66.551
 Approx polarizability: 112.420  -0.762 107.955   1.396  -0.604 103.243

                      1                      2                      3
                      A                      A                      A
 Frequencies --     67.0226                77.5275               127.4021
 Red. masses --      2.6737                 2.5079                 3.8116
 Frc consts  --      0.0071                 0.0089                 0.0365
 IR Inten    --      0.9675                 4.1642                 3.0497

                      4                      5                      6
                      A                      A                      A
 Frequencies --    218.9197               260.2246               341.1262
 Red. masses --      1.3442                 2.0276                 3.3076
 Frc consts  --      0.0380                 0.0809                 0.2268
 IR Inten    --      0.8225                 3.7553                 0.9311

                      7                      8                      9
                      A                      A                      A
 Frequencies --    383.6749               461.2749               555.2967
 Red. masses --      4.4842                 2.1560                 4.1298
 Frc consts  --      0.3889                 0.2703                 0.7503
 IR Inten    --      0.7491                 1.4845                 2.8460

                     10                     11                     12
                      A                      A                      A
 Frequencies --    675.7234               763.9164               783.8482
 Red. masses --      2.8955                 3.6022                 3.5131
 Frc consts  --      0.7789                 1.2385                 1.2718
 IR Inten    --      0.5438                 7.0661                 7.4315

                     13                     14                     15
                      A                      A                      A
 Frequencies --    790.2279               839.3067               891.2504
 Red. masses --      2.0876                 1.9065                 1.4587
 Frc consts  --      0.7681                 0.7913                 0.6827
 IR Inten    --      8.6174                 6.4789                19.4323

                     16                     17                     18
                      A                      A                      A
 Frequencies --    914.2256               929.9234               951.4573
 Red. masses --      1.7926                 3.7527                 1.8394
 Frc consts  --      0.8828                 1.9120                 0.9811
 IR Inten    --      5.2500                37.7023                10.4975

                     19                     20                     21
                      A                      A                      A
 Frequencies --    986.8229              1002.6120              1042.3333
 Red. masses --      4.4227                 1.9084                 4.0357
 Frc consts  --      2.5376                 1.1303                 2.5833
 IR Inten    --     31.1041                 1.4247                15.1088

                     22                     23                     24
                      A                      A                      A
 Frequencies --   1071.9239              1090.2247              1096.8135
 Red. masses --      1.7157                 2.2202                 1.5696
 Frc consts  --      1.1615                 1.5548                 1.1125
 IR Inten    --      3.4943                 4.7087                 4.2809

                     25                     26                     27
                      A                      A                      A
 Frequencies --   1127.8222              1158.2649              1163.6529
 Red. masses --      2.1849                 1.5868                 2.9515
 Frc consts  --      1.6374                 1.2542                 2.3547
 IR Inten    --     11.1065                10.5296               103.0854

                     28                     29                     30
                      A                      A                      A
 Frequencies --   1171.9455              1185.7767              1229.9573
 Red. masses --      2.0168                 1.2997                 1.6994
 Frc consts  --      1.6320                 1.0767                 1.5147
 IR Inten    --     57.8928                 1.8862                40.6565

                     31                     32                     33
                      A                      A                      A
 Frequencies --   1233.8391              1253.7448              1273.8743
 Red. masses --      1.3724                 1.5286                 1.6044
 Frc consts  --      1.2310                 1.4157                 1.5340
 IR Inten    --     11.1065                 3.7740                 6.3290

                     34                     35                     36
                      A                      A                      A
 Frequencies --   1298.3518              1410.5010              1470.8039
 Red. masses --      1.5667                 1.5113                 3.2368
 Frc consts  --      1.5561                 1.7715                 4.1255
 IR Inten    --      4.3818                36.5648                 3.2366

                     37                     38                     39
                      A                      A                      A
 Frequencies --   1482.7757              1484.6492              1486.6101
 Red. masses --      1.3022                 1.0704                 1.1238
 Frc consts  --      1.6868                 1.3900                 1.4634
 IR Inten    --      0.5103                 4.7536                 0.6768

                     40                     41                     42
                      A                      A                      A
 Frequencies --   1504.5334              1528.1112              2949.9896
 Red. masses --      1.0796                 1.0857                 1.0539
 Frc consts  --      1.4399                 1.4938                 5.4036
 IR Inten    --      9.2037                 0.3713                37.8305

                     43                     44                     45
                      A                      A                      A
 Frequencies --   2974.8145              2979.8014              3019.4896
 Red. masses --      1.0408                 1.1000                 1.1034
 Frc consts  --      5.4268                 5.7549                 5.9271
 IR Inten    --     75.5211                56.8900                51.8937

                     46                     47                     48
                      A                      A                      A
 Frequencies --   3046.5312              3109.7133              3117.6135
 Red. masses --      1.0573                 1.1073                 1.0963
 Frc consts  --      5.7820                 6.3088                 6.2782
 IR Inten    --     50.3087                23.5329                26.4719

                     49                     50                     51
                      A                      A                      A
 Frequencies --   3146.4070              3212.9703              3222.6527
 Red. masses --      1.0927                 1.0918                 1.0995
 Frc consts  --      6.3733                 6.6406                 6.7275
 IR Inten    --     41.3395                 9.1109                 4.7774

 - Thermochemistry -
 -------------------
 Temperature   298.150 Kelvin.  Pressure   1.00000 Atm.
 Atom     1 has atomic number  6 and mass  12.00000

 Molecular mass:   126.06808 amu.
 Principal axes and moments of inertia in atomic units:
                           1         2         3
     Eigenvalues --   389.335781746.958971888.44404
           X            0.99988  -0.01549   0.00165
           Y            0.01545   0.99959   0.02424
           Z           -0.00203  -0.02422   0.99970
 This molecule is an asymmetric top.
 Rotational symmetry number  1.
 Rotational temperatures (Kelvin)      0.22247     0.04958     0.04587
 Rotational constants (GHZ):           4.63544     1.03308     0.95568
 Zero-point vibrational energy     416110.7 (Joules/Mol)
                                   99.45284 (Kcal/Mol)
 Warning -- explicit consideration of   9 degrees of freedom as
           vibrations may cause significant error
 Vibrational temperatures:     96.43   111.54   183.30   314.98   374.40
          (Kelvin)            490.80   552.02   663.67   798.95   972.21
                             1099.10  1127.78  1136.96  1207.57  1282.31
                             1315.37  1337.95  1368.93  1419.82  1442.53
                             1499.68  1542.26  1568.59  1578.07  1622.68
                             1666.48  1674.23  1686.17  1706.07  1769.63
                             1775.22  1803.86  1832.82  1868.04  2029.39
                             2116.16  2133.38  2136.08  2138.90  2164.69
                             2198.61  4244.37  4280.09  4287.26  4344.37
                             4383.27  4474.18  4485.54  4526.97  4622.74
                             4636.67

 Zero-point correction=                           0.158488 (Hartree/Particle)
 Thermal correction to Energy=                    0.166756
 Thermal correction to Enthalpy=                  0.167700
 Thermal correction to Gibbs Free Energy=         0.124914
 Sum of electronic and zero-point Energies=           -422.941106
 Sum of electronic and thermal Energies=              -422.932838
 Sum of electronic and thermal Enthalpies=            -422.931894
 Sum of electronic and thermal Free Energies=         -422.974680

                     E (Thermal)             CV                S
                      KCal/Mol        Cal/Mol-Kelvin    Cal/Mol-Kelvin
 Total                  104.641             30.902             90.051
 Electronic               0.000              0.000              0.000
 Translational            0.889              2.981             40.409
 Rotational               0.889              2.981             28.642
 Vibrational            102.863             24.940             21.000
 Vibration     1          0.598              1.970              4.239
 Vibration     2          0.599              1.964              3.953
 Vibration     3          0.611              1.926              2.985
 Vibration     4          0.647              1.812              1.968
 Vibration     5          0.668              1.745              1.660
 Vibration     6          0.721              1.593              1.207
 Vibration     7          0.753              1.505              1.025
 Vibration     8          0.819              1.336              0.762
 Vibration     9          0.911              1.128              0.533

 Optimization completed.
    -- Stationary point found.
 Normal termination of Gaussian 09 at Tue Jan 28 14:52:44 2020.
