 Gaussian 09, Revision D.01,
 Gaussian 09:  ES64L-G09RevD.01 24-Apr-2013

 -----------------------------
 # b3lyp 6-31G(2df,p) opt Freq
 -----------------------------

 -----
 titel
 -----
 Symbolic Z-matrix:
 Charge =  0 Multiplicity = 1

 SCF Done:  E(RB3LYP) =  -423.161774106     A.U. after   14 cycles
 Optimization completed.
    -- Stationary point found.
 Normal termination of Gaussian 09 at Mon Jan 27 14:01:41 2020.

 ----------------------------------------------------------------------
 #N Geom=AllCheck Guess=TCheck SCRF=Check GenChk RB3LYP/6-31G(2df,p) Fr
 eq
 ----------------------------------------------------------------------

 Structure from the checkpoint file:  "/scratch/puck/g09_09ad6023-fcd9-4476-a821-ed9714c5c9b0/Gau-40319.chk"
 -----
 titel
 -----
 Charge =  0 Multiplicity = 1

                         Standard orientation:
 ---------------------------------------------------------------------
 Center     Atomic      Atomic             Coordinates (Angstroms)
 Number     Number       Type             X           Y           Z
 ---------------------------------------------------------------------
      1          6           0       -3.629202    0.664772    0.276294
      2          6           0       -2.330821    0.088472   -0.038970
      3          6           0       -1.256996   -0.388886   -0.301602
      4          6           0        0.042294   -0.996788   -0.636020
      5          8           0        0.672229   -1.566680    0.491743
      6          6           0        1.386157   -0.492602    1.087771
      7          6           0        1.866744    0.333433   -0.119998
      8          6           0        1.870615    1.838697    0.097031
      9          8           0        0.944304   -0.032768   -1.158715
     10          1           0       -3.972889    0.347030    1.266723
     11          1           0       -3.590156    1.759487    0.271805
     12          1           0       -4.385783    0.355574   -0.453021
     13          1           0       -0.088062   -1.793315   -1.376868
     14          1           0        0.728202    0.104726    1.735805
     15          1           0        2.197800   -0.912243    1.685026
     16          1           0        2.863964   -0.002951   -0.434062
     17          1           0        2.590843    2.110865    0.876713
     18          1           0        2.153006    2.358193   -0.822436
     19          1           0        0.878073    2.185636    0.399052
 ---------------------------------------------------------------------

 SCF Done:  E(RB3LYP) =  -423.161774106     A.U. after    1 cycles

 The electronic state is 1-A.
 Alpha  occ. eigenvalues --  -19.15010 -19.14121 -10.29443 -10.23668 -10.23154
 Alpha  occ. eigenvalues --  -10.20711 -10.18173 -10.17856 -10.16719  -1.08808
 Alpha  occ. eigenvalues --   -0.99167  -0.79657  -0.77470  -0.72010  -0.68765
 Alpha  occ. eigenvalues --   -0.63712  -0.59684  -0.53212  -0.51458  -0.48255
 Alpha  occ. eigenvalues --   -0.45625  -0.43420  -0.43058  -0.42825  -0.42507
 Alpha  occ. eigenvalues --   -0.41087  -0.39627  -0.36870  -0.33537  -0.32972
 Alpha  occ. eigenvalues --   -0.28397  -0.26592  -0.25892  -0.24656
 Alpha virt. eigenvalues --    0.04107   0.04663   0.10020   0.10809   0.11649
 Alpha virt. eigenvalues --    0.13331   0.14009   0.15308   0.16046   0.17140
 Alpha virt. eigenvalues --    0.17523   0.18023   0.18805   0.19632   0.21222

 Mulliken charges:
               1
     1  C   -0.501021
     2  C    0.066389
     3  C    0.114630
     4  C   -0.038100
     5  O   -0.227499
     6  C   -0.125883
     7  C    0.130831
     8  C   -0.401180
     9  O   -0.264292
    10  H    0.152703
    11  H    0.151356
    12  H    0.153062
    13  H    0.112108
    14  H    0.102224
    15  H    0.117887
    16  H    0.083788
    17  H    0.114355
    18  H    0.129869
    19  H    0.128775
 Sum of Mulliken charges =   0.00000

 Dipole moment (field-independent basis, Debye):
    X=             -0.3808    Y=              1.3087    Z=              1.1054  Tot=              1.7548
 Quadrupole moment (field-independent basis, Debye-Ang):
   XX=            -43.0754   YY=            -54.3213   ZZ=            -53.8721
   XY=             -0.7495   XZ=              1.2491   YZ=              2.3997

  Exact polarizability: 105.106  -5.995  69.624  -0.983   3.284  63.650
 Approx polarizability: 141.620 -15.867 100.881  -5.618   5.716  95.989

                      1                      2                      3
                      A                      A                      A
 Frequencies --      5.6276                31.9203                94.7600
 Red. masses --      1.0207                 3.4386                 3.0185
 Frc consts  --      0.0000                 0.0021                 0.0160
 IR Inten    --      0.0071                 0.9712                 1.7827

                      4                      5                      6
                      A                      A                      A
 Frequencies --    127.0837               206.5855               231.4378
 Red. masses --      4.3262                 2.7520                 1.1546
 Frc consts  --      0.0412                 0.0692                 0.0364
 IR Inten    --      1.4312                 4.5044                 0.6270

                      7                      8                      9
                      A                      A                      A
 Frequencies --    321.2387               323.2036               356.5575
 Red. masses --      4.1845                 2.6101                 3.9466
 Frc consts  --      0.2544                 0.1606                 0.2956
 IR Inten    --      3.1121                 0.1077                 6.6021

                     10                     11                     12
                      A                      A                      A
 Frequencies --    446.8486               467.8906               552.8701
 Red. masses --      2.5237                 6.1811                 7.9750
 Frc consts  --      0.2969                 0.7973                 1.4362
 IR Inten    --      2.9817                 1.5544                 1.5332

                     13                     14                     15
                      A                      A                      A
 Frequencies --    641.3801               760.2743               835.4358
 Red. masses --      3.5713                 7.3126                 3.4495
 Frc consts  --      0.8656                 2.4904                 1.4185
 IR Inten    --      1.7322                 4.9720                19.1135

                     16                     17                     18
                      A                      A                      A
 Frequencies --    852.8935               908.5554               949.8252
 Red. masses --      4.2276                 2.0312                 1.3866
 Frc consts  --      1.8119                 0.9879                 0.7370
 IR Inten    --     36.8375                 1.3100                12.7116

                     19                     20                     21
                      A                      A                      A
 Frequencies --    958.4917              1018.0434              1052.7843
 Red. masses --      4.2979                 3.8762                 1.4141
 Frc consts  --      2.3264                 2.3670                 0.9234
 IR Inten    --     94.0967                13.0736                 1.9617

                     22                     23                     24
                      A                      A                      A
 Frequencies --   1053.4517              1088.7032              1108.1196
 Red. masses --      1.4100                 3.8375                 4.4052
 Frc consts  --      0.9219                 2.6799                 3.1870
 IR Inten    --      1.1722                34.1675               153.9690

                     25                     26                     27
                      A                      A                      A
 Frequencies --   1143.3168              1166.1525              1169.0285
 Red. masses --      2.3491                 2.8800                 2.7322
 Frc consts  --      1.8092                 2.3076                 2.1999
 IR Inten    --     11.2078                94.8610               101.7372

                     28                     29                     30
                      A                      A                      A
 Frequencies --   1244.5514              1309.4631              1353.4864
 Red. masses --      1.1928                 1.2017                 1.3756
 Frc consts  --      1.0885                 1.2141                 1.4847
 IR Inten    --      1.2994                 0.3361                12.3583

                     31                     32                     33
                      A                      A                      A
 Frequencies --   1361.6973              1374.7011              1399.6232
 Red. masses --      1.1861                 1.2585                 1.3311
 Frc consts  --      1.2957                 1.4013                 1.5363
 IR Inten    --     20.4789                50.6736                 0.9917

                     34                     35                     36
                      A                      A                      A
 Frequencies --   1409.5282              1413.8757              1476.5507
 Red. masses --      1.3679                 1.2388                 1.0395
 Frc consts  --      1.6012                 1.4591                 1.3352
 IR Inten    --     11.0874                 1.3973                 5.9603

                     37                     38                     39
                      A                      A                      A
 Frequencies --   1476.9324              1485.1270              1496.3333
 Red. masses --      1.0395                 1.0540                 1.0486
 Frc consts  --      1.3360                 1.3697                 1.3832
 IR Inten    --      5.8842                 1.8265                 2.2482

                     40                     41                     42
                      A                      A                      A
 Frequencies --   1510.2787              2366.9106              2999.7253
 Red. masses --      1.0926                11.8787                 1.0721
 Frc consts  --      1.4684                39.2089                 5.6838
 IR Inten    --      1.2400                35.5004                24.5744

                     43                     44                     45
                      A                      A                      A
 Frequencies --   3013.1548              3029.4521              3037.4050
 Red. masses --      1.0812                 1.0347                 1.0362
 Frc consts  --      5.7838                 5.5948                 5.6323
 IR Inten    --     58.9038                25.8047                17.3135

                     46                     47                     48
                      A                      A                      A
 Frequencies --   3051.6096              3091.6416              3092.0996
 Red. masses --      1.0860                 1.1003                 1.1002
 Frc consts  --      5.9584                 6.1961                 6.1976
 IR Inten    --     34.9002                 8.6524                 8.0241

                     49                     50                     51
                      A                      A                      A
 Frequencies --   3108.5270              3113.9525              3124.4858
 Red. masses --      1.0996                 1.0965                 1.1025
 Frc consts  --      6.2601                 6.2642                 6.3411
 IR Inten    --     11.5929                35.5742                27.2694

 - Thermochemistry -
 -------------------
 Temperature   298.150 Kelvin.  Pressure   1.00000 Atm.
 Atom     1 has atomic number  6 and mass  12.00000

 Molecular mass:   126.06808 amu.
 Principal axes and moments of inertia in atomic units:
                           1         2         3
     Eigenvalues --   654.944531795.488522035.99514
           X            0.99999   0.00424   0.00183
           Y           -0.00431   0.99913   0.04150
           Z           -0.00165  -0.04151   0.99914
 This molecule is an asymmetric top.
 Rotational symmetry number  1.
 Warning -- assumption of classical behavior for rotation
           may cause significant error
 Rotational temperatures (Kelvin)      0.13225     0.04824     0.04254
 Rotational constants (GHZ):           2.75556     1.00515     0.88642
 Zero-point vibrational energy     413989.2 (Joules/Mol)
                                   98.94580 (Kcal/Mol)
 Warning -- explicit consideration of  12 degrees of freedom as
           vibrations may cause significant error
 Vibrational temperatures:      8.10    45.93   136.34   182.84   297.23
          (Kelvin)            332.99   462.19   465.02   513.01   642.91
                              673.19   795.46   922.80  1093.86  1202.00
                             1227.12  1307.21  1366.58  1379.05  1464.74
                             1514.72  1515.68  1566.40  1594.34  1644.98
                             1677.83  1681.97  1790.63  1884.02  1947.36
                             1959.18  1977.89  2013.74  2027.99  2034.25
                             2124.42  2124.97  2136.76  2152.89  2172.95
                             3405.45  4315.93  4335.25  4358.70  4370.14
                             4390.58  4448.18  4448.84  4472.47  4480.28
                             4495.43

 Zero-point correction=                           0.157680 (Hartree/Particle)
 Thermal correction to Energy=                    0.167458
 Thermal correction to Enthalpy=                  0.168402
 Thermal correction to Gibbs Free Energy=         0.119500
 Sum of electronic and zero-point Energies=           -423.004094
 Sum of electronic and thermal Energies=              -422.994316
 Sum of electronic and thermal Enthalpies=            -422.993372
 Sum of electronic and thermal Free Energies=         -423.042275

                     E (Thermal)             CV                S
                      KCal/Mol        Cal/Mol-Kelvin    Cal/Mol-Kelvin
 Total                  105.081             33.904            102.924
 Electronic               0.000              0.000              0.000
 Translational            0.889              2.981             40.409
 Rotational               0.889              2.981             29.261
 Vibrational            103.304             27.942             33.255
 Vibration     1          0.593              1.987              9.153
 Vibration     2          0.594              1.983              5.706
 Vibration     3          0.603              1.953              3.559
 Vibration     4          0.611              1.926              2.990
 Vibration     5          0.641              1.830              2.074
 Vibration     6          0.653              1.793              1.868
 Vibration     7          0.707              1.633              1.304
 Vibration     8          0.708              1.629              1.294
 Vibration     9          0.732              1.562              1.137
 Vibration    10          0.806              1.368              0.805
 Vibration    11          0.825              1.321              0.743
 Vibration    12          0.908              1.133              0.538

 Normal termination of Gaussian 09 at Mon Jan 27 14:38:06 2020.
