 Gaussian 09, Revision D.01,
 Gaussian 09:  ES64L-G09RevD.01 24-Apr-2013

 -----------------------------
 # b3lyp 6-31G(2df,p) opt Freq
 -----------------------------

 -----
 titel
 -----
 Symbolic Z-matrix:
 Charge =  0 Multiplicity = 1

 SCF Done:  E(RB3LYP) =  -423.173787088     A.U. after   14 cycles
 SCF Done:  E(RB3LYP) =  -423.173787320     A.U. after    7 cycles
 Optimization completed.
    -- Stationary point found.
 Normal termination of Gaussian 09 at Mon Jan 27 16:16:31 2020.

 ----------------------------------------------------------------------
 #N Geom=AllCheck Guess=TCheck SCRF=Check GenChk RB3LYP/6-31G(2df,p) Fr
 eq
 ----------------------------------------------------------------------

 Structure from the checkpoint file:  "/scratch/puck/g09_815913a7-be19-4742-a1cb-fe009cb90eb2/Gau-56845.chk"
 -----
 titel
 -----
 Charge =  0 Multiplicity = 1

                         Standard orientation:
 ---------------------------------------------------------------------
 Center     Atomic      Atomic             Coordinates (Angstroms)
 Number     Number       Type             X           Y           Z
 ---------------------------------------------------------------------
      1          6           0       -1.052374    1.875748    0.055335
      2          6           0       -0.842124    0.360107    0.016944
      3          6           0       -2.176114   -0.381319   -0.006367
      4          6           0        0.272266   -0.131205    1.037500
      5          6           0        0.402407   -1.612294    0.657525
      6          8           0        0.338286   -1.524587   -0.796301
      7          6           0        0.231403   -0.109402   -1.027266
      8          6           0        1.262398    0.433836   -0.012579
      9          8           0        2.275190    1.062693   -0.011369
     10          1           0       -1.623827    2.206382   -0.818363
     11          1           0       -1.619429    2.159083    0.948573
     12          1           0       -0.112000    2.434676    0.070908
     13          1           0       -2.055586   -1.440744   -0.235929
     14          1           0       -2.692711   -0.285806    0.954929
     15          1           0       -2.828601    0.049775   -0.772982
     16          1           0        0.288626    0.146229    2.089508
     17          1           0        1.359047   -2.050050    0.964345
     18          1           0       -0.412303   -2.243576    1.026568
     19          1           0        0.201809    0.106363   -2.092752
 ---------------------------------------------------------------------

 SCF Done:  E(RB3LYP) =  -423.173787320     A.U. after    1 cycles

 The electronic state is 1-A.
 Alpha  occ. eigenvalues --  -19.15231 -19.14703 -10.27583 -10.24298 -10.24240
 Alpha  occ. eigenvalues --  -10.21676 -10.20704 -10.18788 -10.18412  -1.06514
 Alpha  occ. eigenvalues --   -1.04390  -0.85432  -0.75574  -0.73229  -0.69625
 Alpha  occ. eigenvalues --   -0.59533  -0.57267  -0.55626  -0.50023  -0.48330
 Alpha  occ. eigenvalues --   -0.46092  -0.45761  -0.42911  -0.40964  -0.40778
 Alpha  occ. eigenvalues --   -0.39637  -0.39149  -0.37849  -0.35573  -0.34681
 Alpha  occ. eigenvalues --   -0.34377  -0.32130  -0.28094  -0.22548
 Alpha virt. eigenvalues --   -0.01821   0.07838   0.10786   0.12245   0.12494
 Alpha virt. eigenvalues --    0.13131   0.13925   0.14326   0.15029   0.15819
 Alpha virt. eigenvalues --    0.16646   0.17443   0.18966   0.20746   0.20849

 Mulliken charges:
               1
     1  C   -0.470926
     2  C    0.307527
     3  C   -0.473232
     4  C   -0.223779
     5  C   -0.105056
     6  O   -0.279991
     7  C   -0.054027
     8  C    0.440686
     9  O   -0.323025
    10  H    0.122464
    11  H    0.123449
    12  H    0.141414
    13  H    0.140720
    14  H    0.118685
    15  H    0.120360
    16  H    0.089597
    17  H    0.119289
    18  H    0.110483
    19  H    0.095362
 Sum of Mulliken charges =   0.00000

 Dipole moment (field-independent basis, Debye):
    X=             -2.6315    Y=             -0.1581    Z=              1.0730  Tot=              2.8463
 Quadrupole moment (field-independent basis, Debye-Ang):
   XX=            -58.8643   YY=            -55.1664   ZZ=            -51.1144
   XY=             -3.7740   XZ=              0.7064   YZ=             -3.0969

  Exact polarizability:  80.733   0.773  75.749   0.907  -3.440  68.117
 Approx polarizability: 118.319   6.474 110.719   0.607  -2.547 107.471

                      1                      2                      3
                      A                      A                      A
 Frequencies --    146.9081               178.4468               197.9407
 Red. masses --      7.4659                 1.0903                 2.8252
 Frc consts  --      0.0949                 0.0205                 0.0652
 IR Inten    --      3.1158                 0.0870                 0.2191

                      4                      5                      6
                      A                      A                      A
 Frequencies --    225.6382               282.6466               318.6999
 Red. masses --      1.0649                 3.5188                 2.3884
 Frc consts  --      0.0319                 0.1656                 0.1429
 IR Inten    --      0.0542                 1.9314                 5.1145

                      7                      8                      9
                      A                      A                      A
 Frequencies --    348.3056               377.5381               475.1114
 Red. masses --      2.9493                 2.2865                 3.3251
 Frc consts  --      0.2108                 0.1920                 0.4422
 IR Inten    --      1.6976                 0.2317                 1.7131

                     10                     11                     12
                      A                      A                      A
 Frequencies --    508.9340               612.8452               665.6347
 Red. masses --      3.7527                 4.1486                 4.2735
 Frc consts  --      0.5727                 0.9180                 1.1156
 IR Inten    --      3.9969                 0.3015                 1.4228

                     13                     14                     15
                      A                      A                      A
 Frequencies --    668.0978               747.4554               824.5499
 Red. masses --      3.7010                 3.9802                 4.1137
 Frc consts  --      0.9733                 1.3102                 1.6479
 IR Inten    --      4.6989                11.4725                 6.8519

                     16                     17                     18
                      A                      A                      A
 Frequencies --    900.3631               933.8483               946.7835
 Red. masses --      4.0530                 1.9948                 2.2456
 Frc consts  --      1.9358                 1.0250                 1.1860
 IR Inten    --     19.2134                13.8913                 0.5168

                     19                     20                     21
                      A                      A                      A
 Frequencies --    962.5849               969.7667              1000.9475
 Red. masses --      2.5944                 1.6607                 1.6005
 Frc consts  --      1.4163                 0.9202                 0.9448
 IR Inten    --     12.2521                 3.9466                14.1884

                     22                     23                     24
                      A                      A                      A
 Frequencies --   1018.8615              1054.7948              1071.9936
 Red. masses --      1.3604                 2.7765                 3.0656
 Frc consts  --      0.8321                 1.8201                 2.0757
 IR Inten    --      1.5864                 3.7319                33.3392

                     25                     26                     27
                      A                      A                      A
 Frequencies --   1111.6753              1149.9322              1192.4023
 Red. masses --      1.5515                 1.4267                 2.0140
 Frc consts  --      1.1297                 1.1116                 1.6872
 IR Inten    --      3.4372                 2.4969                 4.4374

                     28                     29                     30
                      A                      A                      A
 Frequencies --   1196.3242              1208.7974              1237.9050
 Red. masses --      1.5412                 1.6888                 1.8819
 Frc consts  --      1.2996                 1.4539                 1.6991
 IR Inten    --      4.7051                 5.2012                10.7338

                     31                     32                     33
                      A                      A                      A
 Frequencies --   1269.4622              1297.1216              1364.5795
 Red. masses --      2.3064                 2.1964                 1.4012
 Frc consts  --      2.1899                 2.1773                 1.5373
 IR Inten    --      2.0546                 6.8717                 2.2488

                     34                     35                     36
                      A                      A                      A
 Frequencies --   1404.4600              1428.4144              1482.7526
 Red. masses --      1.2430                 1.2121                 1.0478
 Frc consts  --      1.4446                 1.4571                 1.3572
 IR Inten    --      4.8370                 2.0006                 2.3274

                     37                     38                     39
                      A                      A                      A
 Frequencies --   1490.1858              1504.8990              1511.6551
 Red. masses --      1.0468                 1.0539                 1.0612
 Frc consts  --      1.3697                 1.4062                 1.4287
 IR Inten    --      3.6629                 3.4815                 4.9396

                     40                     41                     42
                      A                      A                      A
 Frequencies --   1537.5659              1913.1704              3032.2854
 Red. masses --      1.0802                12.1933                 1.0440
 Frc consts  --      1.5046                26.2954                 5.6559
 IR Inten    --      1.5241               287.1065                 9.7159

                     43                     44                     45
                      A                      A                      A
 Frequencies --   3032.7706              3039.0480              3073.4254
 Red. masses --      1.0471                 1.0395                 1.1110
 Frc consts  --      5.6746                 5.6564                 6.1831
 IR Inten    --     70.5659                24.9210                30.4155

                     46                     47                     48
                      A                      A                      A
 Frequencies --   3093.6740              3097.8310              3110.3594
 Red. masses --      1.1014                 1.1008                 1.1004
 Frc consts  --      6.2105                 6.2241                 6.2723
 IR Inten    --      1.7144                32.8344                18.8283

                     49                     50                     51
                      A                      A                      A
 Frequencies --   3139.6338              3147.3098              3158.4915
 Red. masses --      1.0976                 1.0904                 1.0928
 Frc consts  --      6.3747                 6.3640                 6.4231
 IR Inten    --     12.1964                16.2443                13.2777

 - Thermochemistry -
 -------------------
 Temperature   298.150 Kelvin.  Pressure   1.00000 Atm.
 Atom     1 has atomic number  6 and mass  12.00000

 Molecular mass:   126.06808 amu.
 Principal axes and moments of inertia in atomic units:
                           1         2         3
     Eigenvalues --   771.13884 955.704391335.71780
           X            0.99412  -0.10811   0.00623
           Y            0.10827   0.99351  -0.03492
           Z           -0.00241   0.03539   0.99937
 This molecule is an asymmetric top.
 Rotational symmetry number  1.
 Warning -- assumption of classical behavior for rotation
           may cause significant error
 Rotational temperatures (Kelvin)      0.11232     0.09063     0.06484
 Rotational constants (GHZ):           2.34036     1.88839     1.35114
 Zero-point vibrational energy     416688.2 (Joules/Mol)
                                   99.59087 (Kcal/Mol)
 Warning -- explicit consideration of  11 degrees of freedom as
           vibrations may cause significant error
 Vibrational temperatures:    211.37   256.74   284.79   324.64   406.66
          (Kelvin)            458.54   501.13   543.19   683.58   732.24
                              881.75   957.70   961.24  1075.42  1186.34
                             1295.42  1343.60  1362.21  1384.94  1395.28
                             1440.14  1465.91  1517.61  1542.36  1599.45
                             1654.49  1715.60  1721.24  1739.19  1781.07
                             1826.47  1866.27  1963.32  2020.70  2055.17
                             2133.35  2144.04  2165.21  2174.93  2212.21
                             2752.62  4362.78  4363.47  4372.51  4421.97
                             4451.10  4457.08  4475.11  4517.23  4528.27
                             4544.36

 Zero-point correction=                           0.158708 (Hartree/Particle)
 Thermal correction to Energy=                    0.166978
 Thermal correction to Enthalpy=                  0.167923
 Thermal correction to Gibbs Free Energy=         0.126467
 Sum of electronic and zero-point Energies=           -423.015079
 Sum of electronic and thermal Energies=              -423.006809
 Sum of electronic and thermal Enthalpies=            -423.005865
 Sum of electronic and thermal Free Energies=         -423.047321

                     E (Thermal)             CV                S
                      KCal/Mol        Cal/Mol-Kelvin    Cal/Mol-Kelvin
 Total                  104.781             32.414             87.251
 Electronic               0.000              0.000              0.000
 Translational            0.889              2.981             40.409
 Rotational               0.889              2.981             28.378
 Vibrational            103.003             26.452             18.465
 Vibration     1          0.617              1.906              2.712
 Vibration     2          0.629              1.869              2.345
 Vibration     3          0.637              1.843              2.152
 Vibration     4          0.650              1.802              1.913
 Vibration     5          0.682              1.706              1.518
 Vibration     6          0.705              1.638              1.317
 Vibration     7          0.726              1.579              1.174
 Vibration     8          0.748              1.518              1.049
 Vibration     9          0.832              1.305              0.723
 Vibration    10          0.864              1.230              0.636
 Vibration    11          0.972              1.005              0.428

 Optimization completed.
    -- Stationary point found.
 Normal termination of Gaussian 09 at Mon Jan 27 17:02:21 2020.
