 Gaussian 09, Revision D.01,
 Gaussian 09:  ES64L-G09RevD.01 24-Apr-2013

 -----------------------------
 # b3lyp 6-31G(2df,p) opt Freq
 -----------------------------

 -----
 titel
 -----
 Symbolic Z-matrix:
 Charge =  0 Multiplicity = 1

 SCF Done:  E(RB3LYP) =  -423.218121369     A.U. after   14 cycles
 Optimization completed.
    -- Stationary point found.
 Normal termination of Gaussian 09 at Mon Jan 27 10:22:08 2020.

 ----------------------------------------------------------------------
 #N Geom=AllCheck Guess=TCheck SCRF=Check GenChk RB3LYP/6-31G(2df,p) Fr
 eq
 ----------------------------------------------------------------------

 Structure from the checkpoint file:  "/scratch/puck/g09_e32ceb9a-ccc9-4795-a821-143862a23163/Gau-19523.chk"
 -----
 titel
 -----
 Charge =  0 Multiplicity = 1

                         Standard orientation:
 ---------------------------------------------------------------------
 Center     Atomic      Atomic             Coordinates (Angstroms)
 Number     Number       Type             X           Y           Z
 ---------------------------------------------------------------------
      1          6           0        2.165428   -1.736269    0.370734
      2          8           0        1.798399   -0.619268   -0.443486
      3          6           0        0.593190   -0.088045   -0.190637
      4          6           0        0.215921    1.202150    0.006908
      5          6           0        1.110057    2.399152    0.077145
      6          6           0       -1.221133    1.145795    0.124191
      7          6           0       -1.594732   -0.153166    0.002808
      8          6           0       -2.899995   -0.860160    0.053104
      9          8           0       -0.479802   -0.930986   -0.200527
     10          1           0        1.485359   -2.578916    0.213540
     11          1           0        3.174384   -2.017631    0.065383
     12          1           0        2.163490   -1.460578    1.432310
     13          1           0        0.984442    2.943205    1.020593
     14          1           0        2.157744    2.098199   -0.003053
     15          1           0        0.903776    3.109131   -0.732621
     16          1           0       -1.885575    1.981339    0.287976
     17          1           0       -3.109653   -1.395539   -0.880523
     18          1           0       -2.932893   -1.596716    0.864924
     19          1           0       -3.702274   -0.137199    0.218063
 ---------------------------------------------------------------------

 SCF Done:  E(RB3LYP) =  -423.218121368     A.U. after    1 cycles

 The electronic state is 1-A.
 Alpha  occ. eigenvalues --  -19.18839 -19.16756 -10.26105 -10.23413 -10.22170
 Alpha  occ. eigenvalues --  -10.18654 -10.17507 -10.17134 -10.16600  -1.10820
 Alpha  occ. eigenvalues --   -1.04685  -0.79999  -0.77009  -0.71529  -0.69833
 Alpha  occ. eigenvalues --   -0.64403  -0.58387  -0.53794  -0.51180  -0.47705
 Alpha  occ. eigenvalues --   -0.45180  -0.44629  -0.43569  -0.41100  -0.40504
 Alpha  occ. eigenvalues --   -0.40176  -0.38813  -0.37788  -0.36717  -0.35169
 Alpha  occ. eigenvalues --   -0.34499  -0.29801  -0.25527  -0.18941
 Alpha virt. eigenvalues --    0.03446   0.08442   0.10234   0.11328   0.12683
 Alpha virt. eigenvalues --    0.13583   0.14037   0.16129   0.16714   0.17258
 Alpha virt. eigenvalues --    0.17838   0.18300   0.19883   0.20955   0.23177

 Mulliken charges:
               1
     1  C   -0.252651
     2  O   -0.269706
     3  C    0.323407
     4  C    0.149839
     5  C   -0.506738
     6  C   -0.370859
     7  C    0.366322
     8  C   -0.487197
     9  O   -0.225339
    10  H    0.137507
    11  H    0.134340
    12  H    0.121472
    13  H    0.122376
    14  H    0.130737
    15  H    0.125665
    16  H    0.101164
    17  H    0.134431
    18  H    0.131890
    19  H    0.133339
 Sum of Mulliken charges =   0.00000

 Dipole moment (field-independent basis, Debye):
    X=             -0.2931    Y=             -0.4948    Z=              1.0033  Tot=              1.1564
 Quadrupole moment (field-independent basis, Debye-Ang):
   XX=            -48.0868   YY=            -49.4358   ZZ=            -54.5918
   XY=             -2.1811   XZ=              1.5418   YZ=             -0.7894

  Exact polarizability:  99.405   1.311  92.337  -0.157   1.336  52.465
 Approx polarizability: 133.642  -0.029 138.791  -3.109   4.721  80.808

                      1                      2                      3
                      A                      A                      A
 Frequencies --     45.7430               134.4157               135.6468
 Red. masses --      2.5288                 1.0305                 1.0883
 Frc consts  --      0.0031                 0.0110                 0.0118
 IR Inten    --      4.2893                 0.0133                 0.1374

                      4                      5                      6
                      A                      A                      A
 Frequencies --    143.0457               159.6391               195.9448
 Red. masses --      1.7055                 1.5737                 2.6646
 Frc consts  --      0.0206                 0.0236                 0.0603
 IR Inten    --      2.8430                 1.5712                 1.2687

                      7                      8                      9
                      A                      A                      A
 Frequencies --    237.2381               269.7525               312.3182
 Red. masses --      2.6226                 4.0748                 3.3693
 Frc consts  --      0.0870                 0.1747                 0.1936
 IR Inten    --      2.5279                 0.4835                 1.0805

                     10                     11                     12
                      A                      A                      A
 Frequencies --    399.7280               527.7227               590.2513
 Red. masses --      4.2532                 3.6563                 4.1060
 Frc consts  --      0.4004                 0.5999                 0.8428
 IR Inten    --      3.4449                 1.6736                 0.7145

                     13                     14                     15
                      A                      A                      A
 Frequencies --    623.9711               633.2198               701.6853
 Red. masses --      6.1988                 4.4334                 5.8587
 Frc consts  --      1.4220                 1.0473                 1.6996
 IR Inten    --     10.7806                 0.3350                 5.8072

                     16                     17                     18
                      A                      A                      A
 Frequencies --    796.6759               801.5411               969.7517
 Red. masses --      3.0828                 1.4402                 2.3003
 Frc consts  --      1.1528                 0.5452                 1.2746
 IR Inten    --      8.0433                11.9083                 2.4185

                     19                     20                     21
                      A                      A                      A
 Frequencies --    997.8678              1014.3391              1035.3375
 Red. masses --      2.3826                 1.7874                 4.7266
 Frc consts  --      1.3978                 1.0835                 2.9851
 IR Inten    --     20.0500                 3.8103                56.8322

                     22                     23                     24
                      A                      A                      A
 Frequencies --   1064.1466              1066.5873              1144.8917
 Red. masses --      1.4443                 1.4408                 6.0298
 Frc consts  --      0.9637                 0.9657                 4.6567
 IR Inten    --      1.3773                 1.0129                41.9860

                     25                     26                     27
                      A                      A                      A
 Frequencies --   1175.1210              1180.1411              1206.3063
 Red. masses --      1.2989                 1.5152                 1.4905
 Frc consts  --      1.0568                 1.2433                 1.2779
 IR Inten    --      1.0971                14.0502                 9.6367

                     28                     29                     30
                      A                      A                      A
 Frequencies --   1279.7636              1285.0736              1397.4292
 Red. masses --      4.6962                 4.7492                 1.9663
 Frc consts  --      4.5316                 4.6209                 2.2624
 IR Inten    --     14.8854               174.0148                28.2864

                     31                     32                     33
                      A                      A                      A
 Frequencies --   1415.7124              1426.1758              1471.3441
 Red. masses --      1.2793                 1.6883                 1.0428
 Frc consts  --      1.5107                 2.0232                 1.3300
 IR Inten    --      2.7875                15.1240                 4.9147

                     34                     35                     36
                      A                      A                      A
 Frequencies --   1477.7420              1486.0049              1487.8317
 Red. masses --      1.2691                 1.0508                 1.0469
 Frc consts  --      1.6329                 1.3671                 1.3654
 IR Inten    --      4.5838                 3.3550                 4.6206

                     37                     38                     39
                      A                      A                      A
 Frequencies --   1496.6176              1498.8374              1504.9872
 Red. masses --      1.1610                 1.0632                 1.0483
 Frc consts  --      1.5321                 1.4072                 1.3990
 IR Inten    --     12.0753                 1.5075                15.6525

                     40                     41                     42
                      A                      A                      A
 Frequencies --   1634.6769              1705.5466              3021.6011
 Red. masses --      6.9446                 7.9471                 1.0349
 Frc consts  --     10.9335                13.6203                 5.5672
 IR Inten    --     58.7767               105.2814                55.6251

                     43                     44                     45
                      A                      A                      A
 Frequencies --   3023.4573              3024.8361              3070.5343
 Red. masses --      1.0383                 1.0380                 1.1000
 Frc consts  --      5.5923                 5.5958                 6.1104
 IR Inten    --     80.1359                 6.5459                15.1759

                     46                     47                     48
                      A                      A                      A
 Frequencies --   3070.7519              3096.9439              3116.7354
 Red. masses --      1.1002                 1.1016                 1.0980
 Frc consts  --      6.1123                 6.2252                 6.2844
 IR Inten    --     26.6716                28.1569                12.7079

                     49                     50                     51
                      A                      A                      A
 Frequencies --   3125.2202              3141.6688              3242.2634
 Red. masses --      1.0975                 1.1032                 1.0965
 Frc consts  --      6.3156                 6.4154                 6.7912
 IR Inten    --     11.1380                21.9665                 5.5696

 - Thermochemistry -
 -------------------
 Temperature   298.150 Kelvin.  Pressure   1.00000 Atm.
 Atom     1 has atomic number  6 and mass  12.00000

 Molecular mass:   126.06808 amu.
 Principal axes and moments of inertia in atomic units:
                           1         2         3
     Eigenvalues --   797.685751255.273411971.13609
           X            0.99975   0.02050   0.00837
           Y           -0.02044   0.99976  -0.00804
           Z           -0.00853   0.00786   0.99993
 This molecule is an asymmetric top.
 Rotational symmetry number  1.
 Warning -- assumption of classical behavior for rotation
           may cause significant error
 Rotational temperatures (Kelvin)      0.10858     0.06900     0.04394
 Rotational constants (GHZ):           2.26247     1.43773     0.91558
 Zero-point vibrational energy     413099.1 (Joules/Mol)
                                   98.73307 (Kcal/Mol)
 Warning -- explicit consideration of  12 degrees of freedom as
           vibrations may cause significant error
 Vibrational temperatures:     65.81   193.39   195.17   205.81   229.68
          (Kelvin)            281.92   341.33   388.11   449.36   575.12
                              759.27   849.24   897.75   911.06  1009.57
                             1146.24  1153.24  1395.25  1435.71  1459.41
                             1489.62  1531.07  1534.58  1647.24  1690.73
                             1697.96  1735.60  1841.29  1848.93  2010.59
                             2036.89  2051.95  2116.93  2126.14  2138.03
                             2140.66  2153.30  2156.49  2165.34  2351.93
                             2453.90  4347.40  4350.08  4352.06  4417.81
                             4418.12  4455.81  4484.28  4496.49  4520.16
                             4664.89

 Zero-point correction=                           0.157341 (Hartree/Particle)
 Thermal correction to Energy=                    0.167177
 Thermal correction to Enthalpy=                  0.168121
 Thermal correction to Gibbs Free Energy=         0.122067
 Sum of electronic and zero-point Energies=           -423.060780
 Sum of electronic and thermal Energies=              -423.050945
 Sum of electronic and thermal Enthalpies=            -423.050001
 Sum of electronic and thermal Free Energies=         -423.096055

                     E (Thermal)             CV                S
                      KCal/Mol        Cal/Mol-Kelvin    Cal/Mol-Kelvin
 Total                  104.905             34.620             96.929
 Electronic               0.000              0.000              0.000
 Translational            0.889              2.981             40.409
 Rotational               0.889              2.981             29.069
 Vibrational            103.127             28.658             27.451
 Vibration     1          0.595              1.979              4.993
 Vibration     2          0.613              1.919              2.882
 Vibration     3          0.613              1.918              2.864
 Vibration     4          0.616              1.910              2.763
 Vibration     5          0.622              1.892              2.554
 Vibration     6          0.636              1.846              2.171
 Vibration     7          0.656              1.784              1.824
 Vibration     8          0.674              1.729              1.598
 Vibration     9          0.701              1.650              1.350
 Vibration    10          0.766              1.471              0.964
 Vibration    11          0.883              1.189              0.592
 Vibration    12          0.948              1.053              0.467

 Optimization completed.
    -- Stationary point found.
 Normal termination of Gaussian 09 at Mon Jan 27 11:04:40 2020.
