 Gaussian 09, Revision D.01,
 Gaussian 09:  ES64L-G09RevD.01 24-Apr-2013

 -----------------------------
 # b3lyp 6-31G(2df,p) opt Freq
 -----------------------------

 -----
 titel
 -----
 Symbolic Z-matrix:
 Charge =  0 Multiplicity = 1

 SCF Done:  E(RB3LYP) =  -423.204327882     A.U. after   14 cycles
 Optimization completed.
    -- Stationary point found.
 Normal termination of Gaussian 09 at Mon Jan 27 12:22:14 2020.

 ----------------------------------------------------------------------
 #N Geom=AllCheck Guess=TCheck SCRF=Check GenChk RB3LYP/6-31G(2df,p) Fr
 eq
 ----------------------------------------------------------------------

 Structure from the checkpoint file:  "/scratch/puck/g09_99ca4fd3-4a46-4c28-966b-5497721e623d/Gau-73111.chk"
 -----
 titel
 -----
 Charge =  0 Multiplicity = 1

                         Standard orientation:
 ---------------------------------------------------------------------
 Center     Atomic      Atomic             Coordinates (Angstroms)
 Number     Number       Type             X           Y           Z
 ---------------------------------------------------------------------
      1          6           0        2.271344   -0.004174   -0.328471
      2          6           0        1.260477    1.123393   -0.588392
      3          6           0        0.207262    0.879111    0.516907
      4          6           0       -1.182838    1.385235    0.253235
      5          6           0       -2.165942    0.555628   -0.088176
      6          6           0       -1.921571   -0.916395   -0.281543
      7          8           0       -0.548084   -1.234942   -0.405400
      8          6           0        0.252501   -0.652146    0.615115
      9          8           0        1.572095   -1.028193    0.399131
     10          1           0        2.673723   -0.431643   -1.252554
     11          1           0        3.114180    0.333091    0.287794
     12          1           0        1.716114    2.114845   -0.540493
     13          1           0        0.791520    1.005067   -1.567960
     14          1           0        0.579706    1.294099    1.462868
     15          1           0       -1.367416    2.449683    0.371028
     16          1           0       -3.181833    0.911001   -0.237989
     17          1           0       -2.384081   -1.487084    0.545778
     18          1           0       -2.396429   -1.266700   -1.205054
     19          1           0       -0.064968   -1.041191    1.594680
 ---------------------------------------------------------------------

 SCF Done:  E(RB3LYP) =  -423.204327882     A.U. after    1 cycles

 The electronic state is 1-A.
 Alpha  occ. eigenvalues --  -19.13804 -19.13486 -10.26936 -10.23235 -10.22655
 Alpha  occ. eigenvalues --  -10.19278 -10.18665 -10.18625 -10.18526  -1.06505
 Alpha  occ. eigenvalues --   -1.00596  -0.81385  -0.76400  -0.74380  -0.65698
 Alpha  occ. eigenvalues --   -0.61541  -0.59373  -0.53611  -0.50418  -0.49077
 Alpha  occ. eigenvalues --   -0.48295  -0.45654  -0.44484  -0.42411  -0.39792
 Alpha  occ. eigenvalues --   -0.39138  -0.36763  -0.36276  -0.34441  -0.32532
 Alpha  occ. eigenvalues --   -0.31032  -0.26473  -0.25032  -0.24793
 Alpha virt. eigenvalues --    0.01605   0.08577   0.11049   0.11865   0.12858
 Alpha virt. eigenvalues --    0.14274   0.15023   0.15464   0.15968   0.16562
 Alpha virt. eigenvalues --    0.17567   0.19247   0.19647   0.20942   0.22707

 Mulliken charges:
               1
     1  C   -0.073567
     2  C   -0.249757
     3  C   -0.080274
     4  C   -0.088701
     5  C   -0.073219
     6  C   -0.122098
     7  O   -0.265419
     8  C    0.219899
     9  O   -0.260660
    10  H    0.111311
    11  H    0.100892
    12  H    0.102656
    13  H    0.120308
    14  H    0.083030
    15  H    0.091864
    16  H    0.094375
    17  H    0.099513
    18  H    0.120119
    19  H    0.069728
 Sum of Mulliken charges =   0.00000

 Dipole moment (field-independent basis, Debye):
    X=             -0.8355    Y=              2.0946    Z=              0.1893  Tot=              2.2630
 Quadrupole moment (field-independent basis, Debye-Ang):
   XX=            -48.7305   YY=            -55.0068   ZZ=            -52.8452
   XY=              3.5825   XZ=             -0.6740   YZ=              0.0678

  Exact polarizability:  94.792   7.054  73.767   1.825   1.667  60.907
 Approx polarizability: 128.050  13.801 110.706   5.573   5.023  95.093

                      1                      2                      3
                      A                      A                      A
 Frequencies --     79.2197               144.6270               203.5912
 Red. masses --      2.4161                 2.1915                 4.0947
 Frc consts  --      0.0089                 0.0270                 0.1000
 IR Inten    --      2.7140                 0.6458                 2.3712

                      4                      5                      6
                      A                      A                      A
 Frequencies --    274.3361               396.4569               450.4181
 Red. masses --      2.3510                 6.3623                 3.0101
 Frc consts  --      0.1042                 0.5892                 0.3598
 IR Inten    --      1.2084                 1.9726                 0.7500

                      7                      8                      9
                      A                      A                      A
 Frequencies --    477.2169               540.5081               622.3000
 Red. masses --      4.1006                 5.0779                 2.4429
 Frc consts  --      0.5502                 0.8740                 0.5574
 IR Inten    --      0.7290                 3.1143                 0.5199

                     10                     11                     12
                      A                      A                      A
 Frequencies --    714.4489               748.3117               832.8740
 Red. masses --      1.3870                 5.1419                 1.9855
 Frc consts  --      0.4171                 1.6964                 0.8115
 IR Inten    --     21.1758                 4.3181                13.5378

                     13                     14                     15
                      A                      A                      A
 Frequencies --    852.7847               894.1070               911.5713
 Red. masses --      3.9064                 2.6605                 2.8438
 Frc consts  --      1.6738                 1.2531                 1.3923
 IR Inten    --      6.9654                10.6249                 3.2797

                     16                     17                     18
                      A                      A                      A
 Frequencies --    934.0362               956.2790               993.3643
 Red. masses --      2.4147                 2.5892                 1.3349
 Frc consts  --      1.2412                 1.3950                 0.7761
 IR Inten    --     13.6951                35.8853                 4.0271

                     19                     20                     21
                      A                      A                      A
 Frequencies --    995.7804              1041.5201              1049.5898
 Red. masses --      2.2428                 2.0695                 2.0459
 Frc consts  --      1.3103                 1.3227                 1.3279
 IR Inten    --     16.3897                 9.5539                15.3973

                     22                     23                     24
                      A                      A                      A
 Frequencies --   1073.2754              1108.8087              1115.9566
 Red. masses --      2.7314                 2.9456                 2.7557
 Frc consts  --      1.8538                 2.1337                 2.0220
 IR Inten    --     75.7285               114.1241                15.2241

                     25                     26                     27
                      A                      A                      A
 Frequencies --   1152.5765              1202.3390              1210.3191
 Red. masses --      3.4095                 1.2561                 1.4913
 Frc consts  --      2.6686                 1.0699                 1.2871
 IR Inten    --     80.7526                23.6958                 7.2718

                     28                     29                     30
                      A                      A                      A
 Frequencies --   1223.6003              1267.9570              1295.1477
 Red. masses --      1.1824                 1.1413                 1.2873
 Frc consts  --      1.0430                 1.0811                 1.2722
 IR Inten    --      4.1707                 5.1061                 0.8921

                     31                     32                     33
                      A                      A                      A
 Frequencies --   1313.3832              1327.0141              1363.1877
 Red. masses --      1.2656                 1.3289                 1.5190
 Frc consts  --      1.2863                 1.3788                 1.6631
 IR Inten    --      2.0382                 3.9466                 6.1185

                     34                     35                     36
                      A                      A                      A
 Frequencies --   1371.4934              1405.0887              1407.5417
 Red. masses --      1.2562                 1.3896                 1.5063
 Frc consts  --      1.3921                 1.6164                 1.7583
 IR Inten    --      1.3123                14.3484                 3.5880

                     37                     38                     39
                      A                      A                      A
 Frequencies --   1415.3859              1486.8014              1490.2994
 Red. masses --      1.5393                 1.0898                 1.0940
 Frc consts  --      1.8169                 1.4194                 1.4316
 IR Inten    --     19.9389                 2.0682                 4.7014

                     40                     41                     42
                      A                      A                      A
 Frequencies --   1528.3153              1721.1182              2930.7845
 Red. masses --      1.0931                 6.7402                 1.0729
 Frc consts  --      1.5043                11.7637                 5.4297
 IR Inten    --      0.0622                 1.1560                64.8494

                     43                     44                     45
                      A                      A                      A
 Frequencies --   2989.6931              3020.7939              3023.8835
 Red. masses --      1.0847                 1.0797                 1.0666
 Frc consts  --      5.7122                 5.8050                 5.7464
 IR Inten    --     59.7080                27.7122                73.7492

                     46                     47                     48
                      A                      A                      A
 Frequencies --   3056.5048              3066.0635              3075.5253
 Red. masses --      1.0868                 1.0893                 1.0718
 Frc consts  --      5.9821                 6.0331                 5.9733
 IR Inten    --     26.3295                16.3952                32.7626

                     49                     50                     51
                      A                      A                      A
 Frequencies --   3123.1948              3153.0836              3176.8316
 Red. masses --      1.1072                 1.0838                 1.0980
 Frc consts  --      6.3631                 6.3487                 6.5290
 IR Inten    --     26.0065                 7.1854                27.9077

 - Thermochemistry -
 -------------------
 Temperature   298.150 Kelvin.  Pressure   1.00000 Atm.
 Atom     1 has atomic number  6 and mass  12.00000

 Molecular mass:   126.06808 amu.
 Principal axes and moments of inertia in atomic units:
                           1         2         3
     Eigenvalues --   564.075841142.686331483.34209
           X            0.99942   0.03325  -0.00795
           Y           -0.03329   0.99943  -0.00521
           Z            0.00778   0.00547   0.99995
 This molecule is an asymmetric top.
 Rotational symmetry number  1.
 Warning -- assumption of classical behavior for rotation
           may cause significant error
 Rotational temperatures (Kelvin)      0.15355     0.07580     0.05839
 Rotational constants (GHZ):           3.19947     1.57938     1.21667
 Zero-point vibrational energy     425926.3 (Joules/Mol)
                                  101.79882 (Kcal/Mol)
 Warning -- explicit consideration of   8 degrees of freedom as
           vibrations may cause significant error
 Vibrational temperatures:    113.98   208.09   292.92   394.71   570.41
          (Kelvin)            648.05   686.61   777.67   895.35  1027.93
                             1076.65  1198.32  1226.97  1286.42  1311.55
                             1343.87  1375.87  1429.23  1432.70  1498.51
                             1510.12  1544.20  1595.33  1605.61  1658.30
                             1729.90  1741.38  1760.49  1824.30  1863.43
                             1889.66  1909.27  1961.32  1973.27  2021.61
                             2025.14  2036.42  2139.17  2144.21  2198.90
                             2476.30  4216.74  4301.50  4346.24  4350.69
                             4397.62  4411.38  4424.99  4493.58  4536.58
                             4570.75

 Zero-point correction=                           0.162227 (Hartree/Particle)
 Thermal correction to Energy=                    0.169571
 Thermal correction to Enthalpy=                  0.170515
 Thermal correction to Gibbs Free Energy=         0.130180
 Sum of electronic and zero-point Energies=           -423.042101
 Sum of electronic and thermal Energies=              -423.034757
 Sum of electronic and thermal Enthalpies=            -423.033813
 Sum of electronic and thermal Free Energies=         -423.074148

                     E (Thermal)             CV                S
                      KCal/Mol        Cal/Mol-Kelvin    Cal/Mol-Kelvin
 Total                  106.407             28.749             84.892
 Electronic               0.000              0.000              0.000
 Translational            0.889              2.981             40.409
 Rotational               0.889              2.981             28.349
 Vibrational            104.630             22.787             16.135
 Vibration     1          0.600              1.963              3.910
 Vibration     2          0.616              1.908              2.742
 Vibration     3          0.639              1.835              2.100
 Vibration     4          0.677              1.721              1.569
 Vibration     5          0.763              1.478              0.976
 Vibration     6          0.809              1.360              0.795
 Vibration     7          0.834              1.301              0.718
 Vibration     8          0.896              1.160              0.564

 Optimization completed.
    -- Stationary point found.
 Normal termination of Gaussian 09 at Mon Jan 27 13:10:14 2020.
