 Gaussian 09, Revision D.01,
 Gaussian 09:  ES64L-G09RevD.01 24-Apr-2013

 -----------------------------
 # b3lyp 6-31G(2df,p) opt Freq
 -----------------------------

 -----
 titel
 -----
 Symbolic Z-matrix:
 Charge =  0 Multiplicity = 1

 SCF Done:  E(RB3LYP) =  -423.164835220     A.U. after   14 cycles
 Optimization completed.
    -- Stationary point found.
 Normal termination of Gaussian 09 at Mon Jan 27 17:32:10 2020.

 ----------------------------------------------------------------------
 #N Geom=AllCheck Guess=TCheck SCRF=Check GenChk RB3LYP/6-31G(2df,p) Fr
 eq
 ----------------------------------------------------------------------

 Structure from the checkpoint file:  "/scratch/puck/g09_3c768b8e-e0e8-4755-9441-da0260c8df8a/Gau-72702.chk"
 -----
 titel
 -----
 Charge =  0 Multiplicity = 1

                         Standard orientation:
 ---------------------------------------------------------------------
 Center     Atomic      Atomic             Coordinates (Angstroms)
 Number     Number       Type             X           Y           Z
 ---------------------------------------------------------------------
      1          6           0        2.766327    0.068715   -0.035618
      2          6           0        1.262985    0.066881    0.026379
      3          6           0        0.483528    1.377233   -0.054659
      4          6           0       -0.954439    0.981347   -0.433974
      5          6           0       -1.959810    0.516894    0.646632
      6          8           0       -2.022016   -0.815787    0.085417
      7          6           0       -0.960559   -0.516139   -0.842341
      8          6           0        0.401813   -1.047132   -0.430159
      9          8           0        0.667553   -0.841993    0.964002
     10          1           0        3.154667   -0.950316    0.032554
     11          1           0        3.118492    0.519164   -0.969608
     12          1           0        3.185895    0.647834    0.794518
     13          1           0        0.536649    1.923782    0.893967
     14          1           0        0.925430    2.021678   -0.823237
     15          1           0       -1.397379    1.663846   -1.159868
     16          1           0       -1.567211    0.509341    1.668843
     17          1           0       -2.941813    1.003711    0.628634
     18          1           0       -1.219739   -0.795587   -1.869752
     19          1           0        0.801638   -1.968015   -0.848964
 ---------------------------------------------------------------------

 SCF Done:  E(RB3LYP) =  -423.164835220     A.U. after    1 cycles

 The electronic state is 1-A.
 Alpha  occ. eigenvalues --  -19.14809 -19.12562 -10.24338 -10.23251 -10.23001
 Alpha  occ. eigenvalues --  -10.22301 -10.19321 -10.19108 -10.18661  -1.07459
 Alpha  occ. eigenvalues --   -1.02749  -0.80034  -0.74665  -0.71747  -0.67410
 Alpha  occ. eigenvalues --   -0.62600  -0.56382  -0.54592  -0.52084  -0.47370
 Alpha  occ. eigenvalues --   -0.45736  -0.44339  -0.43332  -0.42927  -0.40723
 Alpha  occ. eigenvalues --   -0.39556  -0.38203  -0.36076  -0.35252  -0.31557
 Alpha  occ. eigenvalues --   -0.30468  -0.28407  -0.26949  -0.23706
 Alpha virt. eigenvalues --    0.06544   0.08373   0.10005   0.11397   0.11898
 Alpha virt. eigenvalues --    0.12786   0.14688   0.15345   0.16019   0.17081
 Alpha virt. eigenvalues --    0.17830   0.18280   0.18793   0.20179   0.21798

 Mulliken charges:
               1
     1  C   -0.483917
     2  C    0.410245
     3  C   -0.306934
     4  C   -0.079891
     5  C   -0.076966
     6  O   -0.288929
     7  C    0.105203
     8  C   -0.048617
     9  O   -0.281870
    10  H    0.132676
    11  H    0.121527
    12  H    0.129088
    13  H    0.112385
    14  H    0.102242
    15  H    0.083240
    16  H    0.111267
    17  H    0.096146
    18  H    0.072070
    19  H    0.091035
 Sum of Mulliken charges =   0.00000

 Dipole moment (field-independent basis, Debye):
    X=              1.5259    Y=              2.0483    Z=             -1.7979  Tot=              3.1236
 Quadrupole moment (field-independent basis, Debye-Ang):
   XX=            -53.5292   YY=            -52.7356   ZZ=            -52.7568
   XY=             -3.0799   XZ=             -0.5792   YZ=              2.7634

  Exact polarizability:  84.828  -0.226  71.183  -0.403   3.724  65.309
 Approx polarizability: 108.050   4.296 107.871  -0.312   3.884 105.420

                      1                      2                      3
                      A                      A                      A
 Frequencies --    152.7333               166.6242               202.0219
 Red. masses --      2.5426                 2.7548                 1.2041
 Frc consts  --      0.0349                 0.0451                 0.0290
 IR Inten    --      1.6489                 1.6258                 0.3058

                      4                      5                      6
                      A                      A                      A
 Frequencies --    263.2225               333.7355               379.4594
 Red. masses --      3.2407                 3.4261                 1.8846
 Frc consts  --      0.1323                 0.2248                 0.1599
 IR Inten    --      0.9853                 1.1756                 1.3127

                      7                      8                      9
                      A                      A                      A
 Frequencies --    394.9549               539.1276               583.0475
 Red. masses --      2.9945                 4.5750                 3.9972
 Frc consts  --      0.2752                 0.7835                 0.8006
 IR Inten    --      4.2745                12.5567                 1.5207

                     10                     11                     12
                      A                      A                      A
 Frequencies --    679.7178               716.3144               801.3485
 Red. masses --      5.1495                 5.6439                 2.3032
 Frc consts  --      1.4018                 1.7062                 0.8714
 IR Inten    --      3.7437                 4.7554                 2.3757

                     13                     14                     15
                      A                      A                      A
 Frequencies --    834.9856               850.5817               877.7187
 Red. masses --      3.5504                 2.2141                 1.8703
 Frc consts  --      1.4584                 0.9438                 0.8489
 IR Inten    --     19.1312                 2.9486                 3.5895

                     16                     17                     18
                      A                      A                      A
 Frequencies --    907.0985               935.0945               963.7013
 Red. masses --      3.4012                 2.0292                 2.1193
 Frc consts  --      1.6489                 1.0454                 1.1597
 IR Inten    --     20.9753                 4.8077                 7.4077

                     19                     20                     21
                      A                      A                      A
 Frequencies --    999.1844              1017.4706              1037.2261
 Red. masses --      2.9585                 6.6379                 1.6666
 Frc consts  --      1.7402                 4.0488                 1.0564
 IR Inten    --     15.0172                65.9271                 5.7400

                     22                     23                     24
                      A                      A                      A
 Frequencies --   1045.2596              1074.1702              1102.3016
 Red. masses --      1.6147                 1.7619                 1.9681
 Frc consts  --      1.0394                 1.1978                 1.4090
 IR Inten    --      2.9320                12.3331                 5.8961

                     25                     26                     27
                      A                      A                      A
 Frequencies --   1128.7065              1163.5635              1197.2543
 Red. masses --      2.1967                 1.1316                 1.5790
 Frc consts  --      1.6488                 0.9027                 1.3336
 IR Inten    --      8.6821                 0.5503                 0.0493

                     28                     29                     30
                      A                      A                      A
 Frequencies --   1226.7896              1239.9618              1264.7975
 Red. masses --      1.5298                 1.7991                 1.4165
 Frc consts  --      1.3565                 1.6298                 1.3351
 IR Inten    --      5.3940                 7.7187                 0.4571

                     31                     32                     33
                      A                      A                      A
 Frequencies --   1295.2086              1319.9294              1333.5053
 Red. masses --      1.5808                 1.6928                 1.5334
 Frc consts  --      1.5625                 1.7377                 1.6065
 IR Inten    --      4.2612                10.3829                 3.8930

                     34                     35                     36
                      A                      A                      A
 Frequencies --   1347.1569              1371.2485              1409.4925
 Red. masses --      1.4775                 1.5942                 1.2858
 Frc consts  --      1.5798                 1.7662                 1.5050
 IR Inten    --      7.1150                 1.2432                 3.5594

                     37                     38                     39
                      A                      A                      A
 Frequencies --   1444.9082              1477.6751              1485.4152
 Red. masses --      2.5920                 1.0993                 1.1015
 Frc consts  --      3.1883                 1.4142                 1.4320
 IR Inten    --     16.1416                 0.5323                 6.7268

                     40                     41                     42
                      A                      A                      A
 Frequencies --   1497.8953              1515.5533              3025.1201
 Red. masses --      1.1310                 1.1133                 1.0566
 Frc consts  --      1.4951                 1.5067                 5.6971
 IR Inten    --      2.5953                 0.3871                81.0285

                     43                     44                     45
                      A                      A                      A
 Frequencies --   3033.4463              3038.1434              3044.6210
 Red. masses --      1.0450                 1.0513                 1.0865
 Frc consts  --      5.6653                 5.7173                 5.9338
 IR Inten    --      7.3621                45.0651                36.1391

                     46                     47                     48
                      A                      A                      A
 Frequencies --   3074.4653              3076.7005              3097.0074
 Red. masses --      1.1036                 1.1071                 1.1003
 Frc consts  --      6.1459                 6.1746                 6.2179
 IR Inten    --     11.9003                19.1109                17.1123

                     49                     50                     51
                      A                      A                      A
 Frequencies --   3106.0174              3124.9282              3138.2012
 Red. masses --      1.0900                 1.1009                 1.0913
 Frc consts  --      6.1957                 6.3341                 6.3324
 IR Inten    --     45.3187                12.4570                30.6816

 - Thermochemistry -
 -------------------
 Temperature   298.150 Kelvin.  Pressure   1.00000 Atm.
 Atom     1 has atomic number  6 and mass  12.00000

 Molecular mass:   126.06808 amu.
 Principal axes and moments of inertia in atomic units:
                           1         2         3
     Eigenvalues --   495.424761240.955201416.74195
           X            0.99988  -0.01337  -0.00819
           Y            0.01379   0.99841   0.05457
           Z            0.00745  -0.05467   0.99848
 This molecule is an asymmetric top.
 Rotational symmetry number  1.
 Warning -- assumption of classical behavior for rotation
           may cause significant error
 Rotational temperatures (Kelvin)      0.17483     0.06980     0.06114
 Rotational constants (GHZ):           3.64282     1.45432     1.27387
 Zero-point vibrational energy     420695.6 (Joules/Mol)
                                  100.54866 (Kcal/Mol)
 Warning -- explicit consideration of   9 degrees of freedom as
           vibrations may cause significant error
 Vibrational temperatures:    219.75   239.73   290.66   378.72   480.17
          (Kelvin)            545.96   568.25   775.68   838.87   977.96
                             1030.62  1152.96  1201.36  1223.80  1262.84
                             1305.11  1345.39  1386.55  1437.60  1463.91
                             1492.34  1503.89  1545.49  1585.96  1623.95
                             1674.11  1722.58  1765.07  1784.03  1819.76
                             1863.51  1899.08  1918.61  1938.26  1972.92
                             2027.94  2078.90  2126.04  2137.18  2155.13
                             2180.54  4352.47  4364.45  4371.21  4380.53
                             4423.46  4426.68  4455.90  4468.86  4496.07
                             4515.17

 Zero-point correction=                           0.160234 (Hartree/Particle)
 Thermal correction to Energy=                    0.167747
 Thermal correction to Enthalpy=                  0.168691
 Thermal correction to Gibbs Free Energy=         0.128563
 Sum of electronic and zero-point Energies=           -423.004601
 Sum of electronic and thermal Energies=              -422.997089
 Sum of electronic and thermal Enthalpies=            -422.996144
 Sum of electronic and thermal Free Energies=         -423.036272

                     E (Thermal)             CV                S
                      KCal/Mol        Cal/Mol-Kelvin    Cal/Mol-Kelvin
 Total                  105.263             29.911             84.455
 Electronic               0.000              0.000              0.000
 Translational            0.889              2.981             40.409
 Rotational               0.889              2.981             28.256
 Vibrational            103.485             23.949             15.790
 Vibration     1          0.619              1.900              2.638
 Vibration     2          0.624              1.884              2.473
 Vibration     3          0.639              1.837              2.115
 Vibration     4          0.670              1.740              1.640
 Vibration     5          0.715              1.608              1.242
 Vibration     6          0.749              1.514              1.041
 Vibration     7          0.762              1.481              0.981
 Vibration     8          0.894              1.164              0.567
 Vibration     9          0.940              1.068              0.480

 Optimization completed.
    -- Stationary point found.
 Normal termination of Gaussian 09 at Mon Jan 27 18:30:56 2020.
