 Gaussian 09, Revision D.01,
 Gaussian 09:  ES64L-G09RevD.01 24-Apr-2013

 -----------------------------
 # b3lyp 6-31G(2df,p) opt Freq
 -----------------------------

 -----
 titel
 -----
 Symbolic Z-matrix:
 Charge =  0 Multiplicity = 1

 SCF Done:  E(RB3LYP) =  -423.222052040     A.U. after   14 cycles
 SCF Done:  E(RB3LYP) =  -423.222051732     A.U. after    6 cycles
 Optimization completed.
    -- Stationary point found.
 Normal termination of Gaussian 09 at Tue Jan 28 08:56:04 2020.

 ----------------------------------------------------------------------
 #N Geom=AllCheck Guess=TCheck SCRF=Check GenChk RB3LYP/6-31G(2df,p) Fr
 eq
 ----------------------------------------------------------------------

 Structure from the checkpoint file:  "/scratch/puck/g09_ffb36f6c-9202-4432-86c6-20b00cb01b7f/Gau-103611.chk"
 -----
 titel
 -----
 Charge =  0 Multiplicity = 1

                         Standard orientation:
 ---------------------------------------------------------------------
 Center     Atomic      Atomic             Coordinates (Angstroms)
 Number     Number       Type             X           Y           Z
 ---------------------------------------------------------------------
      1          6           0       -2.743030    0.673980   -0.609403
      2          6           0       -1.483517   -0.118862   -0.966728
      3          6           0       -0.505385   -0.335543    0.211351
      4          8           0       -1.163454   -1.004773    1.288386
      5          6           0        0.792504   -1.044735   -0.247689
      6          6           0        1.893903    0.024134   -0.179659
      7          8           0        3.015537   -0.076154   -0.615963
      8          6           0        1.306765    1.187993    0.529861
      9          6           0        0.010320    0.977869    0.771327
     10          1           0       -3.444279    0.685047   -1.448605
     11          1           0       -3.246757    0.231820    0.254302
     12          1           0       -2.506997    1.714071   -0.363972
     13          1           0       -1.765772   -1.113343   -1.341858
     14          1           0       -0.942634    0.370434   -1.785222
     15          1           0       -1.553257   -1.813728    0.938670
     16          1           0        1.039833   -1.838504    0.464336
     17          1           0        0.742049   -1.487118   -1.245892
     18          1           0        1.889234    2.061546    0.794426
     19          1           0       -0.657442    1.648166    1.300073
 ---------------------------------------------------------------------

 SCF Done:  E(RB3LYP) =  -423.222051732     A.U. after    1 cycles

 The electronic state is 1-A.
 Alpha  occ. eigenvalues --  -19.14760 -19.12272 -10.26474 -10.25479 -10.21100
 Alpha  occ. eigenvalues --  -10.19652 -10.19645 -10.18773 -10.18266  -1.03441
 Alpha  occ. eigenvalues --   -1.03011  -0.85054  -0.77628  -0.72793  -0.67658
 Alpha  occ. eigenvalues --   -0.62702  -0.57159  -0.53395  -0.50460  -0.48403
 Alpha  occ. eigenvalues --   -0.46107  -0.44290  -0.43404  -0.41756  -0.40135
 Alpha  occ. eigenvalues --   -0.39574  -0.38271  -0.37539  -0.35194  -0.34655
 Alpha  occ. eigenvalues --   -0.32777  -0.29128  -0.27721  -0.23866
 Alpha virt. eigenvalues --   -0.04937   0.05235   0.06359   0.10587   0.11661
 Alpha virt. eigenvalues --    0.12899   0.13955   0.14575   0.16285   0.16913
 Alpha virt. eigenvalues --    0.17126   0.19123   0.19655   0.20289   0.21892

 Mulliken charges:
               1
     1  C   -0.389780
     2  C   -0.226458
     3  C    0.338151
     4  O   -0.473548
     5  C   -0.400746
     6  C    0.382714
     7  O   -0.325608
     8  C   -0.196330
     9  C   -0.055599
    10  H    0.116514
    11  H    0.127606
    12  H    0.119777
    13  H    0.093325
    14  H    0.109158
    15  H    0.280590
    16  H    0.136623
    17  H    0.119173
    18  H    0.119393
    19  H    0.125045
 Sum of Mulliken charges =   0.00000

 Dipole moment (field-independent basis, Debye):
    X=             -3.2920    Y=             -0.1732    Z=             -0.1717  Tot=              3.3011
 Quadrupole moment (field-independent basis, Debye-Ang):
   XX=            -63.2925   YY=            -47.5327   ZZ=            -55.5949
   XY=              2.5687   XZ=              4.6954   YZ=              1.5542

  Exact polarizability:  99.586   1.599  72.398  -4.375   5.321  62.057
 Approx polarizability: 150.929   2.164 106.200 -17.160   7.516  97.835

                      1                      2                      3
                      A                      A                      A
 Frequencies --     59.3768               120.8135               187.1776
 Red. masses --      4.4457                 2.1068                 2.5845
 Frc consts  --      0.0092                 0.0181                 0.0534
 IR Inten    --      3.4848                 0.9328                 0.9695

                      4                      5                      6
                      A                      A                      A
 Frequencies --    223.9042               265.5922               291.5304
 Red. masses --      1.5284                 2.2662                 1.0703
 Frc consts  --      0.0451                 0.0942                 0.0536
 IR Inten    --      1.1387                 1.6993                95.7387

                      7                      8                      9
                      A                      A                      A
 Frequencies --    353.0622               362.8833               383.9961
 Red. masses --      2.8069                 3.8536                 3.6822
 Frc consts  --      0.2061                 0.2990                 0.3199
 IR Inten    --      3.3912                13.7852                 8.8099

                     10                     11                     12
                      A                      A                      A
 Frequencies --    439.8338               521.7867               583.5043
 Red. masses --      2.1563                 3.5566                 3.4395
 Frc consts  --      0.2458                 0.5705                 0.6900
 IR Inten    --      6.9284                 2.7392                 1.8869

                     13                     14                     15
                      A                      A                      A
 Frequencies --    634.3736               691.0923               787.7935
 Red. masses --      2.9635                 5.3573                 1.2536
 Frc consts  --      0.7027                 1.5075                 0.4584
 IR Inten    --      0.9800                 4.6275                 3.1379

                     16                     17                     18
                      A                      A                      A
 Frequencies --    798.3474               828.0410               845.2194
 Red. masses --      3.4335                 2.4708                 1.6756
 Frc consts  --      1.2894                 0.9981                 0.7053
 IR Inten    --      2.2953                13.4673                13.0118

                     19                     20                     21
                      A                      A                      A
 Frequencies --    896.2032               975.2983              1002.0224
 Red. masses --      2.3849                 1.8850                 1.9493
 Frc consts  --      1.1286                 1.0564                 1.1531
 IR Inten    --      2.2631                12.7784                44.1921

                     22                     23                     24
                      A                      A                      A
 Frequencies --   1008.7920              1037.2113              1074.6466
 Red. masses --      1.3567                 2.2162                 2.0948
 Frc consts  --      0.8135                 1.4047                 1.4254
 IR Inten    --      0.8416                 5.1246                17.1664

                     25                     26                     27
                      A                      A                      A
 Frequencies --   1098.6114              1127.6793              1168.8187
 Red. masses --      1.3464                 1.6468                 2.4959
 Frc consts  --      0.9574                 1.2338                 2.0090
 IR Inten    --      2.8824                42.1548                35.5071

                     28                     29                     30
                      A                      A                      A
 Frequencies --   1190.4403              1222.4714              1250.2448
 Red. masses --      2.2001                 1.8047                 1.6393
 Frc consts  --      1.8370                 1.5891                 1.5098
 IR Inten    --     41.2382                23.4500                21.1024

                     31                     32                     33
                      A                      A                      A
 Frequencies --   1284.6108              1342.7941              1363.1920
 Red. masses --      1.2570                 1.6625                 1.5247
 Frc consts  --      1.2222                 1.7662                 1.6693
 IR Inten    --     21.2795                28.4787                 0.3784

                     34                     35                     36
                      A                      A                      A
 Frequencies --   1406.0813              1412.9454              1448.5183
 Red. masses --      1.6765                 1.2682                 1.1089
 Frc consts  --      1.9528                 1.4917                 1.3709
 IR Inten    --     15.4925                 5.6471                 7.7303

                     37                     38                     39
                      A                      A                      A
 Frequencies --   1482.6886              1498.5550              1510.4430
 Red. masses --      1.0838                 1.0399                 1.0565
 Frc consts  --      1.4037                 1.3759                 1.4201
 IR Inten    --      0.6414                 4.4169                 3.7505

                     40                     41                     42
                      A                      A                      A
 Frequencies --   1657.2780              1820.8084              3005.5172
 Red. masses --      6.9598                12.3848                 1.0669
 Frc consts  --     11.2625                24.1918                 5.6783
 IR Inten    --      9.7962               294.1100                24.8537

                     43                     44                     45
                      A                      A                      A
 Frequencies --   3044.8961              3059.7278              3060.4922
 Red. masses --      1.0357                 1.0734                 1.0805
 Frc consts  --      5.6578                 5.9207                 5.9629
 IR Inten    --     21.0678                 9.7009                10.8034

                     46                     47                     48
                      A                      A                      A
 Frequencies --   3110.0467              3111.6713              3123.8879
 Red. masses --      1.1014                 1.1033                 1.1015
 Frc consts  --      6.2765                 6.2940                 6.3331
 IR Inten    --     27.0043                10.7411                20.7089

                     49                     50                     51
                      A                      A                      A
 Frequencies --   3202.3618              3227.4504              3800.9575
 Red. masses --      1.0862                 1.1047                 1.0660
 Frc consts  --      6.5631                 6.7800                 9.0739
 IR Inten    --      3.0555                 5.4549                16.8904

 - Thermochemistry -
 -------------------
 Temperature   298.150 Kelvin.  Pressure   1.00000 Atm.
 Atom     1 has atomic number  6 and mass  12.00000

 Molecular mass:   126.06808 amu.
 Principal axes and moments of inertia in atomic units:
                           1         2         3
     Eigenvalues --   564.603401680.426671729.44383
           X            0.99964  -0.01429   0.02256
           Y            0.01037   0.98616   0.16547
           Z           -0.02462  -0.16518   0.98596
 This molecule is an asymmetric top.
 Rotational symmetry number  1.
 Warning -- assumption of classical behavior for rotation
           may cause significant error
 Rotational temperatures (Kelvin)      0.15341     0.05154     0.05008
 Rotational constants (GHZ):           3.19648     1.07398     1.04354
 Zero-point vibrational energy     415138.2 (Joules/Mol)
                                   99.22042 (Kcal/Mol)
 Warning -- explicit consideration of  12 degrees of freedom as
           vibrations may cause significant error
 Vibrational temperatures:     85.43   173.82   269.31   322.15   382.13
          (Kelvin)            419.45   507.98   522.11   552.48   632.82
                              750.73   839.53   912.72   994.33  1133.46
                             1148.64  1191.36  1216.08  1289.43  1403.23
                             1441.68  1451.42  1492.31  1546.17  1580.65
                             1622.48  1681.67  1712.78  1758.86  1798.82
                             1848.27  1931.98  1961.33  2023.03  2032.91
                             2084.09  2133.26  2156.08  2173.19  2384.45
                             2619.73  4324.26  4380.92  4402.26  4403.36
                             4474.66  4477.00  4494.57  4607.48  4643.58
                             5468.72

 Zero-point correction=                           0.158118 (Hartree/Particle)
 Thermal correction to Energy=                    0.167108
 Thermal correction to Enthalpy=                  0.168052
 Thermal correction to Gibbs Free Energy=         0.124411
 Sum of electronic and zero-point Energies=           -423.063934
 Sum of electronic and thermal Energies=              -423.054944
 Sum of electronic and thermal Enthalpies=            -423.053999
 Sum of electronic and thermal Free Energies=         -423.097640

                     E (Thermal)             CV                S
                      KCal/Mol        Cal/Mol-Kelvin    Cal/Mol-Kelvin
 Total                  104.862             34.172             91.850
 Electronic               0.000              0.000              0.000
 Translational            0.889              2.981             40.409
 Rotational               0.889              2.981             28.886
 Vibrational            103.085             28.210             22.556
 Vibration     1          0.597              1.974              4.478
 Vibration     2          0.609              1.932              3.087
 Vibration     3          0.632              1.857              2.256
 Vibration     4          0.649              1.805              1.927
 Vibration     5          0.671              1.736              1.625
 Vibration     6          0.687              1.690              1.465
 Vibration     7          0.729              1.569              1.152
 Vibration     8          0.737              1.549              1.110
 Vibration     9          0.753              1.504              1.023
 Vibration    10          0.800              1.383              0.827
 Vibration    11          0.877              1.202              0.606
 Vibration    12          0.940              1.067              0.479

 Optimization completed.
    -- Stationary point found.
 Normal termination of Gaussian 09 at Tue Jan 28 09:38:05 2020.
