 Gaussian 09, Revision D.01,
 Gaussian 09:  ES64L-G09RevD.01 24-Apr-2013

 -----------------------------
 # b3lyp 6-31G(2df,p) opt Freq
 -----------------------------

 -----
 titel
 -----
 Symbolic Z-matrix:
 Charge =  0 Multiplicity = 1

 SCF Done:  E(RB3LYP) =  -423.101505715     A.U. after   12 cycles
 Optimization completed.
    -- Stationary point found.
 Normal termination of Gaussian 09 at Mon Jan 27 22:01:51 2020.

 ----------------------------------------------------------------------
 #N Geom=AllCheck Guess=TCheck SCRF=Check GenChk RB3LYP/6-31G(2df,p) Fr
 eq
 ----------------------------------------------------------------------

 Structure from the checkpoint file:  "/scratch/puck/g09_e5d9ccbe-8eaf-4868-a766-7d20809665fa/Gau-98634.chk"
 -----
 titel
 -----
 Charge =  0 Multiplicity = 1

                         Standard orientation:
 ---------------------------------------------------------------------
 Center     Atomic      Atomic             Coordinates (Angstroms)
 Number     Number       Type             X           Y           Z
 ---------------------------------------------------------------------
      1          6           0       -2.554181   -1.021905   -0.014621
      2          6           0       -1.143323   -0.702956    0.438636
      3          6           0       -0.092834   -0.582514   -0.660917
      4          6           0        1.352167   -0.282297   -0.153962
      5          8           0        2.466898   -0.483313   -0.944416
      6          6           0        1.493683   -0.210779    1.326573
      7          6           0        0.847304    0.950875    0.585876
      8          6           0       -0.589009    0.646909    0.052785
      9          8           0       -1.361183    1.658991   -0.494475
     10          1           0       -2.788057   -0.525851   -0.960121
     11          1           0       -2.686837   -2.100509   -0.147711
     12          1           0       -3.288355   -0.685338    0.726146
     13          1           0       -0.878763   -1.154920    1.390011
     14          1           0       -0.298794   -0.916290   -1.671036
     15          1           0        2.337160   -0.006483   -1.772439
     16          1           0        0.962338   -0.852156    2.021791
     17          1           0        2.512740    0.009622    1.632516
     18          1           0        1.246814    1.956410    0.624405
     19          1           0       -1.846811    2.086097    0.221338
 ---------------------------------------------------------------------

 SCF Done:  E(RB3LYP) =  -423.101505715     A.U. after    1 cycles

 The electronic state is 1-A.
 Alpha  occ. eigenvalues --  -19.14944 -19.14757 -10.24015 -10.23745 -10.19208
 Alpha  occ. eigenvalues --  -10.18517 -10.18355 -10.18353 -10.17724  -1.03671
 Alpha  occ. eigenvalues --   -1.03059  -0.90303  -0.80508  -0.71105  -0.62621
 Alpha  occ. eigenvalues --   -0.61488  -0.56674  -0.55438  -0.51787  -0.49778
 Alpha  occ. eigenvalues --   -0.48258  -0.42839  -0.42240  -0.40598  -0.40002
 Alpha  occ. eigenvalues --   -0.37661  -0.36912  -0.36277  -0.34090  -0.32946
 Alpha  occ. eigenvalues --   -0.28628  -0.27208  -0.25427  -0.20279
 Alpha virt. eigenvalues --    0.07314   0.08195   0.08840   0.10625   0.11388
 Alpha virt. eigenvalues --    0.13086   0.14781   0.16062   0.16965   0.17205
 Alpha virt. eigenvalues --    0.18890   0.19123   0.21613   0.22371   0.23462

 Mulliken charges:
               1
     1  C   -0.425996
     2  C   -0.092430
     3  C   -0.228220
     4  C    0.412036
     5  O   -0.452201
     6  C   -0.343576
     7  C   -0.225082
     8  C    0.383671
     9  O   -0.455862
    10  H    0.130725
    11  H    0.119175
    12  H    0.111810
    13  H    0.078354
    14  H    0.090474
    15  H    0.285788
    16  H    0.113256
    17  H    0.119449
    18  H    0.093778
    19  H    0.284852
 Sum of Mulliken charges =   0.00000

 Dipole moment (field-independent basis, Debye):
    X=             -1.0987    Y=              0.7895    Z=              0.5167  Tot=              1.4482
 Quadrupole moment (field-independent basis, Debye-Ang):
   XX=            -54.2874   YY=            -53.0166   ZZ=            -49.8773
   XY=              2.0861   XZ=             -2.9178   YZ=              1.3458

  Exact polarizability:  86.693   1.772  69.848   0.414   0.415  69.677
 Approx polarizability: 112.790  -3.644 109.377  -3.176   1.010 109.045

                      1                      2                      3
                      A                      A                      A
 Frequencies --    159.7663               184.3559               208.8862
 Red. masses --      4.1914                 1.2015                 2.7198
 Frc consts  --      0.0630                 0.0241                 0.0699
 IR Inten    --      3.3123                 1.0598                 0.9178

                      4                      5                      6
                      A                      A                      A
 Frequencies --    227.0995               282.0651               306.1649
 Red. masses --      2.3791                 1.1492                 2.0940
 Frc consts  --      0.0723                 0.0539                 0.1156
 IR Inten    --      0.7978                67.1687                 4.9979

                      7                      8                      9
                      A                      A                      A
 Frequencies --    349.2081               363.3046               381.1685
 Red. masses --      2.5771                 1.7213                 3.1180
 Frc consts  --      0.1852                 0.1339                 0.2669
 IR Inten    --     65.7131                64.2005                 2.5645

                     10                     11                     12
                      A                      A                      A
 Frequencies --    448.3161               468.0110               504.2599
 Red. masses --      3.2828                 2.5674                 2.7672
 Frc consts  --      0.3887                 0.3313                 0.4146
 IR Inten    --      1.8120                18.1863                 3.5463

                     13                     14                     15
                      A                      A                      A
 Frequencies --    626.7511               648.0574               797.5564
 Red. masses --      4.0819                 3.4971                 2.7725
 Frc consts  --      0.9447                 0.8653                 1.0391
 IR Inten    --      8.0736                 4.6583                 6.3763

                     16                     17                     18
                      A                      A                      A
 Frequencies --    839.4065               844.8569               860.9599
 Red. masses --      2.7022                 2.8088                 2.0174
 Frc consts  --      1.1218                 1.1812                 0.8810
 IR Inten    --      4.9625                10.3103                 5.7809

                     19                     20                     21
                      A                      A                      A
 Frequencies --    913.6987               934.8116               971.1217
 Red. masses --      1.4843                 1.7291                 1.6176
 Frc consts  --      0.7301                 0.8903                 0.8988
 IR Inten    --      7.0154                 6.6069                11.2865

                     22                     23                     24
                      A                      A                      A
 Frequencies --    980.0371              1003.7408              1042.2508
 Red. masses --      1.4843                 2.1638                 1.6483
 Frc consts  --      0.8399                 1.2844                 1.0549
 IR Inten    --      0.1324                 6.4194                14.6867

                     25                     26                     27
                      A                      A                      A
 Frequencies --   1066.0735              1082.9988              1102.3568
 Red. masses --      2.1202                 1.6283                 1.8938
 Frc consts  --      1.4197                 1.1253                 1.3559
 IR Inten    --     26.3535                17.8942                 8.0775

                     28                     29                     30
                      A                      A                      A
 Frequencies --   1138.2023              1154.0065              1170.1005
 Red. masses --      1.7179                 1.5090                 2.1014
 Frc consts  --      1.3112                 1.1840                 1.6951
 IR Inten    --      0.3947                 1.1309                46.8940

                     31                     32                     33
                      A                      A                      A
 Frequencies --   1208.1413              1250.7330              1285.0922
 Red. masses --      2.0528                 1.8890                 1.7220
 Frc consts  --      1.7653                 1.7411                 1.6755
 IR Inten    --      9.3082                18.7883                99.8004

                     34                     35                     36
                      A                      A                      A
 Frequencies --   1309.7234              1363.9992              1407.9828
 Red. masses --      1.8555                 1.7760                 2.0906
 Frc consts  --      1.8753                 1.9468                 2.4418
 IR Inten    --    209.9130                 9.1346                 2.9748

                     37                     38                     39
                      A                      A                      A
 Frequencies --   1415.2933              1453.7933              1495.2285
 Red. masses --      1.2879                 2.2800                 1.0493
 Frc consts  --      1.5199                 2.8392                 1.3822
 IR Inten    --      0.1237                17.6753                 2.1525

                     40                     41                     42
                      A                      A                      A
 Frequencies --   1503.6030              1505.2628              3032.5791
 Red. masses --      1.3298                 1.2508                 1.0371
 Frc consts  --      1.7713                 1.6698                 5.6194
 IR Inten    --     14.4499                16.1750                38.5919

                     43                     44                     45
                      A                      A                      A
 Frequencies --   3090.5463              3115.1967              3120.4942
 Red. masses --      1.1002                 1.0833                 1.0730
 Frc consts  --      6.1915                 6.1939                 6.1559
 IR Inten    --     22.9747                 8.7638                 1.7556

                     46                     47                     48
                      A                      A                      A
 Frequencies --   3145.8670              3186.0186              3194.5242
 Red. masses --      1.0845                 1.0927                 1.0992
 Frc consts  --      6.3237                 6.5349                 6.6089
 IR Inten    --     35.3692                 7.0439                 3.2902

                     49                     50                     51
                      A                      A                      A
 Frequencies --   3202.2660              3771.7812              3785.0274
 Red. masses --      1.1079                 1.0660                 1.0658
 Frc consts  --      6.6940                 8.9351                 8.9967
 IR Inten    --     17.1287                16.5259                19.3148

 - Thermochemistry -
 -------------------
 Temperature   298.150 Kelvin.  Pressure   1.00000 Atm.
 Atom     1 has atomic number  6 and mass  12.00000

 Molecular mass:   126.06808 amu.
 Principal axes and moments of inertia in atomic units:
                           1         2         3
     Eigenvalues --   612.631181411.549091539.30149
           X            0.99926   0.03761   0.00848
           Y           -0.03768   0.99926   0.00731
           Z           -0.00820  -0.00762   0.99994
 This molecule is an asymmetric top.
 Rotational symmetry number  1.
 Warning -- assumption of classical behavior for rotation
           may cause significant error
 Rotational temperatures (Kelvin)      0.14138     0.06136     0.05627
 Rotational constants (GHZ):           2.94589     1.27855     1.17244
 Zero-point vibrational energy     412129.9 (Joules/Mol)
                                   98.50142 (Kcal/Mol)
 Warning -- explicit consideration of  12 degrees of freedom as
           vibrations may cause significant error
 Vibrational temperatures:    229.87   265.25   300.54   326.75   405.83
          (Kelvin)            440.50   502.43   522.71   548.42   645.03
                              673.36   725.52   901.75   932.41  1147.50
                             1207.72  1215.56  1238.73  1314.61  1344.98
                             1397.23  1410.05  1444.16  1499.56  1533.84
                             1558.19  1586.04  1637.62  1660.36  1683.51
                             1738.24  1799.52  1848.96  1884.40  1962.49
                             2025.77  2036.29  2091.68  2151.30  2163.35
                             2165.73  4363.20  4446.60  4482.07  4489.69
                             4526.20  4583.96  4596.20  4607.34  5426.75
                             5445.80

 Zero-point correction=                           0.156972 (Hartree/Particle)
 Thermal correction to Energy=                    0.165751
 Thermal correction to Enthalpy=                  0.166696
 Thermal correction to Gibbs Free Energy=         0.124407
 Sum of electronic and zero-point Energies=           -422.944534
 Sum of electronic and thermal Energies=              -422.935754
 Sum of electronic and thermal Enthalpies=            -422.934810
 Sum of electronic and thermal Free Energies=         -422.977099

                     E (Thermal)             CV                S
                      KCal/Mol        Cal/Mol-Kelvin    Cal/Mol-Kelvin
 Total                  104.011             34.911             89.004
 Electronic               0.000              0.000              0.000
 Translational            0.889              2.981             40.409
 Rotational               0.889              2.981             28.678
 Vibrational            102.233             28.949             19.918
 Vibration     1          0.622              1.892              2.553
 Vibration     2          0.631              1.861              2.284
 Vibration     3          0.642              1.827              2.053
 Vibration     4          0.651              1.800              1.902
 Vibration     5          0.681              1.707              1.521
 Vibration     6          0.697              1.662              1.383
 Vibration     7          0.726              1.577              1.170
 Vibration     8          0.737              1.548              1.108
 Vibration     9          0.751              1.510              1.035
 Vibration    10          0.807              1.365              0.801
 Vibration    11          0.825              1.321              0.743
 Vibration    12          0.860              1.241              0.648

 Normal termination of Gaussian 09 at Mon Jan 27 22:51:28 2020.
