 Gaussian 09, Revision D.01,
 Gaussian 09:  ES64L-G09RevD.01 24-Apr-2013

 -----------------------------
 # b3lyp 6-31G(2df,p) opt Freq
 -----------------------------

 -----
 titel
 -----
 Symbolic Z-matrix:
 Charge =  0 Multiplicity = 1

 SCF Done:  E(RB3LYP) =  -423.180532372     A.U. after   13 cycles
 Optimization completed.
    -- Stationary point found.
 Normal termination of Gaussian 09 at Mon Jan 27 19:02:28 2020.

 ----------------------------------------------------------------------
 #N Geom=AllCheck Guess=TCheck SCRF=Check GenChk RB3LYP/6-31G(2df,p) Fr
 eq
 ----------------------------------------------------------------------

 Structure from the checkpoint file:  "/scratch/puck/g09_41669c19-d0b1-488c-8ed6-f6640b9c0d76/Gau-183473.chk"
 -----
 titel
 -----
 Charge =  0 Multiplicity = 1

                         Standard orientation:
 ---------------------------------------------------------------------
 Center     Atomic      Atomic             Coordinates (Angstroms)
 Number     Number       Type             X           Y           Z
 ---------------------------------------------------------------------
      1          6           0       -2.566217   -0.267191    0.064079
      2          6           0       -1.075786   -0.059123   -0.051918
      3          6           0       -0.553546    1.198332   -0.743354
      4          8           0        0.590052    1.641736   -0.011102
      5          6           0        1.086356    0.557776    0.769121
      6          6           0        1.966267   -0.365883   -0.083106
      7          8           0        1.042828   -1.153034   -0.847498
      8          6           0       -0.145325   -1.257947   -0.099525
      9          6           0       -0.117085   -0.341981    1.087848
     10          1           0       -2.796959   -1.205042    0.579322
     11          1           0       -3.039890    0.546712    0.624854
     12          1           0       -3.037076   -0.311295   -0.924591
     13          1           0       -0.281708    0.996978   -1.788335
     14          1           0       -1.301623    1.999275   -0.724384
     15          1           0        1.603741    0.970196    1.637994
     16          1           0        2.605849    0.186720   -0.775298
     17          1           0        2.586972   -1.015423    0.553360
     18          1           0       -0.559220   -2.261196   -0.069993
     19          1           0       -0.411113   -0.600439    2.097004
 ---------------------------------------------------------------------

 SCF Done:  E(RB3LYP) =  -423.180532372     A.U. after    1 cycles

 The electronic state is 1-A.
 Alpha  occ. eigenvalues --  -19.14180 -19.13304 -10.23579 -10.23354 -10.22380
 Alpha  occ. eigenvalues --  -10.22373 -10.19937 -10.19053 -10.18650  -1.05490
 Alpha  occ. eigenvalues --   -1.01748  -0.85861  -0.76334  -0.71945  -0.67916
 Alpha  occ. eigenvalues --   -0.60193  -0.58167  -0.56409  -0.52189  -0.47665
 Alpha  occ. eigenvalues --   -0.45032  -0.43824  -0.43222  -0.42721  -0.41897
 Alpha  occ. eigenvalues --   -0.41100  -0.39185  -0.35322  -0.34258  -0.32558
 Alpha  occ. eigenvalues --   -0.31079  -0.27863  -0.24843  -0.23294
 Alpha virt. eigenvalues --    0.09048   0.09727   0.10121   0.12372   0.13452
 Alpha virt. eigenvalues --    0.14100   0.15574   0.15984   0.16064   0.16384
 Alpha virt. eigenvalues --    0.17276   0.17751   0.18997   0.20175   0.20334

 Mulliken charges:
               1
     1  C   -0.499026
     2  C    0.278036
     3  C   -0.141872
     4  O   -0.268224
     5  C    0.062574
     6  C   -0.091557
     7  O   -0.263584
     8  C    0.047862
     9  C   -0.179077
    10  H    0.119104
    11  H    0.123461
    12  H    0.125955
    13  H    0.107117
    14  H    0.100692
    15  H    0.085839
    16  H    0.118181
    17  H    0.090449
    18  H    0.093480
    19  H    0.090588
 Sum of Mulliken charges =   0.00000

 Dipole moment (field-independent basis, Debye):
    X=             -0.9817    Y=             -0.6604    Z=              1.3340  Tot=              1.7831
 Quadrupole moment (field-independent basis, Debye-Ang):
   XX=            -49.6902   YY=            -56.5896   ZZ=            -52.5459
   XY=              0.3029   XZ=              2.1082   YZ=             -2.1434

  Exact polarizability:  85.754  -0.966  69.031   3.128  -2.244  66.362
 Approx polarizability: 112.409  -1.486 104.589   4.637  -0.458 104.276

                      1                      2                      3
                      A                      A                      A
 Frequencies --    160.7479               200.7744               204.4059
 Red. masses --      2.9957                 1.0695                 2.7335
 Frc consts  --      0.0456                 0.0254                 0.0673
 IR Inten    --      4.1099                 0.3179                 1.3806

                      4                      5                      6
                      A                      A                      A
 Frequencies --    265.7000               300.0420               401.2676
 Red. masses --      3.3816                 2.3966                 2.3819
 Frc consts  --      0.1407                 0.1271                 0.2260
 IR Inten    --      3.2280                 1.1683                 2.5087

                      7                      8                      9
                      A                      A                      A
 Frequencies --    496.4363               554.8508               631.4575
 Red. masses --      3.0376                 3.5736                 6.1673
 Frc consts  --      0.4411                 0.6482                 1.4489
 IR Inten    --      1.2357                 0.6033                 5.2625

                     10                     11                     12
                      A                      A                      A
 Frequencies --    730.4333               772.5823               806.2458
 Red. masses --      6.2915                 4.5053                 2.5298
 Frc consts  --      1.9777                 1.5844                 0.9689
 IR Inten    --     11.4518                 4.0534                 3.9107

                     13                     14                     15
                      A                      A                      A
 Frequencies --    846.3527               854.6714               893.7479
 Red. masses --      3.1962                 2.3247                 2.1308
 Frc consts  --      1.3489                 1.0005                 1.0028
 IR Inten    --     12.8819                 7.8092                 4.7453

                     16                     17                     18
                      A                      A                      A
 Frequencies --    928.1588               955.4239               968.6447
 Red. masses --      2.1991                 2.1902                 1.9795
 Frc consts  --      1.1162                 1.1779                 1.0943
 IR Inten    --     19.2988                 9.5757                18.8125

                     19                     20                     21
                      A                      A                      A
 Frequencies --    995.6207              1010.6776              1022.6046
 Red. masses --      2.2645                 2.0456                 1.7243
 Frc consts  --      1.3225                 1.2311                 1.0624
 IR Inten    --      1.8536                 3.7996                11.4435

                     22                     23                     24
                      A                      A                      A
 Frequencies --   1051.4100              1085.2304              1112.9674
 Red. masses --      1.7931                 1.9439                 3.0852
 Frc consts  --      1.1678                 1.3489                 2.2516
 IR Inten    --     15.2191                12.9491                55.2401

                     25                     26                     27
                      A                      A                      A
 Frequencies --   1123.6089              1128.2579              1207.8516
 Red. masses --      5.4492                 1.9952                 1.7147
 Frc consts  --      4.0533                 1.4964                 1.4739
 IR Inten    --    106.6327                17.6925                 6.0782

                     28                     29                     30
                      A                      A                      A
 Frequencies --   1226.4059              1241.7975              1261.9451
 Red. masses --      1.3169                 1.2118                 1.5225
 Frc consts  --      1.1670                 1.1010                 1.4285
 IR Inten    --      6.8843                 1.1436                 1.7077

                     31                     32                     33
                      A                      A                      A
 Frequencies --   1280.9938              1298.4988              1337.4871
 Red. masses --      1.9204                 1.5844                 1.4747
 Frc consts  --      1.8567                 1.5740                 1.5543
 IR Inten    --      1.8162                 2.9235                 0.2467

                     34                     35                     36
                      A                      A                      A
 Frequencies --   1355.8886              1381.3617              1418.2875
 Red. masses --      1.6854                 1.3879                 1.3370
 Frc consts  --      1.8256                 1.5604                 1.5845
 IR Inten    --      8.8619                 2.8797                 1.2350

                     37                     38                     39
                      A                      A                      A
 Frequencies --   1431.0843              1491.1963              1498.5605
 Red. masses --      1.9388                 1.0445                 1.0717
 Frc consts  --      2.3394                 1.3685                 1.4180
 IR Inten    --      7.3077                 3.9576                 2.6897

                     40                     41                     42
                      A                      A                      A
 Frequencies --   1499.9174              1517.6695              2987.3968
 Red. masses --      1.1010                 1.0880                 1.0696
 Frc consts  --      1.4594                 1.4766                 5.6243
 IR Inten    --      3.8971                 0.9653                73.1160

                     43                     44                     45
                      A                      A                      A
 Frequencies --   3011.0185              3024.8401              3056.9141
 Red. masses --      1.0596                 1.0362                 1.1037
 Frc consts  --      5.6598                 5.5861                 6.0769
 IR Inten    --     51.0785                36.5951                36.1497

                     46                     47                     48
                      A                      A                      A
 Frequencies --   3085.9245              3096.5157              3098.4263
 Red. masses --      1.1012                 1.0891                 1.1005
 Frc consts  --      6.1788                 6.1527                 6.2247
 IR Inten    --     21.6899                35.9750                19.0454

                     49                     50                     51
                      A                      A                      A
 Frequencies --   3107.5550              3155.9192              3192.1188
 Red. masses --      1.0946                 1.0905                 1.0943
 Frc consts  --      6.2277                 6.3991                 6.5696
 IR Inten    --     23.5115                22.8906                 9.8071

 - Thermochemistry -
 -------------------
 Temperature   298.150 Kelvin.  Pressure   1.00000 Atm.
 Atom     1 has atomic number  6 and mass  12.00000

 Molecular mass:   126.06808 amu.
 Principal axes and moments of inertia in atomic units:
                           1         2         3
     Eigenvalues --   627.55841 993.587381243.33714
           X            0.99991   0.00790   0.01072
           Y           -0.00735   0.99873  -0.04988
           Z           -0.01110   0.04980   0.99870
 This molecule is an asymmetric top.
 Rotational symmetry number  1.
 Warning -- assumption of classical behavior for rotation
           may cause significant error
 Rotational temperatures (Kelvin)      0.13802     0.08717     0.06966
 Rotational constants (GHZ):           2.87581     1.81639     1.45153
 Zero-point vibrational energy     423286.0 (Joules/Mol)
                                  101.16778 (Kcal/Mol)
 Warning -- explicit consideration of   8 degrees of freedom as
           vibrations may cause significant error
 Vibrational temperatures:    231.28   288.87   294.09   382.28   431.69
          (Kelvin)            577.33   714.26   798.31   908.53  1050.93
                             1111.57  1160.01  1217.71  1229.68  1285.90
                             1335.41  1374.64  1393.66  1432.47  1454.14
                             1471.30  1512.74  1561.40  1601.31  1616.62
                             1623.31  1737.83  1764.52  1786.67  1815.66
                             1843.06  1868.25  1924.34  1950.82  1987.47
                             2040.60  2059.01  2145.50  2156.09  2158.04
                             2183.59  4298.19  4332.18  4352.06  4398.21
                             4439.95  4455.19  4457.94  4471.07  4540.66
                             4592.74

 Zero-point correction=                           0.161221 (Hartree/Particle)
 Thermal correction to Energy=                    0.168499
 Thermal correction to Enthalpy=                  0.169443
 Thermal correction to Gibbs Free Energy=         0.129832
 Sum of electronic and zero-point Energies=           -423.019311
 Sum of electronic and thermal Energies=              -423.012034
 Sum of electronic and thermal Enthalpies=            -423.011090
 Sum of electronic and thermal Free Energies=         -423.050700

                     E (Thermal)             CV                S
                      KCal/Mol        Cal/Mol-Kelvin    Cal/Mol-Kelvin
 Total                  105.734             29.225             83.367
 Electronic               0.000              0.000              0.000
 Translational            0.889              2.981             40.409
 Rotational               0.889              2.981             28.141
 Vibrational            103.957             23.263             14.818
 Vibration     1          0.622              1.890              2.541
 Vibration     2          0.638              1.839              2.126
 Vibration     3          0.640              1.834              2.093
 Vibration     4          0.672              1.736              1.624
 Vibration     5          0.693              1.674              1.417
 Vibration     6          0.767              1.467              0.958
 Vibration     7          0.852              1.258              0.667
 Vibration     8          0.910              1.129              0.534

 Normal termination of Gaussian 09 at Mon Jan 27 19:44:48 2020.
