 Gaussian 09, Revision D.01,
 Gaussian 09:  ES64L-G09RevD.01 24-Apr-2013

 -----------------------------
 # b3lyp 6-31G(2df,p) opt Freq
 -----------------------------

 -----
 titel
 -----
 Symbolic Z-matrix:
 Charge =  0 Multiplicity = 1

 SCF Done:  E(RB3LYP) =  -423.136868511     A.U. after   13 cycles
 Optimization completed.
    -- Stationary point found.
 Normal termination of Gaussian 09 at Mon Jan 27 22:59:24 2020.

 ----------------------------------------------------------------------
 #N Geom=AllCheck Guess=TCheck SCRF=Check GenChk RB3LYP/6-31G(2df,p) Fr
 eq
 ----------------------------------------------------------------------

 Structure from the checkpoint file:  "/scratch/puck/g09_2ee00c80-9740-423d-99f8-b34d564eb510/Gau-191752.chk"
 -----
 titel
 -----
 Charge =  0 Multiplicity = 1

                         Standard orientation:
 ---------------------------------------------------------------------
 Center     Atomic      Atomic             Coordinates (Angstroms)
 Number     Number       Type             X           Y           Z
 ---------------------------------------------------------------------
      1          6           0       -1.263128    1.837319   -0.085150
      2          6           0       -0.338470    0.663440    0.050815
      3          8           0       -0.507731   -0.119541    1.316657
      4          6           0        0.234225   -1.156490    0.563628
      5          6           0        1.624595   -0.524771    0.431081
      6          6           0        2.050648    0.063476   -0.892455
      7          6           0        1.184810    0.876422    0.039338
      8          6           0       -0.580026   -0.701799   -0.672175
      9          8           0       -1.918300   -1.113600   -0.659229
     10          1           0       -2.304022    1.506343   -0.124481
     11          1           0       -1.142485    2.521910    0.760595
     12          1           0       -1.041113    2.387213   -1.005154
     13          1           0        0.137904   -2.154938    0.989919
     14          1           0        2.358581   -0.708152    1.206261
     15          1           0        3.090050    0.374006   -0.945077
     16          1           0        1.677039   -0.317157   -1.834683
     17          1           0        1.582949    1.766572    0.512849
     18          1           0       -0.211849   -0.870344   -1.683140
     19          1           0       -2.214722   -0.985901    0.252995
 ---------------------------------------------------------------------

 SCF Done:  E(RB3LYP) =  -423.136868511     A.U. after    1 cycles

 The electronic state is 1-A.
 Alpha  occ. eigenvalues --  -19.13656 -19.13285 -10.24247 -10.23726 -10.23458
 Alpha  occ. eigenvalues --  -10.19848 -10.19618 -10.19536 -10.18110  -1.05738
 Alpha  occ. eigenvalues --   -1.00369  -0.86842  -0.75886  -0.71849  -0.65577
 Alpha  occ. eigenvalues --   -0.63083  -0.56310  -0.55605  -0.50937  -0.50523
 Alpha  occ. eigenvalues --   -0.45682  -0.44850  -0.44393  -0.41673  -0.39995
 Alpha  occ. eigenvalues --   -0.38183  -0.36072  -0.35444  -0.35172  -0.32493
 Alpha  occ. eigenvalues --   -0.31175  -0.27027  -0.25377  -0.25161
 Alpha virt. eigenvalues --    0.08475   0.09157   0.09462   0.10438   0.11514
 Alpha virt. eigenvalues --    0.12977   0.14549   0.15404   0.16024   0.16106
 Alpha virt. eigenvalues --    0.17812   0.18702   0.19603   0.22630   0.23074

 Mulliken charges:
               1
     1  C   -0.507688
     2  C    0.375325
     3  O   -0.371811
     4  C    0.011443
     5  C   -0.043529
     6  C   -0.317797
     7  C   -0.078769
     8  C    0.127698
     9  O   -0.460246
    10  H    0.128979
    11  H    0.131073
    12  H    0.128168
    13  H    0.081074
    14  H    0.099366
    15  H    0.115334
    16  H    0.122853
    17  H    0.094879
    18  H    0.079358
    19  H    0.284288
 Sum of Mulliken charges =   0.00000

 Dipole moment (field-independent basis, Debye):
    X=              1.5755    Y=              0.7090    Z=             -0.2386  Tot=              1.7441
 Quadrupole moment (field-independent basis, Debye-Ang):
   XX=            -52.3938   YY=            -51.6736   ZZ=            -55.3864
   XY=             -1.5908   XZ=             -1.7175   YZ=             -1.7984

  Exact polarizability:  81.285  -1.142  73.831  -2.004  -1.492  65.710
 Approx polarizability: 111.591  -0.639 109.756  -4.580  -1.954 107.468

                      1                      2                      3
                      A                      A                      A
 Frequencies --    193.9596               216.0264               246.5551
 Red. masses --      1.0493                 3.0484                 3.0596
 Frc consts  --      0.0233                 0.0838                 0.1096
 IR Inten    --      0.2410                 1.4367                 2.7561

                      4                      5                      6
                      A                      A                      A
 Frequencies --    276.9179               374.2736               376.5449
 Red. masses --      3.7358                 2.6777                 3.1850
 Frc consts  --      0.1688                 0.2210                 0.2661
 IR Inten    --      5.0701                 1.1111                 0.5925

                      7                      8                      9
                      A                      A                      A
 Frequencies --    415.5181               555.6463               573.3394
 Red. masses --      3.4638                 2.5236                 1.3070
 Frc consts  --      0.3524                 0.4591                 0.2531
 IR Inten    --      7.2821                19.9955                64.2707

                     10                     11                     12
                      A                      A                      A
 Frequencies --    615.6108               636.7830               655.2652
 Red. masses --      5.3996                 4.0209                 4.0356
 Frc consts  --      1.2057                 0.9606                 1.0209
 IR Inten    --      4.7297                 2.4526                 0.9366

                     13                     14                     15
                      A                      A                      A
 Frequencies --    780.5975               808.6592               813.8836
 Red. masses --      3.1518                 1.5929                 1.7552
 Frc consts  --      1.1315                 0.6137                 0.6850
 IR Inten    --     47.5045                 3.8909                 5.5452

                     16                     17                     18
                      A                      A                      A
 Frequencies --    854.3019               870.6871               903.8004
 Red. masses --      3.2539                 2.0871                 3.0207
 Frc consts  --      1.3992                 0.9322                 1.4538
 IR Inten    --     26.7190                 6.7009                15.9487

                     19                     20                     21
                      A                      A                      A
 Frequencies --    934.3605               952.3973               989.3453
 Red. masses --      2.9115                 3.5120                 1.9750
 Frc consts  --      1.4976                 1.8769                 1.1390
 IR Inten    --     15.5937                33.5031                14.9239

                     22                     23                     24
                      A                      A                      A
 Frequencies --   1026.0053              1036.9992              1083.8035
 Red. masses --      1.3741                 1.3405                 1.3581
 Frc consts  --      0.8522                 0.8493                 0.9399
 IR Inten    --      0.4311                10.8960                 2.2480

                     25                     26                     27
                      A                      A                      A
 Frequencies --   1101.3319              1109.4471              1139.5711
 Red. masses --      1.2624                 2.0105                 3.2208
 Frc consts  --      0.9022                 1.4580                 2.4643
 IR Inten    --      2.3591                 6.3598               110.3862

                     28                     29                     30
                      A                      A                      A
 Frequencies --   1184.9969              1193.5283              1216.5438
 Red. masses --      1.6353                 1.7488                 2.1286
 Frc consts  --      1.3529                 1.4677                 1.8561
 IR Inten    --      2.1772                 1.9312                 8.6714

                     31                     32                     33
                      A                      A                      A
 Frequencies --   1236.0814              1240.5520              1275.1882
 Red. masses --      1.7539                 1.6790                 1.7186
 Frc consts  --      1.5789                 1.5224                 1.6465
 IR Inten    --     11.8023                19.1563                 3.1130

                     34                     35                     36
                      A                      A                      A
 Frequencies --   1311.2467              1329.1085              1380.5983
 Red. masses --      1.7093                 1.6829                 1.7640
 Frc consts  --      1.7315                 1.7516                 1.9810
 IR Inten    --     23.4317                10.5674                 2.1133

                     37                     38                     39
                      A                      A                      A
 Frequencies --   1415.5327              1459.6649              1481.7217
 Red. masses --      1.6372                 1.3721                 1.0609
 Frc consts  --      1.9328                 1.7224                 1.3723
 IR Inten    --     14.4049                45.4415                 7.6117

                     40                     41                     42
                      A                      A                      A
 Frequencies --   1490.1633              1506.8022              3040.7212
 Red. masses --      1.0602                 1.1661                 1.0352
 Frc consts  --      1.3871                 1.5599                 5.6395
 IR Inten    --      8.3192                10.4640                15.4504

                     43                     44                     45
                      A                      A                      A
 Frequencies --   3110.0007              3117.8454              3122.1136
 Red. masses --      1.1008                 1.0826                 1.1010
 Frc consts  --      6.2731                 6.2004                 6.3232
 IR Inten    --     11.1420                18.1187                13.2404

                     46                     47                     48
                      A                      A                      A
 Frequencies --   3127.1260              3137.3238              3173.3838
 Red. masses --      1.0897                 1.0621                 1.0900
 Frc consts  --      6.2783                 6.1594                 6.4675
 IR Inten    --     31.9312                33.8943                13.2543

                     49                     50                     51
                      A                      A                      A
 Frequencies --   3186.1036              3216.4362              3749.4538
 Red. masses --      1.0945                 1.1116                 1.0638
 Frc consts  --      6.5461                 6.7756                 8.8113
 IR Inten    --     11.6177                14.2954                24.1946

 - Thermochemistry -
 -------------------
 Temperature   298.150 Kelvin.  Pressure   1.00000 Atm.
 Atom     1 has atomic number  6 and mass  12.00000

 Molecular mass:   126.06808 amu.
 Principal axes and moments of inertia in atomic units:
                           1         2         3
     Eigenvalues --   686.089581028.781771234.16718
           X            0.99859  -0.05171  -0.01203
           Y            0.05143   0.99843  -0.02225
           Z            0.01316   0.02160   0.99968
 This molecule is an asymmetric top.
 Rotational symmetry number  1.
 Warning -- assumption of classical behavior for rotation
           may cause significant error
 Rotational temperatures (Kelvin)      0.12624     0.08419     0.07018
 Rotational constants (GHZ):           2.63047     1.75425     1.46232
 Zero-point vibrational energy     420151.6 (Joules/Mol)
                                  100.41865 (Kcal/Mol)
 Warning -- explicit consideration of  10 degrees of freedom as
           vibrations may cause significant error
 Vibrational temperatures:    279.06   310.81   354.74   398.42   538.50
          (Kelvin)            541.76   597.84   799.45   824.91   885.73
                              916.19   942.78  1123.10  1163.48  1171.00
                             1229.15  1252.72  1300.37  1344.33  1370.29
                             1423.45  1476.19  1492.01  1559.35  1584.57
                             1596.24  1639.59  1704.94  1717.22  1750.33
                             1778.44  1784.88  1834.71  1886.59  1912.29
                             1986.37  2036.63  2100.13  2131.86  2144.01
                             2167.95  4374.91  4474.59  4485.88  4492.02
                             4499.23  4513.90  4565.79  4584.09  4627.73
                             5394.62

 Zero-point correction=                           0.160027 (Hartree/Particle)
 Thermal correction to Energy=                    0.167508
 Thermal correction to Enthalpy=                  0.168453
 Thermal correction to Gibbs Free Energy=         0.128746
 Sum of electronic and zero-point Energies=           -422.976841
 Sum of electronic and thermal Energies=              -422.969360
 Sum of electronic and thermal Enthalpies=            -422.968416
 Sum of electronic and thermal Free Energies=         -423.008123

                     E (Thermal)             CV                S
                      KCal/Mol        Cal/Mol-Kelvin    Cal/Mol-Kelvin
 Total                  105.113             31.236             83.570
 Electronic               0.000              0.000              0.000
 Translational            0.889              2.981             40.409
 Rotational               0.889              2.981             28.257
 Vibrational            103.336             25.274             14.905
 Vibration     1          0.635              1.848              2.190
 Vibration     2          0.645              1.817              1.992
 Vibration     3          0.661              1.768              1.755
 Vibration     4          0.678              1.716              1.553
 Vibration     5          0.745              1.525              1.062
 Vibration     6          0.747              1.520              1.053
 Vibration     7          0.779              1.437              0.907
 Vibration     8          0.911              1.127              0.533
 Vibration     9          0.930              1.089              0.498
 Vibration    10          0.975              0.999              0.424

 Optimization completed.
    -- Stationary point found.
 Normal termination of Gaussian 09 at Mon Jan 27 23:45:57 2020.
