 Gaussian 09, Revision D.01,
 Gaussian 09:  ES64L-G09RevD.01 24-Apr-2013

 -----------------------------
 # b3lyp 6-31G(2df,p) opt Freq
 -----------------------------

 -----
 titel
 -----
 Symbolic Z-matrix:
 Charge =  0 Multiplicity = 1

 SCF Done:  E(RB3LYP) =  -423.124925138     A.U. after   14 cycles
 Optimization completed.
    -- Stationary point found.
 Normal termination of Gaussian 09 at Tue Jan 28 13:25:53 2020.

 ----------------------------------------------------------------------
 #N Geom=AllCheck Guess=TCheck SCRF=Check GenChk RB3LYP/6-31G(2df,p) Fr
 eq
 ----------------------------------------------------------------------

 Structure from the checkpoint file:  "/scratch/puck/g09_bb96df88-e367-42a0-9348-4773c43bfe7f/Gau-118413.chk"
 -----
 titel
 -----
 Charge =  0 Multiplicity = 1

                         Standard orientation:
 ---------------------------------------------------------------------
 Center     Atomic      Atomic             Coordinates (Angstroms)
 Number     Number       Type             X           Y           Z
 ---------------------------------------------------------------------
      1          6           0        2.738723   -1.001101   -0.384757
      2          6           0        1.665640    0.047172   -0.692084
      3          6           0        0.930015    0.491309    0.561440
      4          8           0        0.213106   -0.597841    1.205248
      5          6           0       -1.080074   -0.013465    0.910089
      6          6           0       -1.874776   -0.791348   -0.025143
      7          6           0       -2.544981   -1.448731   -0.775246
      8          6           0       -0.398274    1.273010    0.362713
      9          8           0       -0.790733    1.624047   -0.935030
     10          1           0        3.232059   -1.339823   -1.300464
     11          1           0        3.509698   -0.600431    0.283198
     12          1           0        2.289876   -1.870183    0.104006
     13          1           0        2.118297    0.932594   -1.158891
     14          1           0        0.937939   -0.347278   -1.407888
     15          1           0        1.627115    0.952605    1.274703
     16          1           0       -1.650494    0.145392    1.833696
     17          1           0       -3.132102   -2.025446   -1.446452
     18          1           0       -0.505861    2.113809    1.058064
     19          1           0       -0.423152    2.488028   -1.143786
 ---------------------------------------------------------------------

 SCF Done:  E(RB3LYP) =  -423.124925138     A.U. after    1 cycles

 The electronic state is 1-A.
 Alpha  occ. eigenvalues --  -19.15304 -19.13590 -10.25438 -10.24623 -10.22971
 Alpha  occ. eigenvalues --  -10.17882 -10.17780 -10.17473 -10.16895  -1.05157
 Alpha  occ. eigenvalues --   -1.02468  -0.78031  -0.76335  -0.72302  -0.68424
 Alpha  occ. eigenvalues --   -0.62087  -0.56361  -0.54528  -0.51268  -0.50530
 Alpha  occ. eigenvalues --   -0.46667  -0.46198  -0.43257  -0.41818  -0.39596
 Alpha  occ. eigenvalues --   -0.36859  -0.35496  -0.34415  -0.33504  -0.31854
 Alpha  occ. eigenvalues --   -0.28225  -0.26922  -0.26009  -0.25164
 Alpha virt. eigenvalues --    0.02438   0.04454   0.07203   0.10925   0.10955
 Alpha virt. eigenvalues --    0.12806   0.13532   0.14805   0.16028   0.16757
 Alpha virt. eigenvalues --    0.17323   0.18391   0.19005   0.19826   0.20541

 Mulliken charges:
               1
     1  C   -0.386595
     2  C   -0.180087
     3  C    0.099818
     4  O   -0.293607
     5  C   -0.109440
     6  C    0.388815
     7  C   -0.468115
     8  C    0.040987
     9  O   -0.407572
    10  H    0.111227
    11  H    0.109096
    12  H    0.139477
    13  H    0.083792
    14  H    0.122027
    15  H    0.068861
    16  H    0.105982
    17  H    0.200131
    18  H    0.083207
    19  H    0.291996
 Sum of Mulliken charges =   0.00000

 Dipole moment (field-independent basis, Debye):
    X=              0.4807    Y=              2.4324    Z=             -0.3579  Tot=              2.5051
 Quadrupole moment (field-independent basis, Debye-Ang):
   XX=            -52.0124   YY=            -47.3530   ZZ=            -52.9645
   XY=              3.1614   XZ=             -0.5350   YZ=              2.9525

  Exact polarizability:  87.970   9.118  74.277   6.021   7.632  70.338
 Approx polarizability: 115.467  17.995 108.924  16.786  13.980 111.116

                      1                      2                      3
                      A                      A                      A
 Frequencies --     34.5417                94.2307               141.0991
 Red. masses --      4.2924                 1.9769                 4.7646
 Frc consts  --      0.0030                 0.0103                 0.0559
 IR Inten    --      0.4224                 0.1202                 2.0509

                      4                      5                      6
                      A                      A                      A
 Frequencies --    164.9454               193.7784               212.7126
 Red. masses --      2.7375                 1.5300                 1.5314
 Frc consts  --      0.0439                 0.0339                 0.0408
 IR Inten    --      6.8302                98.1936                 4.8477

                      7                      8                      9
                      A                      A                      A
 Frequencies --    235.1978               287.3256               350.4348
 Red. masses --      1.8070                 3.1985                 4.8965
 Frc consts  --      0.0589                 0.1556                 0.3543
 IR Inten    --     10.1238                 2.4111                 4.4023

                     10                     11                     12
                      A                      A                      A
 Frequencies --    448.7159               507.1888               567.6749
 Red. masses --      2.5971                 6.7901                 6.4919
 Frc consts  --      0.3081                 1.0291                 1.2326
 IR Inten    --      1.7436                 2.1027                 4.3777

                     13                     14                     15
                      A                      A                      A
 Frequencies --    591.5777               624.6905               671.8426
 Red. masses --      4.8970                 1.2333                 1.2525
 Frc consts  --      1.0097                 0.2836                 0.3331
 IR Inten    --      8.3033                46.6255                35.2892

                     16                     17                     18
                      A                      A                      A
 Frequencies --    764.8550               792.0200               829.3177
 Red. masses --      1.4402                 3.1686                 2.0909
 Frc consts  --      0.4964                 1.1711                 0.8473
 IR Inten    --      0.2784                 2.5917                 1.9604

                     19                     20                     21
                      A                      A                      A
 Frequencies --    899.5483               925.8460               972.8282
 Red. masses --      2.9113                 2.8252                 2.3506
 Frc consts  --      1.3880                 1.4269                 1.3107
 IR Inten    --     24.7153                26.3818                68.3320

                     22                     23                     24
                      A                      A                      A
 Frequencies --    993.4202              1050.0449              1061.4853
 Red. masses --      3.4435                 2.5315                 2.5895
 Frc consts  --      2.0022                 1.6445                 1.7191
 IR Inten    --     50.5865                58.3921                 7.9632

                     25                     26                     27
                      A                      A                      A
 Frequencies --   1107.1454              1153.6562              1178.8997
 Red. masses --      1.9436                 2.3295                 2.5931
 Frc consts  --      1.4037                 1.8267                 2.1234
 IR Inten    --      5.4484                 0.9866                94.5112

                     28                     29                     30
                      A                      A                      A
 Frequencies --   1198.4626              1251.5508              1277.2433
 Red. masses --      1.5069                 1.2366                 1.2621
 Frc consts  --      1.2752                 1.1413                 1.2131
 IR Inten    --      4.3102                 7.0305                11.8774

                     31                     32                     33
                      A                      A                      A
 Frequencies --   1285.2770              1311.2465              1341.4699
 Red. masses --      1.4428                 1.3199                 1.3011
 Frc consts  --      1.4042                 1.3371                 1.3795
 IR Inten    --      1.1123                25.1374                12.9824

                     34                     35                     36
                      A                      A                      A
 Frequencies --   1357.6980              1404.7335              1410.8298
 Red. masses --      1.3842                 1.4521                 1.2908
 Frc consts  --      1.5033                 1.6882                 1.5137
 IR Inten    --     11.1393                 2.1325                 3.5236

                     37                     38                     39
                      A                      A                      A
 Frequencies --   1439.6541              1474.3647              1497.9132
 Red. masses --      1.4409                 1.0761                 1.0449
 Frc consts  --      1.7596                 1.3782                 1.3814
 IR Inten    --      8.8556                 1.4438                 4.2488

                     40                     41                     42
                      A                      A                      A
 Frequencies --   1509.7753              2236.3033              3003.6792
 Red. masses --      1.0585                 5.9201                 1.0846
 Frc consts  --      1.4216                17.4438                 5.7653
 IR Inten    --      4.3998                 3.4935                33.4169

                     43                     44                     45
                      A                      A                      A
 Frequencies --   3019.9801              3022.1744              3035.1117
 Red. masses --      1.0837                 1.0672                 1.0407
 Frc consts  --      5.8235                 5.7432                 5.6486
 IR Inten    --     13.9787                32.5894                41.2336

                     46                     47                     48
                      A                      A                      A
 Frequencies --   3038.1007              3083.1901              3104.6509
 Red. masses --      1.0834                 1.0939                 1.0994
 Frc consts  --      5.8919                 6.1269                 6.2434
 IR Inten    --     73.5916                 6.2981                40.8021

                     49                     50                     51
                      A                      A                      A
 Frequencies --   3121.1347              3503.3960              3830.8479
 Red. masses --      1.1016                 1.1625                 1.0664
 Frc consts  --      6.3229                 8.4063                 9.2208
 IR Inten    --     22.8132                58.9475                33.4518

 - Thermochemistry -
 -------------------
 Temperature   298.150 Kelvin.  Pressure   1.00000 Atm.
 Atom     1 has atomic number  6 and mass  12.00000

 Molecular mass:   126.06808 amu.
 Principal axes and moments of inertia in atomic units:
                           1         2         3
     Eigenvalues --   783.374921466.756191667.73071
           X            0.99975  -0.01677  -0.01447
           Y            0.01789   0.99650   0.08163
           Z            0.01305  -0.08187   0.99656
 This molecule is an asymmetric top.
 Rotational symmetry number  1.
 Warning -- assumption of classical behavior for rotation
           may cause significant error
 Rotational temperatures (Kelvin)      0.11056     0.05905     0.05194
 Rotational constants (GHZ):           2.30380     1.23043     1.08215
 Zero-point vibrational energy     410401.7 (Joules/Mol)
                                   98.08837 (Kcal/Mol)
 Warning -- explicit consideration of  13 degrees of freedom as
           vibrations may cause significant error
 Vibrational temperatures:     49.70   135.58   203.01   237.32   278.80
          (Kelvin)            306.05   338.40   413.40   504.20   645.60
                              729.73   816.76   851.15   898.79   966.63
                             1100.45  1139.54  1193.20  1294.25  1332.08
                             1399.68  1429.31  1510.78  1527.24  1592.93
                             1659.85  1696.17  1724.32  1800.70  1837.67
                             1849.22  1886.59  1930.07  1953.42  2021.10
                             2029.87  2071.34  2121.28  2155.16  2172.23
                             3217.54  4321.62  4345.07  4348.23  4366.84
                             4371.14  4436.02  4466.89  4490.61  5040.60
                             5511.73

 Zero-point correction=                           0.156314 (Hartree/Particle)
 Thermal correction to Energy=                    0.166215
 Thermal correction to Enthalpy=                  0.167159
 Thermal correction to Gibbs Free Energy=         0.120873
 Sum of electronic and zero-point Energies=           -422.968611
 Sum of electronic and thermal Energies=              -422.958710
 Sum of electronic and thermal Enthalpies=            -422.957766
 Sum of electronic and thermal Free Energies=         -423.004052

                     E (Thermal)             CV                S
                      KCal/Mol        Cal/Mol-Kelvin    Cal/Mol-Kelvin
 Total                  104.301             35.766             97.417
 Electronic               0.000              0.000              0.000
 Translational            0.889              2.981             40.409
 Rotational               0.889              2.981             29.040
 Vibrational            102.524             29.805             27.969
 Vibration     1          0.594              1.983              5.550
 Vibration     2          0.603              1.953              3.570
 Vibration     3          0.615              1.912              2.789
 Vibration     4          0.623              1.886              2.492
 Vibration     5          0.635              1.849              2.191
 Vibration     6          0.644              1.822              2.020
 Vibration     7          0.655              1.787              1.839
 Vibration     8          0.684              1.697              1.490
 Vibration     9          0.727              1.574              1.164
 Vibration    10          0.808              1.364              0.800
 Vibration    11          0.862              1.234              0.640
 Vibration    12          0.924              1.101              0.509
 Vibration    13          0.949              1.050              0.464

 Optimization completed.
    -- Stationary point found.
 Normal termination of Gaussian 09 at Tue Jan 28 14:05:24 2020.
