 Gaussian 09, Revision D.01,
 Gaussian 09:  ES64L-G09RevD.01 24-Apr-2013

 -----------------------------
 # b3lyp 6-31G(2df,p) opt Freq
 -----------------------------

 -----
 titel
 -----
 Symbolic Z-matrix:
 Charge =  0 Multiplicity = 1

 SCF Done:  E(RB3LYP) =  -423.167225666     A.U. after   15 cycles
 Optimization completed.
    -- Stationary point found.
 Normal termination of Gaussian 09 at Mon Jan 27 15:28:44 2020.

 ----------------------------------------------------------------------
 #N Geom=AllCheck Guess=TCheck SCRF=Check GenChk RB3LYP/6-31G(2df,p) Fr
 eq
 ----------------------------------------------------------------------

 Structure from the checkpoint file:  "/scratch/puck/g09_4e1d9f0b-d39a-46eb-b253-febbc45388df/Gau-44353.chk"
 -----
 titel
 -----
 Charge =  0 Multiplicity = 1

                         Standard orientation:
 ---------------------------------------------------------------------
 Center     Atomic      Atomic             Coordinates (Angstroms)
 Number     Number       Type             X           Y           Z
 ---------------------------------------------------------------------
      1          6           0       -2.718905   -0.173495    0.219507
      2          6           0       -1.410361    0.447846   -0.267605
      3          8           0       -1.116166    1.547421    0.571891
      4          6           0       -0.303081   -0.623650   -0.296401
      5          8           0       -0.442610   -1.643816   -0.922998
      6          6           0        0.986612   -0.341242    0.515169
      7          6           0        1.901566   -1.572693    0.564263
      8          6           0        1.654155    0.826647   -0.059766
      9          6           0        2.184378    1.779665   -0.569999
     10          1           0       -2.625955   -0.476801    1.266970
     11          1           0       -3.525193    0.559751    0.145771
     12          1           0       -2.963399   -1.049279   -0.383888
     13          1           0       -1.541130    0.768246   -1.313826
     14          1           0       -0.342693    2.003075    0.217784
     15          1           0        0.655380   -0.067785    1.526073
     16          1           0        2.798373   -1.354836    1.148714
     17          1           0        1.372983   -2.412772    1.020522
     18          1           0        2.197878   -1.869850   -0.443332
     19          1           0        2.677776    2.612941   -1.006942
 ---------------------------------------------------------------------

 SCF Done:  E(RB3LYP) =  -423.167225666     A.U. after    1 cycles

 The electronic state is 1-A.
 Alpha  occ. eigenvalues --  -19.14285 -19.14205 -10.27654 -10.24516 -10.22676
 Alpha  occ. eigenvalues --  -10.20287 -10.19166 -10.18625 -10.18131  -1.05544
 Alpha  occ. eigenvalues --   -1.02647  -0.82261  -0.76464  -0.74133  -0.67745
 Alpha  occ. eigenvalues --   -0.62946  -0.56101  -0.54135  -0.51921  -0.49727
 Alpha  occ. eigenvalues --   -0.47879  -0.45180  -0.42304  -0.40110  -0.38811
 Alpha  occ. eigenvalues --   -0.38590  -0.38282  -0.37361  -0.36723  -0.34192
 Alpha  occ. eigenvalues --   -0.30517  -0.29207  -0.28315  -0.23881
 Alpha virt. eigenvalues --   -0.02736   0.03558   0.04952   0.08282   0.11038
 Alpha virt. eigenvalues --    0.12008   0.13018   0.14033   0.15377   0.16064
 Alpha virt. eigenvalues --    0.17543   0.17904   0.18352   0.19932   0.21168

 Mulliken charges:
               1
     1  C   -0.377180
     2  C    0.031730
     3  O   -0.429256
     4  C    0.346296
     5  O   -0.303395
     6  C   -0.229224
     7  C   -0.392180
     8  C    0.300785
     9  C   -0.477946
    10  H    0.124378
    11  H    0.127316
    12  H    0.141487
    13  H    0.104164
    14  H    0.291048
    15  H    0.137614
    16  H    0.122913
    17  H    0.129496
    18  H    0.143145
    19  H    0.208809
 Sum of Mulliken charges =   0.00000

 Dipole moment (field-independent basis, Debye):
    X=              0.8944    Y=              1.2628    Z=              0.2859  Tot=              1.5736
 Quadrupole moment (field-independent basis, Debye-Ang):
   XX=            -51.0146   YY=            -54.0804   ZZ=            -53.9125
   XY=              2.5377   XZ=              0.2576   YZ=             -6.3950

  Exact polarizability:  86.733   8.047  85.301  -2.129  -5.252  62.043
 Approx polarizability: 110.402  18.377 134.527  -6.366  -6.709 100.660

                      1                      2                      3
                      A                      A                      A
 Frequencies --     35.7991                75.9721               135.1777
 Red. masses --      3.8894                 4.3519                 4.6970
 Frc consts  --      0.0029                 0.0148                 0.0506
 IR Inten    --      2.6070                 0.9665                 0.7968

                      4                      5                      6
                      A                      A                      A
 Frequencies --    190.8834               194.7911               221.8679
 Red. masses --      1.4961                 1.6401                 2.7703
 Frc consts  --      0.0321                 0.0367                 0.0803
 IR Inten    --      0.6031                 1.1100                 0.9360

                      7                      8                      9
                      A                      A                      A
 Frequencies --    225.2698               284.4849               301.7114
 Red. masses --      1.2438                 3.0534                 4.3862
 Frc consts  --      0.0372                 0.1456                 0.2352
 IR Inten    --      0.1620                 2.3690                15.3051

                     10                     11                     12
                      A                      A                      A
 Frequencies --    401.8191               413.1504               468.7515
 Red. masses --      3.6858                 5.5267                 1.0947
 Frc consts  --      0.3506                 0.5558                 0.1417
 IR Inten    --      2.3443                 5.8127               110.1044

                     13                     14                     15
                      A                      A                      A
 Frequencies --    504.8347               526.4172               584.2687
 Red. masses --      4.1373                 4.5179                 4.6264
 Frc consts  --      0.6213                 0.7376                 0.9305
 IR Inten    --     47.4840                 4.4069                 0.3584

                     16                     17                     18
                      A                      A                      A
 Frequencies --    619.3084               652.0095               688.0191
 Red. masses --      1.2389                 1.2091                 3.6738
 Frc consts  --      0.2800                 0.3028                 1.0246
 IR Inten    --     45.1251                54.5677                 2.3253

                     19                     20                     21
                      A                      A                      A
 Frequencies --    767.2097               866.2875               909.0600
 Red. masses --      3.2226                 2.3306                 2.0997
 Frc consts  --      1.1176                 1.0305                 1.0223
 IR Inten    --      4.5343                 1.4520                 3.7250

                     22                     23                     24
                      A                      A                      A
 Frequencies --    997.1946              1009.1003              1067.5337
 Red. masses --      1.4672                 2.0740                 2.1925
 Frc consts  --      0.8596                 1.2443                 1.4722
 IR Inten    --     17.3180                39.4857                34.6513

                     25                     26                     27
                      A                      A                      A
 Frequencies --   1092.2411              1115.4293              1138.7568
 Red. masses --      2.2314                 1.5696                 3.0633
 Frc consts  --      1.5684                 1.1506                 2.3404
 IR Inten    --      3.0617                 2.5048                39.4745

                     28                     29                     30
                      A                      A                      A
 Frequencies --   1182.0336              1270.1992              1284.2945
 Red. masses --      2.4453                 1.4956                 1.2220
 Frc consts  --      2.0130                 1.4217                 1.1875
 IR Inten    --     37.2454                19.4299                35.3392

                     31                     32                     33
                      A                      A                      A
 Frequencies --   1310.9961              1336.6985              1391.7909
 Red. masses --      1.4988                 1.4376                 1.2249
 Frc consts  --      1.5177                 1.5134                 1.3980
 IR Inten    --      9.0219                26.3163                 8.0705

                     34                     35                     36
                      A                      A                      A
 Frequencies --   1409.9419              1410.7769              1486.1090
 Red. masses --      1.2186                 1.4027                 1.0483
 Frc consts  --      1.4273                 1.6449                 1.3640
 IR Inten    --      6.0447                10.7311                 6.1009

                     37                     38                     39
                      A                      A                      A
 Frequencies --   1486.9873              1491.2281              1498.4955
 Red. masses --      1.0409                 1.0478                 1.0525
 Frc consts  --      1.3561                 1.3728                 1.3924
 IR Inten    --      6.9362                 4.2723                 1.1346

                     40                     41                     42
                      A                      A                      A
 Frequencies --   1816.8720              2219.5212              2976.3245
 Red. masses --     12.2397                 5.9599                 1.0816
 Frc consts  --     23.8050                17.2986                 5.6451
 IR Inten    --    131.3281                 3.1571                25.1864

                     43                     44                     45
                      A                      A                      A
 Frequencies --   3027.3762              3050.6442              3058.8348
 Red. masses --      1.0803                 1.0355                 1.0342
 Frc consts  --      5.8336                 5.6781                 5.7010
 IR Inten    --      2.7142                16.1175                16.5956

                     46                     47                     48
                      A                      A                      A
 Frequencies --   3123.8214              3135.4078              3144.1464
 Red. masses --      1.1008                 1.1032                 1.1023
 Frc consts  --      6.3291                 6.3899                 6.4201
 IR Inten    --     18.2591                14.0902                10.1865

                     49                     50                     51
                      A                      A                      A
 Frequencies --   3149.9861              3498.8409              3777.0096
 Red. masses --      1.1025                 1.1605                 1.0660
 Frc consts  --      6.4453                 8.3706                 8.9597
 IR Inten    --      8.2901                78.8703                65.2662

 - Thermochemistry -
 -------------------
 Temperature   298.150 Kelvin.  Pressure   1.00000 Atm.
 Atom     1 has atomic number  6 and mass  12.00000

 Molecular mass:   126.06808 amu.
 Principal axes and moments of inertia in atomic units:
                           1         2         3
     Eigenvalues --   829.663041344.982951878.34993
           X            0.99967  -0.02531   0.00450
           Y            0.02549   0.99870  -0.04415
           Z           -0.00338   0.04425   0.99901
 This molecule is an asymmetric top.
 Rotational symmetry number  1.
 Warning -- assumption of classical behavior for rotation
           may cause significant error
 Rotational temperatures (Kelvin)      0.10440     0.06440     0.04611
 Rotational constants (GHZ):           2.17527     1.34183     0.96081
 Zero-point vibrational energy     406884.0 (Joules/Mol)
                                   97.24760 (Kcal/Mol)
 Warning -- explicit consideration of  16 degrees of freedom as
           vibrations may cause significant error
 Vibrational temperatures:     51.51   109.31   194.49   274.64   280.26
          (Kelvin)            319.22   324.11   409.31   434.09   578.13
                              594.43   674.43   726.34   757.40   840.63
                              891.05   938.10   989.90  1103.84  1246.39
                             1307.93  1434.74  1451.87  1535.94  1571.49
                             1604.85  1638.42  1700.68  1827.53  1847.81
                             1886.23  1923.21  2002.47  2028.59  2029.79
                             2138.18  2139.44  2145.54  2156.00  2614.07
                             3193.39  4282.26  4355.71  4389.19  4400.98
                             4494.48  4511.15  4523.72  4532.12  5034.05
                             5434.27

 Zero-point correction=                           0.154974 (Hartree/Particle)
 Thermal correction to Energy=                    0.165502
 Thermal correction to Enthalpy=                  0.166447
 Thermal correction to Gibbs Free Energy=         0.119069
 Sum of electronic and zero-point Energies=           -423.012252
 Sum of electronic and thermal Energies=              -423.001723
 Sum of electronic and thermal Enthalpies=            -423.000779
 Sum of electronic and thermal Free Energies=         -423.048157

                     E (Thermal)             CV                S
                      KCal/Mol        Cal/Mol-Kelvin    Cal/Mol-Kelvin
 Total                  103.854             38.064             99.715
 Electronic               0.000              0.000              0.000
 Translational            0.889              2.981             40.409
 Rotational               0.889              2.981             29.129
 Vibrational            102.077             32.102             30.177
 Vibration     1          0.594              1.982              5.479
 Vibration     2          0.599              1.965              3.992
 Vibration     3          0.613              1.918              2.871
 Vibration     4          0.634              1.852              2.219
 Vibration     5          0.635              1.847              2.182
 Vibration     6          0.648              1.808              1.944
 Vibration     7          0.650              1.803              1.916
 Vibration     8          0.683              1.702              1.507
 Vibration     9          0.694              1.670              1.407
 Vibration    10          0.767              1.466              0.956
 Vibration    11          0.777              1.442              0.916
 Vibration    12          0.826              1.319              0.741
 Vibration    13          0.860              1.239              0.646
 Vibration    14          0.881              1.192              0.595
 Vibration    15          0.941              1.065              0.478
 Vibration    16          0.979              0.991              0.418

 Optimization completed.
    -- Stationary point found.
 Normal termination of Gaussian 09 at Mon Jan 27 16:08:08 2020.
