 Gaussian 09, Revision D.01,
 Gaussian 09:  ES64L-G09RevD.01 24-Apr-2013

 -----------------------------
 # b3lyp 6-31G(2df,p) opt Freq
 -----------------------------

 -----
 titel
 -----
 Symbolic Z-matrix:
 Charge =  0 Multiplicity = 1

 SCF Done:  E(RB3LYP) =  -423.168292254     A.U. after   13 cycles
 Optimization completed.
    -- Stationary point found.
 Normal termination of Gaussian 09 at Mon Jan 27 16:37:33 2020.

 ----------------------------------------------------------------------
 #N Geom=AllCheck Guess=TCheck SCRF=Check GenChk RB3LYP/6-31G(2df,p) Fr
 eq
 ----------------------------------------------------------------------

 Structure from the checkpoint file:  "/scratch/puck/g09_fe80eb75-ca3c-45be-b9a4-07aec2d09965/Gau-12465.chk"
 -----
 titel
 -----
 Charge =  0 Multiplicity = 1

                         Standard orientation:
 ---------------------------------------------------------------------
 Center     Atomic      Atomic             Coordinates (Angstroms)
 Number     Number       Type             X           Y           Z
 ---------------------------------------------------------------------
      1          8           0        0.939500   -0.365386    1.488693
      2          6           0        1.116788   -0.034302    0.142449
      3          6           0        2.292386    0.838316   -0.160748
      4          6           0        2.304726   -0.618768   -0.583318
      5          6           0       -0.189287    0.162310   -0.602494
      6          8           0       -0.973044   -1.033920   -0.442838
      7          6           0       -2.312358   -0.700064   -0.076612
      8          6           0       -2.277606    0.772832    0.221389
      9          6           0       -1.078977    1.258274   -0.073585
     10          1           0        0.341466   -1.123859    1.486224
     11          1           0        2.195795    1.601599   -0.926080
     12          1           0        2.908850    1.119512    0.685147
     13          1           0        2.211877   -0.854105   -1.638268
     14          1           0        2.932884   -1.293380   -0.013662
     15          1           0        0.037470    0.318910   -1.671293
     16          1           0       -3.004436   -0.939095   -0.901024
     17          1           0       -2.614621   -1.310166    0.786535
     18          1           0       -3.129811    1.320286    0.603242
     19          1           0       -0.745153    2.283162    0.019846
 ---------------------------------------------------------------------

 SCF Done:  E(RB3LYP) =  -423.168292254     A.U. after    1 cycles

 The electronic state is 1-A.
 Alpha  occ. eigenvalues --  -19.14229 -19.13244 -10.23662 -10.23480 -10.23334
 Alpha  occ. eigenvalues --  -10.18945 -10.18691 -10.18289 -10.17819  -1.04313
 Alpha  occ. eigenvalues --   -1.01532  -0.84402  -0.78918  -0.74197  -0.62280
 Alpha  occ. eigenvalues --   -0.60389  -0.56988  -0.56078  -0.52107  -0.49436
 Alpha  occ. eigenvalues --   -0.48589  -0.45558  -0.43713  -0.41793  -0.40734
 Alpha  occ. eigenvalues --   -0.38193  -0.36665  -0.35670  -0.33085  -0.32191
 Alpha  occ. eigenvalues --   -0.29351  -0.27716  -0.24768  -0.23776
 Alpha virt. eigenvalues --    0.01434   0.08590   0.10573   0.11214   0.11784
 Alpha virt. eigenvalues --    0.13376   0.14071   0.15044   0.16308   0.17023
 Alpha virt. eigenvalues --    0.17658   0.17805   0.20639   0.21984   0.22948

 Mulliken charges:
               1
     1  O   -0.476925
     2  C    0.438588
     3  C   -0.316233
     4  C   -0.327632
     5  C    0.011539
     6  O   -0.293180
     7  C   -0.123360
     8  C   -0.104009
     9  C   -0.071329
    10  H    0.283227
    11  H    0.110165
    12  H    0.126090
    13  H    0.111658
    14  H    0.117918
    15  H    0.078110
    16  H    0.106000
    17  H    0.108727
    18  H    0.108378
    19  H    0.112265
 Sum of Mulliken charges =   0.00000

 Dipole moment (field-independent basis, Debye):
    X=             -1.2548    Y=              0.6529    Z=             -0.6905  Tot=              1.5740
 Quadrupole moment (field-independent basis, Debye-Ang):
   XX=            -49.1167   YY=            -51.5896   ZZ=            -54.8740
   XY=             -0.0185   XZ=             -2.6078   YZ=             -2.1636

  Exact polarizability:  97.538   5.518  71.880  -6.430  -0.273  62.426
 Approx polarizability: 130.221  12.658 108.670 -11.070  -1.520  96.352

                      1                      2                      3
                      A                      A                      A
 Frequencies --     70.7869               105.0430               171.9784
 Red. masses --      3.3995                 4.0623                 2.9402
 Frc consts  --      0.0100                 0.0264                 0.0512
 IR Inten    --      0.4851                 5.0121                 2.1542

                      4                      5                      6
                      A                      A                      A
 Frequencies --    237.4730               300.8962               333.3227
 Red. masses --      3.1030                 3.5088                 2.3209
 Frc consts  --      0.1031                 0.1872                 0.1519
 IR Inten    --     15.3301                 0.8072                 3.2975

                      7                      8                      9
                      A                      A                      A
 Frequencies --    386.3659               429.9089               497.5327
 Red. masses --      2.3135                 1.3548                 3.2743
 Frc consts  --      0.2035                 0.1475                 0.4775
 IR Inten    --      3.6488                97.9989                29.9350

                     10                     11                     12
                      A                      A                      A
 Frequencies --    530.2896               692.5844               760.3290
 Red. masses --      3.2910                 1.3681                 2.9282
 Frc consts  --      0.5453                 0.3866                 0.9974
 IR Inten    --      5.7072                15.7184                 5.7821

                     13                     14                     15
                      A                      A                      A
 Frequencies --    773.3119               811.6788               840.1503
 Red. masses --      1.3073                 4.8345                 3.3778
 Frc consts  --      0.4606                 1.8766                 1.4048
 IR Inten    --      2.3996                 7.6972                21.6699

                     16                     17                     18
                      A                      A                      A
 Frequencies --    888.0294               903.2029               938.5488
 Red. masses --      1.9133                 2.0187                 2.1919
 Frc consts  --      0.8890                 0.9703                 1.1376
 IR Inten    --      4.7793                12.1454                27.5291

                     19                     20                     21
                      A                      A                      A
 Frequencies --    947.1999               957.5238               962.9436
 Red. masses --      2.1161                 1.4328                 2.5728
 Frc consts  --      1.1186                 0.7740                 1.4056
 IR Inten    --     10.2921                 1.2720                 4.3871

                     22                     23                     24
                      A                      A                      A
 Frequencies --    994.7541              1044.8922              1048.1178
 Red. masses --      2.2852                 1.8987                 1.8164
 Frc consts  --      1.3323                 1.2213                 1.1756
 IR Inten    --      9.1800                 2.8345                 8.9563

                     25                     26                     27
                      A                      A                      A
 Frequencies --   1050.5467              1077.3364              1096.3877
 Red. masses --      1.5142                 1.5010                 5.3805
 Frc consts  --      0.9846                 1.0264                 3.8107
 IR Inten    --      9.0062                 3.9933               131.5993

                     28                     29                     30
                      A                      A                      A
 Frequencies --   1122.6851              1189.4220              1201.4020
 Red. masses --      1.2042                 1.2705                 1.0938
 Frc consts  --      0.8943                 1.0590                 0.9302
 IR Inten    --      4.3354                 0.1836                 1.3979

                     31                     32                     33
                      A                      A                      A
 Frequencies --   1234.7968              1292.9817              1316.3502
 Red. masses --      1.7758                 1.2558                 2.7832
 Frc consts  --      1.5952                 1.2370                 2.8414
 IR Inten    --     69.6780                 2.7364                17.0928

                     34                     35                     36
                      A                      A                      A
 Frequencies --   1334.3701              1355.0178              1380.6141
 Red. masses --      1.4562                 1.7224                 1.5436
 Frc consts  --      1.5276                 1.8633                 1.7335
 IR Inten    --     55.0882                11.2956                 3.6281

                     37                     38                     39
                      A                      A                      A
 Frequencies --   1423.3970              1452.0048              1506.0125
 Red. masses --      1.4779                 1.0916                 1.7199
 Frc consts  --      1.7641                 1.3560                 2.2984
 IR Inten    --     13.1662                 2.1336                 8.0694

                     40                     41                     42
                      A                      A                      A
 Frequencies --   1521.3380              1693.1669              2949.5110
 Red. masses --      1.0855                 6.5521                 1.0819
 Frc consts  --      1.4803                11.0670                 5.5456
 IR Inten    --      1.6440                 1.1641                60.7773

                     43                     44                     45
                      A                      A                      A
 Frequencies --   2968.1528              3010.6706              3132.2519
 Red. masses --      1.0688                 1.0925                 1.0514
 Frc consts  --      5.5480                 5.8342                 6.0775
 IR Inten    --     82.5185                45.8896                14.1298

                     46                     47                     48
                      A                      A                      A
 Frequencies --   3135.6981              3211.0789              3218.2100
 Red. masses --      1.0582                 1.0859                 1.1174
 Frc consts  --      6.1304                 6.5968                 6.8187
 IR Inten    --      7.0277                 2.9559                 0.0761

                     49                     50                     51
                      A                      A                      A
 Frequencies --   3232.4055              3236.3746              3772.1252
 Red. masses --      1.1155                 1.1065                 1.0648
 Frc consts  --      6.8672                 6.8282                 8.9266
 IR Inten    --     10.8715                 7.3087                25.2534

 - Thermochemistry -
 -------------------
 Temperature   298.150 Kelvin.  Pressure   1.00000 Atm.
 Atom     1 has atomic number  8 and mass  15.99491

 Molecular mass:   126.06808 amu.
 Principal axes and moments of inertia in atomic units:
                           1         2         3
     Eigenvalues --   503.548761515.934551597.55618
           X            0.99989   0.00341  -0.01476
           Y           -0.00397   0.99927  -0.03805
           Z            0.01462   0.03811   0.99917
 This molecule is an asymmetric top.
 Rotational symmetry number  1.
 Warning -- assumption of classical behavior for rotation
           may cause significant error
 Rotational temperatures (Kelvin)      0.17201     0.05714     0.05422
 Rotational constants (GHZ):           3.58404     1.19051     1.12969
 Zero-point vibrational energy     417144.8 (Joules/Mol)
                                   99.70001 (Kcal/Mol)
 Warning -- explicit consideration of  10 degrees of freedom as
           vibrations may cause significant error
 Vibrational temperatures:    101.85   151.13   247.44   341.67   432.92
          (Kelvin)            479.58   555.89   618.54   715.84   762.97
                              996.47  1093.94  1112.62  1167.82  1208.79
                             1277.67  1299.51  1350.36  1362.81  1377.66
                             1385.46  1431.23  1503.36  1508.01  1511.50
                             1550.04  1577.46  1615.29  1711.31  1728.55
                             1776.59  1860.31  1893.93  1919.86  1949.57
                             1986.39  2047.95  2089.11  2166.81  2188.86
                             2436.09  4243.68  4270.50  4331.68  4506.61
                             4511.56  4620.02  4630.28  4650.70  4656.42
                             5427.24

 Zero-point correction=                           0.158882 (Hartree/Particle)
 Thermal correction to Energy=                    0.167223
 Thermal correction to Enthalpy=                  0.168168
 Thermal correction to Gibbs Free Energy=         0.125777
 Sum of electronic and zero-point Energies=           -423.009410
 Sum of electronic and thermal Energies=              -423.001069
 Sum of electronic and thermal Enthalpies=            -423.000125
 Sum of electronic and thermal Free Energies=         -423.042515

                     E (Thermal)             CV                S
                      KCal/Mol        Cal/Mol-Kelvin    Cal/Mol-Kelvin
 Total                  104.934             32.218             89.218
 Electronic               0.000              0.000              0.000
 Translational            0.889              2.981             40.409
 Rotational               0.889              2.981             28.591
 Vibrational            103.157             26.257             20.219
 Vibration     1          0.598              1.968              4.131
 Vibration     2          0.605              1.945              3.359
 Vibration     3          0.626              1.877              2.414
 Vibration     4          0.656              1.783              1.822
 Vibration     5          0.693              1.672              1.412
 Vibration     6          0.715              1.609              1.244
 Vibration     7          0.755              1.499              1.014
 Vibration     8          0.791              1.405              0.859
 Vibration     9          0.853              1.255              0.664
 Vibration    10          0.885              1.183              0.587

 Optimization completed.
    -- Stationary point found.
 Normal termination of Gaussian 09 at Mon Jan 27 18:28:18 2020.
