 Gaussian 09, Revision D.01,
 Gaussian 09:  ES64L-G09RevD.01 24-Apr-2013

 -----------------------------
 # b3lyp 6-31G(2df,p) opt Freq
 -----------------------------

 -----
 titel
 -----
 Symbolic Z-matrix:
 Charge =  0 Multiplicity = 1

 SCF Done:  E(RB3LYP) =  -423.203961115     A.U. after   14 cycles
 Optimization completed.
    -- Stationary point found.
 Normal termination of Gaussian 09 at Mon Jan 27 12:55:42 2020.

 ----------------------------------------------------------------------
 #N Geom=AllCheck Guess=TCheck SCRF=Check GenChk RB3LYP/6-31G(2df,p) Fr
 eq
 ----------------------------------------------------------------------

 Structure from the checkpoint file:  "/scratch/puck/g09_876c4890-e462-437c-9542-a7e86069996f/Gau-73162.chk"
 -----
 titel
 -----
 Charge =  0 Multiplicity = 1

                         Standard orientation:
 ---------------------------------------------------------------------
 Center     Atomic      Atomic             Coordinates (Angstroms)
 Number     Number       Type             X           Y           Z
 ---------------------------------------------------------------------
      1          8           0       -3.216128    0.280842   -0.093791
      2          6           0       -2.052228    0.002037   -0.087422
      3          6           0       -1.117816   -0.642912    0.945683
      4          6           0        0.087576   -0.130348    0.104867
      5          6           0       -0.892358    0.241594   -1.063095
      6          6           0        0.906356    1.027832    0.684285
      7          6           0        2.224078    0.899588   -0.090817
      8          6           0        2.361621   -0.623834   -0.197197
      9          8           0        1.028811   -1.143169   -0.221316
     10          1           0       -1.211432   -0.307530    1.981912
     11          1           0       -1.179699   -1.735876    0.914257
     12          1           0       -0.821142    1.231843   -1.521176
     13          1           0       -0.868721   -0.522166   -1.847426
     14          1           0        0.416376    1.997395    0.568314
     15          1           0        1.076807    0.861611    1.754255
     16          1           0        2.128427    1.346718   -1.086021
     17          1           0        3.073884    1.368578    0.410239
     18          1           0        2.885041   -0.949339   -1.102302
     19          1           0        2.895632   -1.036367    0.670978
 ---------------------------------------------------------------------

 SCF Done:  E(RB3LYP) =  -423.203961115     A.U. after    1 cycles

 The electronic state is 1-A.
 Alpha  occ. eigenvalues --  -19.14113 -19.13377 -10.26890 -10.24846 -10.23288
 Alpha  occ. eigenvalues --  -10.19544 -10.19523 -10.18822 -10.18673  -1.04393
 Alpha  occ. eigenvalues --   -1.03838  -0.84349  -0.78996  -0.70771  -0.68422
 Alpha  occ. eigenvalues --   -0.60800  -0.56112  -0.52788  -0.50416  -0.49467
 Alpha  occ. eigenvalues --   -0.46708  -0.45284  -0.43317  -0.42730  -0.40228
 Alpha  occ. eigenvalues --   -0.39030  -0.38285  -0.36563  -0.35709  -0.33814
 Alpha  occ. eigenvalues --   -0.33169  -0.31665  -0.25783  -0.23297
 Alpha virt. eigenvalues --   -0.01833   0.07215   0.10031   0.10738   0.12305
 Alpha virt. eigenvalues --    0.13385   0.14106   0.15701   0.15928   0.16038
 Alpha virt. eigenvalues --    0.16950   0.18340   0.19226   0.20032   0.21765

 Mulliken charges:
               1
     1  O   -0.294015
     2  C    0.407436
     3  C   -0.414876
     4  C    0.435867
     5  C   -0.405046
     6  C   -0.281878
     7  C   -0.235148
     8  C   -0.070322
     9  O   -0.310540
    10  H    0.123840
    11  H    0.142879
    12  H    0.120519
    13  H    0.138551
    14  H    0.110035
    15  H    0.108621
    16  H    0.111739
    17  H    0.107231
    18  H    0.106831
    19  H    0.098278
 Sum of Mulliken charges =   0.00000

 Dipole moment (field-independent basis, Debye):
    X=              3.3658    Y=              0.7367    Z=              0.3291  Tot=              3.4611
 Quadrupole moment (field-independent basis, Debye-Ang):
   XX=            -62.5630   YY=            -53.3829   ZZ=            -50.8377
   XY=              3.1954   XZ=             -0.2429   YZ=             -0.3064

  Exact polarizability:  91.570  -1.467  65.763  -0.899  -2.235  69.623
 Approx polarizability: 122.485  -5.324  99.573  -0.996  -2.894 103.908

                      1                      2                      3
                      A                      A                      A
 Frequencies --     56.5201                64.0847               191.4660
 Red. masses --      4.0393                 3.4171                 1.8570
 Frc consts  --      0.0076                 0.0083                 0.0401
 IR Inten    --      3.0385                 1.4449                 0.2959

                      4                      5                      6
                      A                      A                      A
 Frequencies --    270.7644               352.1627               372.6439
 Red. masses --      2.5946                 3.5553                 2.6282
 Frc consts  --      0.1121                 0.2598                 0.2150
 IR Inten    --      3.8569                 4.4792                 2.5221

                      7                      8                      9
                      A                      A                      A
 Frequencies --    395.2886               446.1283               522.1434
 Red. masses --      2.8155                 2.5104                 2.8719
 Frc consts  --      0.2592                 0.2944                 0.4613
 IR Inten    --      0.2048                 0.4927                 0.4166

                     10                     11                     12
                      A                      A                      A
 Frequencies --    604.4426               669.2292               707.5528
 Red. masses --      1.8847                 1.5047                 3.9072
 Frc consts  --      0.4057                 0.3971                 1.1525
 IR Inten    --      0.9595                 0.3448                 1.5580

                     13                     14                     15
                      A                      A                      A
 Frequencies --    744.9650               831.4148               869.2830
 Red. masses --      3.0785                 2.2786                 1.7585
 Frc consts  --      1.0066                 0.9280                 0.7829
 IR Inten    --      2.4643                 3.3322                 2.4565

                     16                     17                     18
                      A                      A                      A
 Frequencies --    899.4468               920.8403               928.5111
 Red. masses --      2.2718                 2.9156                 2.5779
 Frc consts  --      1.0828                 1.4566                 1.3095
 IR Inten    --     11.5870                 1.0166                12.1233

                     19                     20                     21
                      A                      A                      A
 Frequencies --    944.2540               990.2351              1008.4369
 Red. masses --      2.1203                 1.1526                 1.6823
 Frc consts  --      1.1138                 0.6659                 1.0080
 IR Inten    --      0.4807                 2.2044                 5.7775

                     22                     23                     24
                      A                      A                      A
 Frequencies --   1029.9726              1085.0692              1119.1288
 Red. masses --      4.0354                 2.9275                 2.2255
 Frc consts  --      2.5223                 2.0308                 1.6422
 IR Inten    --     28.0416                61.4168                15.9524

                     25                     26                     27
                      A                      A                      A
 Frequencies --   1126.4053              1164.1781              1189.0260
 Red. masses --      2.9143                 1.9215                 1.5603
 Frc consts  --      2.1785                 1.5344                 1.2997
 IR Inten    --    111.6225                11.1311                 8.4084

                     28                     29                     30
                      A                      A                      A
 Frequencies --   1193.7463              1212.8179              1238.2730
 Red. masses --      1.5685                 1.5542                 1.5894
 Frc consts  --      1.3169                 1.3470                 1.4359
 IR Inten    --     10.3245                25.0743                21.6399

                     31                     32                     33
                      A                      A                      A
 Frequencies --   1259.6007              1291.9496              1337.2210
 Red. masses --      1.3282                 1.8700                 1.7978
 Frc consts  --      1.2416                 1.8390                 1.8941
 IR Inten    --      5.7943                42.0908                 4.2299

                     34                     35                     36
                      A                      A                      A
 Frequencies --   1341.0300              1393.9360              1415.5173
 Red. masses --      1.3355                 1.3640                 1.0924
 Frc consts  --      1.4150                 1.5615                 1.2896
 IR Inten    --      1.5010                 2.8774                20.7165

                     37                     38                     39
                      A                      A                      A
 Frequencies --   1436.4540              1486.8713              1497.1920
 Red. masses --      1.1234                 1.0885                 1.1051
 Frc consts  --      1.3657                 1.4179                 1.4595
 IR Inten    --      2.4221                 2.2103                 4.0586

                     40                     41                     42
                      A                      A                      A
 Frequencies --   1532.0548              1895.1819              2999.0604
 Red. masses --      1.0936                12.6370                 1.0687
 Frc consts  --      1.5123                26.7421                 5.6634
 IR Inten    --      0.6772               279.9882                72.8863

                     43                     44                     45
                      A                      A                      A
 Frequencies --   3041.5106              3049.4146              3051.5148
 Red. masses --      1.0674                 1.0664                 1.0576
 Frc consts  --      5.8179                 5.8427                 5.8021
 IR Inten    --     17.4705                11.4420                 5.2618

                     46                     47                     48
                      A                      A                      A
 Frequencies --   3057.5148              3067.9498              3104.1145
 Red. masses --      1.0596                 1.0909                 1.0978
 Frc consts  --      5.8364                 6.0499                 6.2326
 IR Inten    --      3.2458                52.1541                 9.3510

                     49                     50                     51
                      A                      A                      A
 Frequencies --   3112.4835              3114.5160              3115.4552
 Red. masses --      1.1040                 1.1061                 1.1048
 Frc consts  --      6.3014                 6.3213                 6.3182
 IR Inten    --     23.2155                 8.8551                20.4458

 - Thermochemistry -
 -------------------
 Temperature   298.150 Kelvin.  Pressure   1.00000 Atm.
 Atom     1 has atomic number  8 and mass  15.99491

 Molecular mass:   126.06808 amu.
 Principal axes and moments of inertia in atomic units:
                           1         2         3
     Eigenvalues --   425.117371708.485831786.41434
           X            0.99990   0.01395  -0.00253
           Y           -0.01406   0.99886  -0.04572
           Z            0.00189   0.04575   0.99895
 This molecule is an asymmetric top.
 Rotational symmetry number  1.
 Rotational temperatures (Kelvin)      0.20374     0.05070     0.04848
 Rotational constants (GHZ):           4.24528     1.05634     1.01026
 Zero-point vibrational energy     417191.5 (Joules/Mol)
                                   99.71116 (Kcal/Mol)
 Warning -- explicit consideration of  10 degrees of freedom as
           vibrations may cause significant error
 Vibrational temperatures:     81.32    92.20   275.48   389.57   506.68
          (Kelvin)            536.15   568.73   641.88   751.25   869.66
                              962.87  1018.01  1071.84  1196.22  1250.70
                             1294.10  1324.88  1335.92  1358.57  1424.73
                             1450.91  1481.90  1561.17  1610.17  1620.64
                             1674.99  1710.74  1717.53  1744.97  1781.60
                             1812.28  1858.83  1923.96  1929.44  2005.56
                             2036.61  2066.73  2139.27  2154.12  2204.28
                             2726.74  4314.97  4376.05  4387.42  4390.44
                             4399.08  4414.09  4466.12  4478.16  4481.09
                             4482.44

 Zero-point correction=                           0.158900 (Hartree/Particle)
 Thermal correction to Energy=                    0.167037
 Thermal correction to Enthalpy=                  0.167982
 Thermal correction to Gibbs Free Energy=         0.125490
 Sum of electronic and zero-point Energies=           -423.045061
 Sum of electronic and thermal Energies=              -423.036924
 Sum of electronic and thermal Enthalpies=            -423.035980
 Sum of electronic and thermal Free Energies=         -423.078471

                     E (Thermal)             CV                S
                      KCal/Mol        Cal/Mol-Kelvin    Cal/Mol-Kelvin
 Total                  104.817             31.198             89.432
 Electronic               0.000              0.000              0.000
 Translational            0.889              2.981             40.409
 Rotational               0.889              2.981             28.652
 Vibrational            103.040             25.237             20.371
 Vibration     1          0.596              1.975              4.575
 Vibration     2          0.597              1.971              4.327
 Vibration     3          0.634              1.852              2.214
 Vibration     4          0.674              1.727              1.591
 Vibration     5          0.729              1.571              1.157
 Vibration     6          0.744              1.528              1.069
 Vibration     7          0.762              1.480              0.980
 Vibration     8          0.805              1.369              0.808
 Vibration     9          0.877              1.201              0.605
 Vibration    10          0.963              1.022              0.442

 Optimization completed.
    -- Stationary point found.
 Normal termination of Gaussian 09 at Mon Jan 27 13:38:17 2020.
