 Gaussian 09, Revision D.01,
 Gaussian 09:  ES64L-G09RevD.01 24-Apr-2013

 -----------------------------
 # b3lyp 6-31G(2df,p) opt Freq
 -----------------------------

 -----
 titel
 -----
 Symbolic Z-matrix:
 Charge =  0 Multiplicity = 1

 SCF Done:  E(RB3LYP) =  -423.181472771     A.U. after   15 cycles
 Optimization completed.
    -- Stationary point found.
 Normal termination of Gaussian 09 at Tue Jan 28 08:17:25 2020.

 ----------------------------------------------------------------------
 #N Geom=AllCheck Guess=TCheck SCRF=Check GenChk RB3LYP/6-31G(2df,p) Fr
 eq
 ----------------------------------------------------------------------

 Structure from the checkpoint file:  "/scratch/puck/g09_de589e0b-6a68-4278-884a-f6bfa9865337/Gau-79697.chk"
 -----
 titel
 -----
 Charge =  0 Multiplicity = 1

                         Standard orientation:
 ---------------------------------------------------------------------
 Center     Atomic      Atomic             Coordinates (Angstroms)
 Number     Number       Type             X           Y           Z
 ---------------------------------------------------------------------
      1          6           0        2.506962   -1.867323    0.029766
      2          6           0        1.297498   -1.049925    0.487223
      3          6           0        1.071067    0.185997   -0.405701
      4          8           0        2.194369    1.024742   -0.406096
      5          6           0       -0.152433    0.984105    0.049803
      6          8           0       -0.015116    2.136219    0.422416
      7          6           0       -1.431469    0.326661    0.007536
      8          6           0       -2.499935   -0.232468   -0.050638
      9          6           0       -3.794719   -0.886301   -0.114988
     10          1           0        2.680832   -2.715209    0.699036
     11          1           0        2.356869   -2.262181   -0.981354
     12          1           0        3.405023   -1.245093    0.018813
     13          1           0        0.391334   -1.666093    0.479119
     14          1           0        1.446464   -0.703137    1.517130
     15          1           0        0.863160   -0.163249   -1.432354
     16          1           0        1.880158    1.871366   -0.047481
     17          1           0       -4.349575   -0.743554    0.818346
     18          1           0       -4.397050   -0.463487   -0.926537
     19          1           0       -3.693075   -1.961527   -0.293278
 ---------------------------------------------------------------------

 SCF Done:  E(RB3LYP) =  -423.181472771     A.U. after    1 cycles

 The electronic state is 1-A.
 Alpha  occ. eigenvalues --  -19.14901 -19.12675 -10.29151 -10.23801 -10.22785
 Alpha  occ. eigenvalues --  -10.21809 -10.19557 -10.18604 -10.17136  -1.06331
 Alpha  occ. eigenvalues --   -1.00911  -0.80998  -0.78502  -0.74268  -0.69615
 Alpha  occ. eigenvalues --   -0.62370  -0.58804  -0.53513  -0.49081  -0.48219
 Alpha  occ. eigenvalues --   -0.45545  -0.45196  -0.45057  -0.43590  -0.41828
 Alpha  occ. eigenvalues --   -0.39163  -0.36930  -0.35858  -0.34869  -0.33739
 Alpha  occ. eigenvalues --   -0.29021  -0.28368  -0.27291  -0.26298
 Alpha virt. eigenvalues --   -0.06012   0.02890   0.08593   0.09069   0.10568
 Alpha virt. eigenvalues --    0.13052   0.13939   0.15241   0.16069   0.16588
 Alpha virt. eigenvalues --    0.17413   0.17676   0.18797   0.19764   0.22586

 Mulliken charges:
               1
     1  C   -0.381803
     2  C   -0.185825
     3  C    0.037850
     4  O   -0.438360
     5  C    0.184839
     6  O   -0.326549
     7  C    0.026346
     8  C    0.137716
     9  C   -0.505927
    10  H    0.110358
    11  H    0.112017
    12  H    0.142251
    13  H    0.101724
    14  H    0.105190
    15  H    0.089584
    16  H    0.292717
    17  H    0.167624
    18  H    0.168446
    19  H    0.161803
 Sum of Mulliken charges =   0.00000

 Dipole moment (field-independent basis, Debye):
    X=             -3.2245    Y=             -2.7843    Z=             -0.2188  Tot=              4.2659
 Quadrupole moment (field-independent basis, Debye-Ang):
   XX=            -46.0654   YY=            -56.2511   ZZ=            -53.0907
   XY=              3.0550   XZ=              2.2723   YZ=             -0.7245

  Exact polarizability: 113.134  11.894  81.059   1.260   2.796  57.549
 Approx polarizability: 154.941  32.430 128.290   3.456   9.266  87.553

                      1                      2                      3
                      A                      A                      A
 Frequencies --     17.8512                51.9802                70.4645
 Red. masses --      1.0186                 4.5795                 3.0931
 Frc consts  --      0.0002                 0.0073                 0.0090
 IR Inten    --      0.1213                 0.1421                 0.7016

                      4                      5                      6
                      A                      A                      A
 Frequencies --    106.3709               135.8775               197.8786
 Red. masses --      2.6722                 3.9424                 2.9936
 Frc consts  --      0.0178                 0.0429                 0.0691
 IR Inten    --      0.1026                 1.0262                 0.5552

                      7                      8                      9
                      A                      A                      A
 Frequencies --    232.4210               279.9591               334.2173
 Red. masses --      1.2425                 3.6977                 3.6326
 Frc consts  --      0.0395                 0.1708                 0.2391
 IR Inten    --      1.7649                 4.6811                 3.0216

                     10                     11                     12
                      A                      A                      A
 Frequencies --    355.5400               397.1388               410.0412
 Red. masses --      5.5314                 4.3664                 3.1883
 Frc consts  --      0.4120                 0.4057                 0.3158
 IR Inten    --     23.1897                 0.6996                17.7004

                     13                     14                     15
                      A                      A                      A
 Frequencies --    447.3993               491.4932               588.2864
 Red. masses --      1.5420                 2.2969                 5.2926
 Frc consts  --      0.1819                 0.3269                 1.0792
 IR Inten    --     40.3318                 3.8660                 5.7299

                     16                     17                     18
                      A                      A                      A
 Frequencies --    682.2292               776.2332               846.4555
 Red. masses --      5.4033                 1.4148                 3.0480
 Frc consts  --      1.4817                 0.5023                 1.2867
 IR Inten    --      9.4129                 0.7054                 3.3286

                     19                     20                     21
                      A                      A                      A
 Frequencies --    904.4499               977.2795              1003.3726
 Red. masses --      2.2824                 4.3598                 1.7682
 Frc consts  --      1.1000                 2.4533                 1.0488
 IR Inten    --     13.6064                90.9822                11.1472

                     22                     23                     24
                      A                      A                      A
 Frequencies --   1043.4336              1054.0185              1075.6790
 Red. masses --      1.4386                 1.4119                 2.4067
 Frc consts  --      0.9228                 0.9242                 1.6408
 IR Inten    --      2.6021                 0.7275                25.2231

                     25                     26                     27
                      A                      A                      A
 Frequencies --   1117.9473              1162.5935              1218.0715
 Red. masses --      2.3106                 2.9459                 2.0136
 Frc consts  --      1.7014                 2.3459                 1.7602
 IR Inten    --     27.6754                97.0131                31.7257

                     28                     29                     30
                      A                      A                      A
 Frequencies --   1272.5080              1287.5269              1340.0810
 Red. masses --      1.8327                 1.2113                 1.3805
 Frc consts  --      1.7485                 1.1831                 1.4607
 IR Inten    --    104.5284                17.3686                18.7271

                     31                     32                     33
                      A                      A                      A
 Frequencies --   1373.4802              1406.2252              1409.2283
 Red. masses --      1.3418                 1.2309                 1.2404
 Frc consts  --      1.4914                 1.4341                 1.4514
 IR Inten    --      0.3545                 2.3371                 7.9682

                     34                     35                     36
                      A                      A                      A
 Frequencies --   1438.7049              1468.2566              1472.3487
 Red. masses --      1.3678                 1.0395                 1.0407
 Frc consts  --      1.6680                 1.3203                 1.3292
 IR Inten    --    107.6260                 8.3237                 6.8820

                     37                     38                     39
                      A                      A                      A
 Frequencies --   1476.9179              1494.7251              1509.0111
 Red. masses --      1.0802                 1.0421                 1.0552
 Frc consts  --      1.3883                 1.3718                 1.4157
 IR Inten    --      1.2049                 4.9158                 4.0617

                     40                     41                     42
                      A                      A                      A
 Frequencies --   1737.8225              2339.2729              2955.0920
 Red. masses --     11.7118                11.9064                 1.0804
 Frc consts  --     20.8394                38.3876                 5.5587
 IR Inten    --    183.2151               158.0902                28.6655

                     43                     44                     45
                      A                      A                      A
 Frequencies --   3031.3930              3034.0043              3036.8088
 Red. masses --      1.0596                 1.0345                 1.0376
 Frc consts  --      5.7368                 5.6109                 5.6380
 IR Inten    --     15.0122                11.2788                31.1337

                     46                     47                     48
                      A                      A                      A
 Frequencies --   3074.7820              3098.2152              3102.6669
 Red. masses --      1.1007                 1.0995                 1.1011
 Frc consts  --      6.1314                 6.2183                 6.2451
 IR Inten    --     16.2996                 2.9413                38.4389

                     49                     50                     51
                      A                      A                      A
 Frequencies --   3103.1172              3128.6008              3666.0395
 Red. masses --      1.1011                 1.1008                 1.0644
 Frc consts  --      6.2467                 6.3486                 8.4284
 IR Inten    --      4.4783                18.4549                84.8012

 - Thermochemistry -
 -------------------
 Temperature   298.150 Kelvin.  Pressure   1.00000 Atm.
 Atom     1 has atomic number  6 and mass  12.00000

 Molecular mass:   126.06808 amu.
 Principal axes and moments of inertia in atomic units:
                           1         2         3
     Eigenvalues --   754.727852002.444612626.88882
           X            0.99996  -0.00752   0.00433
           Y            0.00754   0.99995  -0.00580
           Z           -0.00429   0.00583   0.99997
 This molecule is an asymmetric top.
 Rotational symmetry number  1.
 Warning -- assumption of classical behavior for rotation
           may cause significant error
 Rotational temperatures (Kelvin)      0.11476     0.04325     0.03297
 Rotational constants (GHZ):           2.39125     0.90127     0.68703
 Zero-point vibrational energy     408139.0 (Joules/Mol)
                                   97.54756 (Kcal/Mol)
 Warning -- explicit consideration of  15 degrees of freedom as
           vibrations may cause significant error
 Vibrational temperatures:     25.68    74.79   101.38   153.04   195.50
          (Kelvin)            284.70   334.40   402.80   480.86   511.54
                              571.39   589.96   643.71   707.15   846.41
                              981.57  1116.83  1217.86  1301.30  1406.09
                             1443.63  1501.27  1516.50  1547.66  1608.47
                             1672.71  1752.53  1830.85  1852.46  1928.08
                             1976.13  2023.24  2027.56  2069.97  2112.49
                             2118.38  2124.95  2150.57  2171.13  2500.34
                             3365.69  4251.71  4361.49  4365.25  4369.29
                             4423.92  4457.64  4464.04  4464.69  4501.35
                             5274.61

 Zero-point correction=                           0.155452 (Hartree/Particle)
 Thermal correction to Energy=                    0.166373
 Thermal correction to Enthalpy=                  0.167317
 Thermal correction to Gibbs Free Energy=         0.117173
 Sum of electronic and zero-point Energies=           -423.026021
 Sum of electronic and thermal Energies=              -423.015100
 Sum of electronic and thermal Enthalpies=            -423.014156
 Sum of electronic and thermal Free Energies=         -423.064300

                     E (Thermal)             CV                S
                      KCal/Mol        Cal/Mol-Kelvin    Cal/Mol-Kelvin
 Total                  104.400             37.226            105.537
 Electronic               0.000              0.000              0.000
 Translational            0.889              2.981             40.409
 Rotational               0.889              2.981             29.764
 Vibrational            102.623             31.265             35.365
 Vibration     1          0.593              1.986              6.860
 Vibration     2          0.596              1.977              4.741
 Vibration     3          0.598              1.968              4.140
 Vibration     4          0.605              1.944              3.334
 Vibration     5          0.614              1.918              2.861
 Vibration     6          0.637              1.843              2.153
 Vibration     7          0.653              1.791              1.860
 Vibration     8          0.680              1.711              1.534
 Vibration     9          0.716              1.607              1.240
 Vibration    10          0.731              1.564              1.142
 Vibration    11          0.764              1.476              0.973
 Vibration    12          0.774              1.448              0.926
 Vibration    13          0.807              1.367              0.804
 Vibration    14          0.847              1.269              0.680
 Vibration    15          0.945              1.057              0.470

 Optimization completed on the basis of negligible forces.
    -- Stationary point found.
 Normal termination of Gaussian 09 at Tue Jan 28 08:58:12 2020.
