 Gaussian 09, Revision D.01,
 Gaussian 09:  ES64L-G09RevD.01 24-Apr-2013

 -----------------------------
 # b3lyp 6-31G(2df,p) opt Freq
 -----------------------------

 -----
 titel
 -----
 Symbolic Z-matrix:
 Charge =  0 Multiplicity = 1

 SCF Done:  E(RB3LYP) =  -423.194187539     A.U. after   14 cycles
 Optimization completed.
    -- Stationary point found.
 Normal termination of Gaussian 09 at Tue Jan 28 14:11:47 2020.

 ----------------------------------------------------------------------
 #N Geom=AllCheck Guess=TCheck SCRF=Check GenChk RB3LYP/6-31G(2df,p) Fr
 eq
 ----------------------------------------------------------------------

 Structure from the checkpoint file:  "/scratch/puck/g09_2609c0eb-b853-4fe3-9568-58754680373a/Gau-34161.chk"
 -----
 titel
 -----
 Charge =  0 Multiplicity = 1

                         Standard orientation:
 ---------------------------------------------------------------------
 Center     Atomic      Atomic             Coordinates (Angstroms)
 Number     Number       Type             X           Y           Z
 ---------------------------------------------------------------------
      1          6           0       -2.958847    0.672702    0.340876
      2          8           0       -2.212176   -0.445605   -0.106872
      3          6           0       -0.879048   -0.394650    0.260963
      4          6           0        0.066028   -1.141269   -0.597756
      5          6           0        1.384738   -1.590215    0.035988
      6          6           0        1.992513   -0.322459    0.672381
      7          6           0        1.341415    0.865263   -0.060434
      8          8           0        1.806174    1.975689   -0.148140
      9          6           0        0.068841    0.385868   -0.670872
     10          1           0       -2.579467    1.609589   -0.089296
     11          1           0       -3.989893    0.517140    0.017135
     12          1           0       -2.936389    0.757500    1.437140
     13          1           0       -0.708674   -0.333585    1.338068
     14          1           0       -0.361338   -1.719061   -1.408960
     15          1           0        1.241514   -2.402734    0.755187
     16          1           0        2.045892   -1.966166   -0.751421
     17          1           0        1.747541   -0.239843    1.738903
     18          1           0        3.079394   -0.261737    0.594321
     19          1           0       -0.384403    0.946796   -1.477852
 ---------------------------------------------------------------------

 SCF Done:  E(RB3LYP) =  -423.194187539     A.U. after    1 cycles

 The electronic state is 1-A.
 Alpha  occ. eigenvalues --  -19.15897 -19.11997 -10.26290 -10.25245 -10.23315
 Alpha  occ. eigenvalues --  -10.20541 -10.19862 -10.19580 -10.19137  -1.05517
 Alpha  occ. eigenvalues --   -1.03110  -0.88794  -0.77033  -0.70275  -0.68586
 Alpha  occ. eigenvalues --   -0.61659  -0.57912  -0.54706  -0.51599  -0.47564
 Alpha  occ. eigenvalues --   -0.46727  -0.45723  -0.44906  -0.42787  -0.40819
 Alpha  occ. eigenvalues --   -0.40392  -0.38339  -0.36397  -0.35189  -0.34790
 Alpha  occ. eigenvalues --   -0.31410  -0.29766  -0.25771  -0.23393
 Alpha virt. eigenvalues --   -0.01010   0.08080   0.08818   0.10670   0.12138
 Alpha virt. eigenvalues --    0.13112   0.14290   0.15010   0.15580   0.15918
 Alpha virt. eigenvalues --    0.17650   0.19168   0.19492   0.20306   0.22302

 Mulliken charges:
               1
     1  C   -0.242978
     2  O   -0.240297
     3  C    0.118150
     4  C   -0.096957
     5  C   -0.235674
     6  C   -0.340883
     7  C    0.415682
     8  O   -0.334659
     9  C   -0.200415
    10  H    0.119994
    11  H    0.132943
    12  H    0.112338
    13  H    0.091195
    14  H    0.107200
    15  H    0.108720
    16  H    0.115208
    17  H    0.129091
    18  H    0.130977
    19  H    0.110366
 Sum of Mulliken charges =   0.00000

 Dipole moment (field-independent basis, Debye):
    X=             -1.2288    Y=             -1.9876    Z=              0.7142  Tot=              2.4435
 Quadrupole moment (field-independent basis, Debye-Ang):
   XX=            -53.0250   YY=            -59.0121   ZZ=            -50.7968
   XY=             -9.2363   XZ=             -0.3840   YZ=              0.6128

  Exact polarizability:  90.960  -0.512  76.733   1.300  -1.006  63.199
 Approx polarizability: 118.217   9.042 120.973   0.317  -2.698  97.380

                      1                      2                      3
                      A                      A                      A
 Frequencies --     92.0702               129.3639               147.2432
 Red. masses --      3.2778                 3.6157                 2.2676
 Frc consts  --      0.0164                 0.0357                 0.0290
 IR Inten    --      6.5140                 1.2716                 0.1528

                      4                      5                      6
                      A                      A                      A
 Frequencies --    178.2544               232.1285               284.0326
 Red. masses --      1.2439                 2.2737                 2.8189
 Frc consts  --      0.0233                 0.0722                 0.1340
 IR Inten    --      0.6855                 2.4071                 3.9488

                      7                      8                      9
                      A                      A                      A
 Frequencies --    398.3066               425.1544               489.6202
 Red. masses --      4.6116                 3.4211                 3.2074
 Frc consts  --      0.4311                 0.3643                 0.4530
 IR Inten    --      6.9308                 0.8819                13.1168

                     10                     11                     12
                      A                      A                      A
 Frequencies --    528.6514               623.8509               651.1258
 Red. masses --      3.4118                 2.5949                 5.1743
 Frc consts  --      0.5618                 0.5950                 1.2925
 IR Inten    --      5.2693                 5.1852                 1.5563

                     13                     14                     15
                      A                      A                      A
 Frequencies --    800.4366               820.1495               834.1216
 Red. masses --      2.8329                 3.2128                 1.8671
 Frc consts  --      1.0694                 1.2733                 0.7654
 IR Inten    --      6.4928                10.3118                 7.9620

                     16                     17                     18
                      A                      A                      A
 Frequencies --    899.5256               923.5173               945.3306
 Red. masses --      1.8546                 2.3455                 2.9351
 Frc consts  --      0.8842                 1.1786                 1.5454
 IR Inten    --      8.3748                28.9424                47.1885

                     19                     20                     21
                      A                      A                      A
 Frequencies --   1015.6734              1031.2481              1045.9692
 Red. masses --      2.7403                 1.5498                 1.6189
 Frc consts  --      1.6655                 0.9711                 1.0435
 IR Inten    --      8.3693                 0.2883                12.2042

                     22                     23                     24
                      A                      A                      A
 Frequencies --   1059.2756              1084.7870              1160.4462
 Red. masses --      1.6186                 1.5010                 1.5504
 Frc consts  --      1.0700                 1.0407                 1.2301
 IR Inten    --     14.5184                39.2025                 8.2501

                     25                     26                     27
                      A                      A                      A
 Frequencies --   1169.5924              1174.4755              1181.9878
 Red. masses --      1.4103                 2.5149                 1.4231
 Frc consts  --      1.1367                 2.0439                 1.1714
 IR Inten    --     13.8093               109.1855                 2.7186

                     28                     29                     30
                      A                      A                      A
 Frequencies --   1190.1604              1226.3890              1242.8771
 Red. masses --      2.2789                 1.4515                 1.9884
 Frc consts  --      1.9019                 1.2863                 1.8097
 IR Inten    --     13.6625                 4.0747                63.9926

                     31                     32                     33
                      A                      A                      A
 Frequencies --   1280.5935              1288.8664              1321.1562
 Red. masses --      1.4776                 1.6914                 1.6413
 Frc consts  --      1.4277                 1.6555                 1.6879
 IR Inten    --     20.8210                24.6070                 2.0618

                     34                     35                     36
                      A                      A                      A
 Frequencies --   1346.3063              1436.1885              1460.3439
 Red. masses --      1.3209                 1.9038                 1.0780
 Frc consts  --      1.4106                 2.3137                 1.3546
 IR Inten    --     18.4742                47.5348                 7.5961

                     37                     38                     39
                      A                      A                      A
 Frequencies --   1486.3657              1487.9616              1500.7138
 Red. masses --      1.0833                 1.2028                 1.1024
 Frc consts  --      1.4101                 1.5690                 1.4628
 IR Inten    --      4.2989                 8.1808                 7.1756

                     40                     41                     42
                      A                      A                      A
 Frequencies --   1508.3288              1827.6879              2992.0071
 Red. masses --      1.0914                12.3015                 1.0362
 Frc consts  --      1.4629                24.2111                 5.4655
 IR Inten    --      2.2107               275.0216                50.0729

                     43                     44                     45
                      A                      A                      A
 Frequencies --   3037.9621              3047.7567              3047.9933
 Red. masses --      1.0694                 1.0959                 1.0664
 Frc consts  --      5.8150                 5.9979                 5.8370
 IR Inten    --     10.1285                30.4839                47.3211

                     46                     47                     48
                      A                      A                      A
 Frequencies --   3074.7615              3085.8083              3119.3211
 Red. masses --      1.0870                 1.1037                 1.0947
 Frc consts  --      6.0548                 6.1919                 6.2755
 IR Inten    --     22.5833                20.5934                11.7716

                     49                     50                     51
                      A                      A                      A
 Frequencies --   3128.1469              3185.9178              3208.5754
 Red. masses --      1.0985                 1.0901                 1.0919
 Frc consts  --      6.3329                 6.5192                 6.6232
 IR Inten    --     26.1517                 5.6427                 2.2237

 - Thermochemistry -
 -------------------
 Temperature   298.150 Kelvin.  Pressure   1.00000 Atm.
 Atom     1 has atomic number  6 and mass  12.00000

 Molecular mass:   126.06808 amu.
 Principal axes and moments of inertia in atomic units:
                           1         2         3
     Eigenvalues --   634.185061497.305111913.49237
           X            0.99781  -0.06618   0.00060
           Y            0.06617   0.99780   0.00470
           Z           -0.00091  -0.00465   0.99999
 This molecule is an asymmetric top.
 Rotational symmetry number  1.
 Warning -- assumption of classical behavior for rotation
           may cause significant error
 Rotational temperatures (Kelvin)      0.13657     0.05785     0.04526
 Rotational constants (GHZ):           2.84576     1.20533     0.94317
 Zero-point vibrational energy     417846.8 (Joules/Mol)
                                   99.86778 (Kcal/Mol)
 Warning -- explicit consideration of  10 degrees of freedom as
           vibrations may cause significant error
 Vibrational temperatures:    132.47   186.13   211.85   256.47   333.98
          (Kelvin)            408.66   573.07   611.70   704.45   760.61
                              897.58   936.82  1151.65  1180.01  1200.11
                             1294.22  1328.73  1360.12  1461.33  1483.73
                             1504.91  1524.06  1560.76  1669.62  1682.78
                             1689.81  1700.61  1712.37  1764.50  1788.22
                             1842.49  1854.39  1900.85  1937.03  2066.35
                             2101.11  2138.55  2140.84  2159.19  2170.15
                             2629.63  4304.83  4370.94  4385.04  4385.38
                             4423.89  4439.78  4488.00  4500.70  4583.82
                             4616.42

 Zero-point correction=                           0.159149 (Hartree/Particle)
 Thermal correction to Energy=                    0.167643
 Thermal correction to Enthalpy=                  0.168587
 Thermal correction to Gibbs Free Energy=         0.125764
 Sum of electronic and zero-point Energies=           -423.035038
 Sum of electronic and thermal Energies=              -423.026544
 Sum of electronic and thermal Enthalpies=            -423.025600
 Sum of electronic and thermal Free Energies=         -423.068423

                     E (Thermal)             CV                S
                      KCal/Mol        Cal/Mol-Kelvin    Cal/Mol-Kelvin
 Total                  105.198             31.844             90.129
 Electronic               0.000              0.000              0.000
 Translational            0.889              2.981             40.409
 Rotational               0.889              2.981             28.987
 Vibrational            103.420             25.883             20.733
 Vibration     1          0.602              1.955              3.616
 Vibration     2          0.612              1.924              2.955
 Vibration     3          0.617              1.906              2.708
 Vibration     4          0.629              1.869              2.347
 Vibration     5          0.653              1.792              1.862
 Vibration     6          0.682              1.703              1.509
 Vibration     7          0.765              1.474              0.969
 Vibration     8          0.787              1.416              0.875
 Vibration     9          0.845              1.273              0.685
 Vibration    10          0.884              1.187              0.590

 Optimization completed.
    -- Stationary point found.
 Normal termination of Gaussian 09 at Tue Jan 28 14:52:04 2020.
