 Gaussian 09, Revision D.01,
 Gaussian 09:  ES64L-G09RevD.01 24-Apr-2013

 -----------------------------
 # b3lyp 6-31G(2df,p) opt Freq
 -----------------------------

 -----
 titel
 -----
 Symbolic Z-matrix:
 Charge =  0 Multiplicity = 1

 SCF Done:  E(RB3LYP) =  -423.171276289     A.U. after   13 cycles
 Optimization completed.
    -- Stationary point found.
 Normal termination of Gaussian 09 at Mon Jan 27 12:26:14 2020.

 ----------------------------------------------------------------------
 #N Geom=AllCheck Guess=TCheck SCRF=Check GenChk RB3LYP/6-31G(2df,p) Fr
 eq
 ----------------------------------------------------------------------

 Structure from the checkpoint file:  "/scratch/puck/g09_126b68ad-fa18-4d7b-8b92-925ca6cac977/Gau-134044.chk"
 -----
 titel
 -----
 Charge =  0 Multiplicity = 1

                         Standard orientation:
 ---------------------------------------------------------------------
 Center     Atomic      Atomic             Coordinates (Angstroms)
 Number     Number       Type             X           Y           Z
 ---------------------------------------------------------------------
      1          6           0       -1.051376   -1.280485   -0.442046
      2          8           0        0.284248   -1.401689   -0.915542
      3          6           0        1.296799   -0.758187   -0.195823
      4          6           0        1.016526   -0.001151    1.089331
      5          6           0       -0.409640    0.000534    1.594820
      6          6           0       -1.317908    0.001216    0.357954
      7          6           0       -1.048973    1.282123   -0.442565
      8          8           0        0.287215    1.401721   -0.914891
      9          6           0        1.298455    0.755624   -0.195512
     10          1           0       -1.688525   -1.327447   -1.332142
     11          1           0       -1.300600   -2.145747    0.193554
     12          1           0        2.234229   -1.295643   -0.298467
     13          1           0        1.801930   -0.002227    1.839973
     14          1           0       -0.602047   -0.883121    2.214805
     15          1           0       -0.600109    0.884921    2.214367
     16          1           0       -2.373700    0.002320    0.653382
     17          1           0       -1.685425    1.329421   -1.333166
     18          1           0       -1.297684    2.147986    0.192407
     19          1           0        2.236931    1.291232   -0.298206
 ---------------------------------------------------------------------

 SCF Done:  E(RB3LYP) =  -423.171276289     A.U. after    1 cycles

 The electronic state is 1-A.
 Alpha  occ. eigenvalues --  -19.13935 -19.13933 -10.22957 -10.22957 -10.22669
 Alpha  occ. eigenvalues --  -10.22645 -10.19543 -10.19165 -10.19116  -1.04744
 Alpha  occ. eigenvalues --   -1.01862  -0.84427  -0.81079  -0.69637  -0.68282
 Alpha  occ. eigenvalues --   -0.62866  -0.57530  -0.53973  -0.50561  -0.47671
 Alpha  occ. eigenvalues --   -0.46697  -0.46661  -0.44367  -0.43547  -0.40517
 Alpha  occ. eigenvalues --   -0.39070  -0.38992  -0.36308  -0.34556  -0.32798
 Alpha  occ. eigenvalues --   -0.30322  -0.26878  -0.25136  -0.21366
 Alpha virt. eigenvalues --    0.07080   0.09682   0.11076   0.11396   0.14905
 Alpha virt. eigenvalues --    0.15293   0.15415   0.15941   0.16271   0.16477
 Alpha virt. eigenvalues --    0.17213   0.19200   0.20437   0.20996   0.21895

 Mulliken charges:
               1
     1  C   -0.052786
     2  O   -0.258987
     3  C    0.069844
     4  C   -0.140485
     5  C   -0.229329
     6  C   -0.094215
     7  C   -0.052713
     8  O   -0.259082
     9  C    0.069965
    10  H    0.105679
    11  H    0.088965
    12  H    0.096303
    13  H    0.087395
    14  H    0.099696
    15  H    0.099699
    16  H    0.079090
    17  H    0.105667
    18  H    0.088978
    19  H    0.096317
 Sum of Mulliken charges =   0.00000

 Dipole moment (field-independent basis, Debye):
    X=             -0.9249    Y=             -0.0004    Z=              2.0401  Tot=              2.2400
 Quadrupole moment (field-independent basis, Debye-Ang):
   XX=            -47.4401   YY=            -56.0603   ZZ=            -55.0143
   XY=             -0.0088   XZ=              1.7159   YZ=             -0.0020

  Exact polarizability:  79.543  -0.009  70.859   1.335  -0.002  69.376
 Approx polarizability: 110.872  -0.006 104.571  -0.119  -0.001 105.863

                      1                      2                      3
                      A                      A                      A
 Frequencies --    101.2727               190.2401               342.9970
 Red. masses --      2.7563                 6.8420                 2.0653
 Frc consts  --      0.0167                 0.1459                 0.1432
 IR Inten    --      3.2873                 3.5923                 0.0324

                      4                      5                      6
                      A                      A                      A
 Frequencies --    350.6950               429.8310               500.1646
 Red. masses --      2.5543                 3.4702                 5.9463
 Frc consts  --      0.1851                 0.3777                 0.8764
 IR Inten    --      0.3116                 1.3580                 0.9549

                      7                      8                      9
                      A                      A                      A
 Frequencies --    552.2709               625.1059               669.7637
 Red. masses --      2.9664                 5.8558                 5.2794
 Frc consts  --      0.5331                 1.3482                 1.3953
 IR Inten    --      1.0055                 0.6768                14.4712

                     10                     11                     12
                      A                      A                      A
 Frequencies --    731.7090               778.2595               786.6938
 Red. masses --      2.3934                 1.8820                 4.1139
 Frc consts  --      0.7550                 0.6716                 1.5001
 IR Inten    --     21.8397                 6.0074                 4.2024

                     13                     14                     15
                      A                      A                      A
 Frequencies --    869.7056               894.6352               912.6605
 Red. masses --      3.9672                 2.5100                 2.6436
 Frc consts  --      1.7680                 1.1836                 1.2974
 IR Inten    --     16.0734                 3.2061                 0.4001

                     16                     17                     18
                      A                      A                      A
 Frequencies --    935.5271               959.5043               998.0691
 Red. masses --      1.4282                 2.6493                 2.1680
 Frc consts  --      0.7365                 1.4371                 1.2724
 IR Inten    --      2.1326                 0.4455                 6.2315

                     19                     20                     21
                      A                      A                      A
 Frequencies --   1002.8244              1068.5624              1084.0952
 Red. masses --      2.3394                 1.6100                 1.7699
 Frc consts  --      1.3861                 1.0831                 1.2256
 IR Inten    --     19.2849                 0.3343                16.1252

                     22                     23                     24
                      A                      A                      A
 Frequencies --   1104.5687              1112.2545              1123.9706
 Red. masses --      1.2920                 1.5544                 1.7241
 Frc consts  --      0.9287                 1.1330                 1.2833
 IR Inten    --      0.1034                27.3761                27.8370

                     25                     26                     27
                      A                      A                      A
 Frequencies --   1124.7571              1171.8815              1237.5265
 Red. masses --      1.8816                 2.3694                 1.5322
 Frc consts  --      1.4025                 1.9171                 1.3826
 IR Inten    --      0.6448                 7.9323                 1.8317

                     28                     29                     30
                      A                      A                      A
 Frequencies --   1249.9103              1255.0686              1267.1701
 Red. masses --      1.4490                 1.1839                 2.6743
 Frc consts  --      1.3338                 1.0987                 2.5301
 IR Inten    --     10.3402                 5.2475               158.6673

                     31                     32                     33
                      A                      A                      A
 Frequencies --   1322.8859              1342.4009              1344.9408
 Red. masses --      1.5662                 1.3245                 1.2096
 Frc consts  --      1.6149                 1.4062                 1.2891
 IR Inten    --      2.6502                 3.5101                 1.5991

                     34                     35                     36
                      A                      A                      A
 Frequencies --   1365.5130              1376.4686              1414.7071
 Red. masses --      1.7384                 1.6609                 1.3116
 Frc consts  --      1.9098                 1.8540                 1.5466
 IR Inten    --      5.5877                 7.2560                 2.4318

                     37                     38                     39
                      A                      A                      A
 Frequencies --   1423.1337              1444.2370              1496.6763
 Red. masses --      1.4898                 1.9134                 1.1286
 Frc consts  --      1.7777                 2.3515                 1.4895
 IR Inten    --     13.4684                12.1257                 5.0814

                     40                     41                     42
                      A                      A                      A
 Frequencies --   1507.8239              1522.1503              2968.8839
 Red. masses --      1.0880                 1.0934                 1.0701
 Frc consts  --      1.4574                 1.4926                 5.5571
 IR Inten    --      1.5452                 0.2422                96.7327

                     43                     44                     45
                      A                      A                      A
 Frequencies --   2969.9001              3022.1453              3044.7679
 Red. masses --      1.0715                 1.0595                 1.0854
 Frc consts  --      5.5683                 5.7015                 5.9283
 IR Inten    --     47.7787                35.0171                45.5894

                     46                     47                     48
                      A                      A                      A
 Frequencies --   3055.8923              3061.2025              3062.3711
 Red. masses --      1.0937                 1.1042                 1.0909
 Frc consts  --      6.0175                 6.0967                 6.0280
 IR Inten    --      6.7609                27.3733                84.0042

                     49                     50                     51
                      A                      A                      A
 Frequencies --   3138.9872              3150.9412              3162.0890
 Red. masses --      1.0886                 1.0882                 1.0929
 Frc consts  --      6.3198                 6.3655                 6.4386
 IR Inten    --     13.2350                10.6579                47.8595

 - Thermochemistry -
 -------------------
 Temperature   298.150 Kelvin.  Pressure   1.00000 Atm.
 Atom     1 has atomic number  6 and mass  12.00000

 Molecular mass:   126.06808 amu.
 Principal axes and moments of inertia in atomic units:
                           1         2         3
     Eigenvalues --   820.26876 820.88285 955.00190
           X            0.06344   0.99702   0.04381
           Y            0.99798  -0.06349  -0.00010
           Z           -0.00268  -0.04372   0.99904
 This molecule is an asymmetric top.
 Rotational symmetry number  1.
 Warning -- assumption of classical behavior for rotation
           may cause significant error
 Rotational temperatures (Kelvin)      0.10559     0.10551     0.09069
 Rotational constants (GHZ):           2.20018     2.19854     1.88978
 Zero-point vibrational energy     428441.4 (Joules/Mol)
                                  102.39996 (Kcal/Mol)
 Warning -- explicit consideration of   7 degrees of freedom as
           vibrations may cause significant error
 Vibrational temperatures:    145.71   273.71   493.50   504.57   618.43
          (Kelvin)            719.62   794.59   899.39   963.64  1052.76
                             1119.74  1131.88  1251.31  1287.18  1313.11
                             1346.01  1380.51  1436.00  1442.84  1537.42
                             1559.77  1589.23  1600.28  1617.14  1618.27
                             1686.07  1780.52  1798.34  1805.76  1823.17
                             1903.34  1931.41  1935.07  1964.67  1980.43
                             2035.45  2047.57  2077.93  2153.38  2169.42
                             2190.03  4271.56  4273.02  4348.19  4380.74
                             4396.74  4404.38  4406.06  4516.30  4533.50
                             4549.54

 Zero-point correction=                           0.163185 (Hartree/Particle)
 Thermal correction to Energy=                    0.169921
 Thermal correction to Enthalpy=                  0.170865
 Thermal correction to Gibbs Free Energy=         0.132143
 Sum of electronic and zero-point Energies=           -423.008092
 Sum of electronic and thermal Energies=              -423.001355
 Sum of electronic and thermal Enthalpies=            -423.000411
 Sum of electronic and thermal Free Energies=         -423.039133

                     E (Thermal)             CV                S
                      KCal/Mol        Cal/Mol-Kelvin    Cal/Mol-Kelvin
 Total                  106.627             27.596             81.498
 Electronic               0.000              0.000              0.000
 Translational            0.889              2.981             40.409
 Rotational               0.889              2.981             27.955
 Vibrational            104.850             21.635             13.135
 Vibration     1          0.604              1.948              3.430
 Vibration     2          0.634              1.853              2.225
 Vibration     3          0.722              1.590              1.198
 Vibration     4          0.728              1.574              1.163
 Vibration     5          0.791              1.405              0.859
 Vibration     6          0.856              1.250              0.658
 Vibration     7          0.908              1.135              0.539

 Optimization completed.
    -- Stationary point found.
 Normal termination of Gaussian 09 at Mon Jan 27 13:37:31 2020.
