 Gaussian 09, Revision D.01,
 Gaussian 09:  ES64L-G09RevD.01 24-Apr-2013

 -----------------------------
 # b3lyp 6-31G(2df,p) opt Freq
 -----------------------------

 -----
 titel
 -----
 Symbolic Z-matrix:
 Charge =  0 Multiplicity = 1

 SCF Done:  E(RB3LYP) =  -423.122418030     A.U. after   12 cycles
 Optimization completed.
    -- Stationary point found.
 Normal termination of Gaussian 09 at Tue Jan 28 01:52:50 2020.

 ----------------------------------------------------------------------
 #N Geom=AllCheck Guess=TCheck SCRF=Check GenChk RB3LYP/6-31G(2df,p) Fr
 eq
 ----------------------------------------------------------------------

 Structure from the checkpoint file:  "/scratch/puck/g09_8bbf5b23-410e-473e-89d4-6e2c57fe9f16/Gau-190714.chk"
 -----
 titel
 -----
 Charge =  0 Multiplicity = 1

                         Standard orientation:
 ---------------------------------------------------------------------
 Center     Atomic      Atomic             Coordinates (Angstroms)
 Number     Number       Type             X           Y           Z
 ---------------------------------------------------------------------
      1          6           0       -2.324076    1.312790    0.133250
      2          6           0       -1.398556    0.164881   -0.094218
      3          6           0       -1.742725   -1.287682   -0.215641
      4          6           0       -0.702384   -0.840405    0.801072
      5          6           0        0.541825   -0.438173    0.061599
      6          6           0        1.789940   -1.129443   -0.392809
      7          6           0        1.857748    0.077886    0.540799
      8          8           0        2.273599    1.311467    0.048929
      9          8           0       -0.183171    0.430970   -0.836143
     10          1           0       -1.807630    2.145060    0.621449
     11          1           0       -2.729600    1.672762   -0.819067
     12          1           0       -3.164312    1.005399    0.762087
     13          1           0       -2.697721   -1.577737    0.212199
     14          1           0       -1.441494   -1.843945   -1.098542
     15          1           0       -0.782459   -1.016707    1.865349
     16          1           0        2.018530   -2.111759    0.008527
     17          1           0        2.091088   -0.962686   -1.421912
     18          1           0        2.151784   -0.094593    1.573717
     19          1           0        1.507758    1.685583   -0.410417
 ---------------------------------------------------------------------

 SCF Done:  E(RB3LYP) =  -423.122418030     A.U. after    1 cycles

 The electronic state is 1-A.
 Alpha  occ. eigenvalues --  -19.15111 -19.13174 -10.25219 -10.24397 -10.23082
 Alpha  occ. eigenvalues --  -10.20156 -10.19360 -10.19157 -10.17938  -1.06572
 Alpha  occ. eigenvalues --   -1.01690  -0.84397  -0.83366  -0.73864  -0.64271
 Alpha  occ. eigenvalues --   -0.60335  -0.58104  -0.53332  -0.52393  -0.51046
 Alpha  occ. eigenvalues --   -0.46204  -0.45390  -0.43384  -0.41323  -0.40389
 Alpha  occ. eigenvalues --   -0.39503  -0.38799  -0.36471  -0.34597  -0.32940
 Alpha  occ. eigenvalues --   -0.32133  -0.25947  -0.24767  -0.23086
 Alpha virt. eigenvalues --    0.06346   0.09867   0.10138   0.11815   0.12622
 Alpha virt. eigenvalues --    0.13166   0.13556   0.14374   0.15880   0.16319
 Alpha virt. eigenvalues --    0.17803   0.18748   0.19356   0.20841   0.22343

 Mulliken charges:
               1
     1  C   -0.488219
     2  C    0.463179
     3  C   -0.335792
     4  C   -0.283230
     5  C    0.415233
     6  C   -0.396302
     7  C    0.049554
     8  O   -0.433860
     9  O   -0.359254
    10  H    0.130450
    11  H    0.135659
    12  H    0.127837
    13  H    0.114971
    14  H    0.119318
    15  H    0.105398
    16  H    0.116199
    17  H    0.128300
    18  H    0.097701
    19  H    0.292858
 Sum of Mulliken charges =   0.00000

 Dipole moment (field-independent basis, Debye):
    X=             -2.4195    Y=             -1.0276    Z=              1.0401  Tot=              2.8270
 Quadrupole moment (field-independent basis, Debye-Ang):
   XX=            -54.9725   YY=            -52.5595   ZZ=            -52.1631
   XY=             -3.9646   XZ=             -0.8817   YZ=             -0.7852

  Exact polarizability:  89.618  -1.922  76.028   0.959   0.193  64.217
 Approx polarizability: 116.929   0.224 111.286   3.310  -2.792 100.661

                      1                      2                      3
                      A                      A                      A
 Frequencies --    101.3914               159.6401               187.6108
 Red. masses --      4.2654                 3.2369                 1.5579
 Frc consts  --      0.0258                 0.0486                 0.0323
 IR Inten    --      0.1168                 2.1963                 1.5153

                      4                      5                      6
                      A                      A                      A
 Frequencies --    214.9049               310.6994               315.6029
 Red. masses --      1.7741                 2.7579                 2.4892
 Frc consts  --      0.0483                 0.1569                 0.1461
 IR Inten    --      3.1159                 1.9653                 2.4680

                      7                      8                      9
                      A                      A                      A
 Frequencies --    360.2471               402.4405               446.2549
 Red. masses --      2.5252                 1.5552                 1.5990
 Frc consts  --      0.1931                 0.1484                 0.1876
 IR Inten    --      9.7679                30.2470                10.2337

                     10                     11                     12
                      A                      A                      A
 Frequencies --    474.8786               547.1632               618.7404
 Red. masses --      2.5289                 3.6590                 2.9489
 Frc consts  --      0.3360                 0.6454                 0.6652
 IR Inten    --      6.9537                 6.2324                 7.0447

                     13                     14                     15
                      A                      A                      A
 Frequencies --    677.9000               804.7367               813.7356
 Red. masses --      3.3340                 2.4014                 2.5135
 Frc consts  --      0.9027                 0.9163                 0.9806
 IR Inten    --      8.1268                 8.5419                 2.9429

                     16                     17                     18
                      A                      A                      A
 Frequencies --    836.8160               867.9848               915.5202
 Red. masses --      1.7102                 2.7498                 1.7522
 Frc consts  --      0.7056                 1.2206                 0.8653
 IR Inten    --      3.7399                37.1830                28.0623

                     19                     20                     21
                      A                      A                      A
 Frequencies --    952.2712               964.0155               975.1070
 Red. masses --      2.6761                 1.6039                 1.7940
 Frc consts  --      1.4298                 0.8782                 1.0050
 IR Inten    --     23.6277                13.7345                26.4073

                     22                     23                     24
                      A                      A                      A
 Frequencies --    991.0295              1000.8323              1029.1606
 Red. masses --      1.8095                 2.1393                 1.5190
 Frc consts  --      1.0471                 1.2625                 0.9480
 IR Inten    --      7.0251                 6.0969                23.9505

                     25                     26                     27
                      A                      A                      A
 Frequencies --   1069.8414              1091.0044              1096.1252
 Red. masses --      1.3315                 1.4845                 2.2856
 Frc consts  --      0.8979                 1.0411                 1.6180
 IR Inten    --      2.3331                 1.6086                18.4763

                     28                     29                     30
                      A                      A                      A
 Frequencies --   1120.5127              1149.6111              1166.3342
 Red. masses --      1.9686                 2.7909                 2.3575
 Frc consts  --      1.4563                 2.1732                 1.8895
 IR Inten    --     10.9228               137.7542                10.2613

                     31                     32                     33
                      A                      A                      A
 Frequencies --   1223.2769              1255.4328              1320.8972
 Red. masses --      1.6545                 2.7590                 1.5641
 Frc consts  --      1.4587                 2.5621                 1.6079
 IR Inten    --     30.8343                13.8273                 1.2128

                     34                     35                     36
                      A                      A                      A
 Frequencies --   1382.4494              1393.1899              1417.7832
 Red. masses --      1.5394                 1.4469                 1.1663
 Frc consts  --      1.7334                 1.6547                 1.3812
 IR Inten    --      6.3263                52.4449                33.4415

                     37                     38                     39
                      A                      A                      A
 Frequencies --   1426.5774              1474.4113              1480.4598
 Red. masses --      1.5765                 1.0547                 1.6869
 Frc consts  --      1.8903                 1.3508                 2.1784
 IR Inten    --      7.4554                 5.1462                43.0702

                     40                     41                     42
                      A                      A                      A
 Frequencies --   1496.2755              1506.7004              3034.1021
 Red. masses --      1.2358                 2.0410                 1.0358
 Frc consts  --      1.6301                 2.7299                 5.6182
 IR Inten    --      9.9468                 3.6333                23.4261

                     43                     44                     45
                      A                      A                      A
 Frequencies --   3098.3150              3116.8347              3119.2455
 Red. masses --      1.1005                 1.0654                 1.0884
 Frc consts  --      6.2240                 6.0978                 6.2393
 IR Inten    --     15.4264                 3.8530                21.7761

                     46                     47                     48
                      A                      A                      A
 Frequencies --   3125.6610              3131.4506              3200.4288
 Red. masses --      1.0555                 1.0875                 1.0986
 Frc consts  --      6.0758                 6.2829                 6.6297
 IR Inten    --      5.4182                22.9101                 4.2389

                     49                     50                     51
                      A                      A                      A
 Frequencies --   3210.7357              3221.2969              3725.7603
 Red. masses --      1.1127                 1.1167                 1.0654
 Frc consts  --      6.7582                 6.8274                 8.7137
 IR Inten    --     10.3813                 4.1953                48.4123

 - Thermochemistry -
 -------------------
 Temperature   298.150 Kelvin.  Pressure   1.00000 Atm.
 Atom     1 has atomic number  6 and mass  12.00000

 Molecular mass:   126.06808 amu.
 Principal axes and moments of inertia in atomic units:
                           1         2         3
     Eigenvalues --   561.817161357.192271659.82625
           X            0.99938  -0.03464  -0.00672
           Y            0.03472   0.99932   0.01253
           Z            0.00628  -0.01276   0.99990
 This molecule is an asymmetric top.
 Rotational symmetry number  1.
 Warning -- assumption of classical behavior for rotation
           may cause significant error
 Rotational temperatures (Kelvin)      0.15417     0.06382     0.05218
 Rotational constants (GHZ):           3.21233     1.32976     1.08731
 Zero-point vibrational energy     412851.6 (Joules/Mol)
                                   98.67390 (Kcal/Mol)
 Warning -- explicit consideration of  12 degrees of freedom as
           vibrations may cause significant error
 Vibrational temperatures:    145.88   229.69   269.93   309.20   447.03
          (Kelvin)            454.08   518.31   579.02   642.06   683.24
                              787.24   890.23   975.35  1157.84  1170.78
                             1203.99  1248.83  1317.23  1370.10  1387.00
                             1402.96  1425.87  1439.97  1480.73  1539.26
                             1569.71  1577.08  1612.17  1654.03  1678.09
                             1760.02  1806.29  1900.47  1989.03  2004.49
                             2039.87  2052.52  2121.35  2130.05  2152.80
                             2167.80  4365.39  4457.78  4484.42  4487.89
                             4497.12  4505.45  4604.70  4619.53  4634.72
                             5360.53

 Zero-point correction=                           0.157247 (Hartree/Particle)
 Thermal correction to Energy=                    0.165792
 Thermal correction to Enthalpy=                  0.166737
 Thermal correction to Gibbs Free Energy=         0.124494
 Sum of electronic and zero-point Energies=           -422.965171
 Sum of electronic and thermal Energies=              -422.956626
 Sum of electronic and thermal Enthalpies=            -422.955682
 Sum of electronic and thermal Free Energies=         -422.997924

                     E (Thermal)             CV                S
                      KCal/Mol        Cal/Mol-Kelvin    Cal/Mol-Kelvin
 Total                  104.036             33.569             88.907
 Electronic               0.000              0.000              0.000
 Translational            0.889              2.981             40.409
 Rotational               0.889              2.981             28.628
 Vibrational            102.259             27.608             19.871
 Vibration     1          0.604              1.948              3.427
 Vibration     2          0.622              1.892              2.554
 Vibration     3          0.632              1.857              2.251
 Vibration     4          0.645              1.818              2.002
 Vibration     5          0.700              1.653              1.359
 Vibration     6          0.703              1.644              1.333
 Vibration     7          0.735              1.554              1.121
 Vibration     8          0.768              1.465              0.954
 Vibration     9          0.806              1.369              0.807
 Vibration    10          0.832              1.306              0.724
 Vibration    11          0.902              1.146              0.550
 Vibration    12          0.979              0.992              0.419

 Normal termination of Gaussian 09 at Tue Jan 28 02:40:30 2020.
