 Gaussian 09, Revision D.01,
 Gaussian 09:  ES64L-G09RevD.01 24-Apr-2013

 -----------------------------
 # b3lyp 6-31G(2df,p) opt Freq
 -----------------------------

 -----
 titel
 -----
 Symbolic Z-matrix:
 Charge =  0 Multiplicity = 1

 SCF Done:  E(RB3LYP) =  -423.158198093     A.U. after   13 cycles
 Optimization completed.
    -- Stationary point found.
 Normal termination of Gaussian 09 at Mon Jan 27 11:29:33 2020.

 ----------------------------------------------------------------------
 #N Geom=AllCheck Guess=TCheck SCRF=Check GenChk RB3LYP/6-31G(2df,p) Fr
 eq
 ----------------------------------------------------------------------

 Structure from the checkpoint file:  "/scratch/puck/g09_1269f663-5264-4466-a492-ce13288d6b5d/Gau-61225.chk"
 -----
 titel
 -----
 Charge =  0 Multiplicity = 1

                         Standard orientation:
 ---------------------------------------------------------------------
 Center     Atomic      Atomic             Coordinates (Angstroms)
 Number     Number       Type             X           Y           Z
 ---------------------------------------------------------------------
      1          6           0       -0.000059    2.024607   -0.000028
      2          6           0       -1.208201    1.180665    0.459902
      3          6           0       -1.509673   -0.004145   -0.438135
      4          8           0       -1.870233   -1.224148    0.225663
      5          6           0       -0.609576   -1.170929   -0.442305
      6          6           0        0.609621   -1.170913    0.442255
      7          8           0        1.870304   -1.224063   -0.225651
      8          6           0        1.509664   -0.004088    0.438171
      9          6           0        1.208166    1.180715   -0.459869
     10          1           0       -0.288306    2.684855   -0.826063
     11          1           0        0.288129    2.684989    0.825919
     12          1           0       -1.016501    0.779677    1.459879
     13          1           0       -2.094948    1.817709    0.547306
     14          1           0       -2.089255    0.195825   -1.340238
     15          1           0       -0.536354   -1.793112   -1.334713
     16          1           0        0.536381   -1.793123    1.334646
     17          1           0        2.089200    0.195874    1.340302
     18          1           0        2.094880    1.817811   -0.547221
     19          1           0        1.016556    0.779708   -1.459856
 ---------------------------------------------------------------------

 SCF Done:  E(RB3LYP) =  -423.158198093     A.U. after    1 cycles

 The electronic state is 1-A.
 Alpha  occ. eigenvalues --  -19.15294 -19.15294 -10.23965 -10.23965 -10.23885
 Alpha  occ. eigenvalues --  -10.23861 -10.19461 -10.19072 -10.19071  -1.07867
 Alpha  occ. eigenvalues --   -1.06766  -0.80980  -0.73337  -0.71431  -0.65994
 Alpha  occ. eigenvalues --   -0.63649  -0.57462  -0.55967  -0.51544  -0.50644
 Alpha  occ. eigenvalues --   -0.46194  -0.46140  -0.44579  -0.42443  -0.39957
 Alpha  occ. eigenvalues --   -0.39636  -0.36241  -0.35888  -0.34079  -0.33957
 Alpha  occ. eigenvalues --   -0.31847  -0.28745  -0.27003  -0.26379
 Alpha virt. eigenvalues --    0.06973   0.08747   0.08796   0.10910   0.11416
 Alpha virt. eigenvalues --    0.12221   0.14365   0.14585   0.16378   0.16825
 Alpha virt. eigenvalues --    0.17222   0.17805   0.19904   0.19950   0.21226

 Mulliken charges:
               1
     1  C   -0.208161
     2  C   -0.232851
     3  C    0.064761
     4  O   -0.258263
     5  C    0.005886
     6  C    0.005915
     7  O   -0.258264
     8  C    0.064746
     9  C   -0.232847
    10  H    0.105197
    11  H    0.105196
    12  H    0.117858
    13  H    0.103625
    14  H    0.092176
    15  H    0.105680
    16  H    0.105679
    17  H    0.092179
    18  H    0.103626
    19  H    0.117860
 Sum of Mulliken charges =   0.00000

 Dipole moment (field-independent basis, Debye):
    X=             -0.0001    Y=              2.3076    Z=              0.0000  Tot=              2.3076
 Quadrupole moment (field-independent basis, Debye-Ang):
   XX=            -58.6105   YY=            -53.5122   ZZ=            -51.0749
   XY=             -0.0001   XZ=              3.6783   YZ=              0.0002

  Exact polarizability:  76.078   0.000  79.594   2.106   0.000  63.743
 Approx polarizability: 110.233   0.000 114.234  -1.563   0.000  99.779

                      1                      2                      3
                      A                      A                      A
 Frequencies --    183.7214               197.5016               263.7719
 Red. masses --      3.1144                 1.9559                 3.2776
 Frc consts  --      0.0619                 0.0450                 0.1344
 IR Inten    --      1.0924                 0.2981                 8.5335

                      4                      5                      6
                      A                      A                      A
 Frequencies --    303.9615               321.3368               413.6937
 Red. masses --      3.9842                 3.1607                 5.8346
 Frc consts  --      0.2169                 0.1923                 0.5883
 IR Inten    --      4.9832                 2.6059                 2.0093

                      7                      8                      9
                      A                      A                      A
 Frequencies --    433.6038               478.5912               584.1398
 Red. masses --      4.6951                 4.2238                 2.5530
 Frc consts  --      0.5201                 0.5700                 0.5133
 IR Inten    --      5.6400                 2.6752                 0.4571

                     10                     11                     12
                      A                      A                      A
 Frequencies --    653.3927               795.0754               810.9122
 Red. masses --      1.9202                 2.4113                 3.2419
 Frc consts  --      0.4830                 0.8981                 1.2560
 IR Inten    --      2.1399                18.8035                20.5804

                     13                     14                     15
                      A                      A                      A
 Frequencies --    828.9964               839.3473               863.4166
 Red. masses --      2.0645                 3.3511                 3.6180
 Frc consts  --      0.8359                 1.3910                 1.5891
 IR Inten    --      1.0618                 6.0345                12.4706

                     16                     17                     18
                      A                      A                      A
 Frequencies --    888.5416               961.0261               962.8417
 Red. masses --      3.7376                 1.8466                 2.3820
 Frc consts  --      1.7386                 1.0048                 1.3011
 IR Inten    --      7.3171                 2.3528                38.9560

                     19                     20                     21
                      A                      A                      A
 Frequencies --   1012.9257              1058.0287              1072.5401
 Red. masses --      1.7845                 2.6794                 2.8576
 Frc consts  --      1.0788                 1.7672                 1.9368
 IR Inten    --      2.8386                 2.5008                 3.1879

                     22                     23                     24
                      A                      A                      A
 Frequencies --   1085.4737              1095.1488              1104.2042
 Red. masses --      1.5279                 1.3039                 1.9752
 Frc consts  --      1.0607                 0.9214                 1.4189
 IR Inten    --      2.3777                 1.3337                 9.5469

                     25                     26                     27
                      A                      A                      A
 Frequencies --   1158.0543              1162.8204              1218.4835
 Red. masses --      1.5269                 1.4579                 1.3445
 Frc consts  --      1.2065                 1.1614                 1.1761
 IR Inten    --      2.5610                 0.5989                 0.2527

                     28                     29                     30
                      A                      A                      A
 Frequencies --   1222.6800              1268.1763              1276.5757
 Red. masses --      1.5091                 1.3072                 1.3030
 Frc consts  --      1.3292                 1.2386                 1.2511
 IR Inten    --      6.1744                 5.5658                 1.6301

                     31                     32                     33
                      A                      A                      A
 Frequencies --   1300.6429              1316.4597              1352.6349
 Red. masses --      1.1747                 1.3106                 1.3632
 Frc consts  --      1.1708                 1.3383                 1.4695
 IR Inten    --      1.5470                 2.6582                 3.0361

                     34                     35                     36
                      A                      A                      A
 Frequencies --   1369.9190              1385.2368              1399.9674
 Red. masses --      1.3428                 1.4050                 1.5006
 Frc consts  --      1.4847                 1.5885                 1.7329
 IR Inten    --      2.7496                 4.2155                 1.2324

                     37                     38                     39
                      A                      A                      A
 Frequencies --   1463.6168              1467.3650              1488.7363
 Red. masses --      2.8628                 3.4287                 1.0870
 Frc consts  --      3.6132                 4.3497                 1.4194
 IR Inten    --      6.2579                12.2846                 1.2869

                     40                     41                     42
                      A                      A                      A
 Frequencies --   1498.6418              1505.2064              3032.8538
 Red. masses --      1.0820                 1.1305                 1.0606
 Frc consts  --      1.4317                 1.5091                 5.7480
 IR Inten    --     11.7207                 3.4074                22.4381

                     43                     44                     45
                      A                      A                      A
 Frequencies --   3046.4180              3050.8170              3064.1172
 Red. masses --      1.0627                 1.0615                 1.1017
 Frc consts  --      5.8106                 5.8213                 6.0942
 IR Inten    --     29.6051                17.9054                21.7124

                     46                     47                     48
                      A                      A                      A
 Frequencies --   3085.8165              3089.9708              3101.3672
 Red. masses --      1.0972                 1.0950                 1.0890
 Frc consts  --      6.1555                 6.1596                 6.1716
 IR Inten    --      8.3719                 1.6593                20.2833

                     49                     50                     51
                      A                      A                      A
 Frequencies --   3103.2027              3113.1292              3113.7486
 Red. masses --      1.0883                 1.0920                 1.0939
 Frc consts  --      6.1746                 6.2356                 6.2489
 IR Inten    --     28.8341                93.7571                 2.2722

 - Thermochemistry -
 -------------------
 Temperature   298.150 Kelvin.  Pressure   1.00000 Atm.
 Atom     1 has atomic number  6 and mass  12.00000

 Molecular mass:   126.06808 amu.
 Principal axes and moments of inertia in atomic units:
                           1         2         3
     Eigenvalues --   791.01025 930.314511510.85730
           X            0.99994  -0.00001   0.01104
           Y            0.00001   1.00000   0.00000
           Z           -0.01104   0.00000   0.99994
 This molecule is an asymmetric top.
 Rotational symmetry number  1.
 Warning -- assumption of classical behavior for rotation
           may cause significant error
 Rotational temperatures (Kelvin)      0.10950     0.09310     0.05733
 Rotational constants (GHZ):           2.28156     1.93993     1.19451
 Zero-point vibrational energy     423889.9 (Joules/Mol)
                                  101.31211 (Kcal/Mol)
 Warning -- explicit consideration of   9 degrees of freedom as
           vibrations may cause significant error
 Vibrational temperatures:    264.33   284.16   379.51   437.33   462.33
          (Kelvin)            595.21   623.86   688.59   840.45   940.09
                             1143.93  1166.72  1192.74  1207.63  1242.26
                             1278.41  1382.70  1385.31  1457.37  1522.27
                             1543.14  1561.75  1575.67  1588.70  1666.18
                             1673.04  1753.12  1759.16  1824.62  1836.71
                             1871.33  1894.09  1946.14  1971.01  1993.04
                             2014.24  2105.82  2111.21  2141.96  2156.21
                             2165.65  4363.59  4383.11  4389.44  4408.58
                             4439.80  4445.77  4462.17  4464.81  4479.09
                             4479.98

 Zero-point correction=                           0.161451 (Hartree/Particle)
 Thermal correction to Energy=                    0.168670
 Thermal correction to Enthalpy=                  0.169614
 Thermal correction to Gibbs Free Energy=         0.130102
 Sum of electronic and zero-point Energies=           -422.996747
 Sum of electronic and thermal Energies=              -422.989528
 Sum of electronic and thermal Enthalpies=            -422.988584
 Sum of electronic and thermal Free Energies=         -423.028096

                     E (Thermal)             CV                S
                      KCal/Mol        Cal/Mol-Kelvin    Cal/Mol-Kelvin
 Total                  105.842             29.375             83.159
 Electronic               0.000              0.000              0.000
 Translational            0.889              2.981             40.409
 Rotational               0.889              2.981             28.499
 Vibrational            104.064             23.413             14.252
 Vibration     1          0.631              1.862              2.290
 Vibration     2          0.637              1.843              2.156
 Vibration     3          0.670              1.739              1.637
 Vibration     4          0.695              1.666              1.395
 Vibration     5          0.707              1.633              1.303
 Vibration     6          0.777              1.441              0.914
 Vibration     7          0.794              1.397              0.847
 Vibration     8          0.835              1.298              0.714
 Vibration     9          0.941              1.066              0.478

 Normal termination of Gaussian 09 at Mon Jan 27 13:50:21 2020.
