 Gaussian 09, Revision D.01,
 Gaussian 09:  ES64L-G09RevD.01 24-Apr-2013

 -----------------------------
 # b3lyp 6-31G(2df,p) opt Freq
 -----------------------------

 -----
 titel
 -----
 Symbolic Z-matrix:
 Charge =  0 Multiplicity = 1

 SCF Done:  E(RB3LYP) =  -423.126438814     A.U. after   12 cycles
 Optimization completed.
    -- Stationary point found.
 Normal termination of Gaussian 09 at Mon Jan 27 16:58:22 2020.

 ----------------------------------------------------------------------
 #N Geom=AllCheck Guess=TCheck SCRF=Check GenChk RB3LYP/6-31G(2df,p) Fr
 eq
 ----------------------------------------------------------------------

 Structure from the checkpoint file:  "/scratch/puck/g09_93cdf9b1-ec7c-4456-aec1-f95afcf9b78b/Gau-41773.chk"
 -----
 titel
 -----
 Charge =  0 Multiplicity = 1

                         Standard orientation:
 ---------------------------------------------------------------------
 Center     Atomic      Atomic             Coordinates (Angstroms)
 Number     Number       Type             X           Y           Z
 ---------------------------------------------------------------------
      1          6           0        1.490419   -1.007609   -1.089438
      2          6           0        0.767421   -0.339160    0.069108
      3          8           0        1.697691   -0.006814    1.103307
      4          6           0       -0.453738   -1.015228    0.767649
      5          6           0       -1.493886   -1.262517   -0.358097
      6          6           0       -1.583012    0.260621   -0.453406
      7          6           0       -1.077784    0.424592    0.971809
      8          6           0       -0.190370    0.829694   -0.178043
      9          8           0        0.141027    2.092049   -0.626591
     10          1           0        2.020029   -1.902785   -0.748152
     11          1           0        0.808855   -1.285517   -1.896087
     12          1           0        2.228781   -0.318152   -1.518573
     13          1           0        2.456016    0.413318    0.684332
     14          1           0       -0.258100   -1.742876    1.551876
     15          1           0       -1.187195   -1.847424   -1.231804
     16          1           0       -2.420070   -1.680883    0.046531
     17          1           0       -2.316409    0.871104   -0.965335
     18          1           0       -1.467580    0.959454    1.824104
     19          1           0        0.671634    2.509532    0.061893
 ---------------------------------------------------------------------

 SCF Done:  E(RB3LYP) =  -423.126438814     A.U. after    1 cycles

 The electronic state is 1-A.
 Alpha  occ. eigenvalues --  -19.15037 -19.13507 -10.23268 -10.23012 -10.19128
 Alpha  occ. eigenvalues --  -10.18857 -10.18273 -10.18225 -10.17447  -1.04006
 Alpha  occ. eigenvalues --   -1.01499  -0.91585  -0.74158  -0.70646  -0.67552
 Alpha  occ. eigenvalues --   -0.60805  -0.55110  -0.53912  -0.52958  -0.47275
 Alpha  occ. eigenvalues --   -0.46327  -0.45076  -0.43779  -0.40288  -0.39102
 Alpha  occ. eigenvalues --   -0.38584  -0.35634  -0.35080  -0.33394  -0.31495
 Alpha  occ. eigenvalues --   -0.29586  -0.28435  -0.24486  -0.23137
 Alpha virt. eigenvalues --    0.05749   0.09572   0.11553   0.12362   0.12489
 Alpha virt. eigenvalues --    0.13238   0.14318   0.15593   0.16519   0.17164
 Alpha virt. eigenvalues --    0.18600   0.19375   0.20954   0.21292   0.23022

 Mulliken charges:
               1
     1  C   -0.482957
     2  C    0.353784
     3  O   -0.492569
     4  C   -0.103073
     5  C   -0.252069
     6  C   -0.114118
     7  C   -0.163807
     8  C    0.355544
     9  O   -0.471652
    10  H    0.122537
    11  H    0.126758
    12  H    0.110714
    13  H    0.273819
    14  H    0.076767
    15  H    0.088585
    16  H    0.101667
    17  H    0.091461
    18  H    0.092688
    19  H    0.285922
 Sum of Mulliken charges =   0.00000

 Dipole moment (field-independent basis, Debye):
    X=              0.6685    Y=              0.1054    Z=              0.0337  Tot=              0.6776
 Quadrupole moment (field-independent basis, Debye-Ang):
   XX=            -48.9793   YY=            -51.5922   ZZ=            -55.9222
   XY=              2.8812   XZ=             -1.7184   YZ=              3.4419

  Exact polarizability:  79.888   2.540  74.389  -0.607   1.565  67.896
 Approx polarizability: 111.297   5.279 108.246   1.447  -0.464 108.280

                      1                      2                      3
                      A                      A                      A
 Frequencies --    176.2516               190.4527               213.6054
 Red. masses --      1.7037                 2.5015                 1.1045
 Frc consts  --      0.0312                 0.0535                 0.0297
 IR Inten    --     40.6564                 5.0571               110.8734

                      4                      5                      6
                      A                      A                      A
 Frequencies --    217.9758               249.7612               326.0843
 Red. masses --      3.0270                 2.1459                 2.5401
 Frc consts  --      0.0847                 0.0789                 0.1591
 IR Inten    --      3.5505                 7.6425                 6.8485

                      7                      8                      9
                      A                      A                      A
 Frequencies --    387.0356               403.8649               436.0906
 Red. masses --      3.2167                 1.2042                 3.0827
 Frc consts  --      0.2839                 0.1157                 0.3454
 IR Inten    --      8.3874                26.0548                 3.6232

                     10                     11                     12
                      A                      A                      A
 Frequencies --    484.8758               563.7019               634.5525
 Red. masses --      2.2745                 3.9435                 3.9070
 Frc consts  --      0.3151                 0.7383                 0.9269
 IR Inten    --      8.4453                 2.3484                 3.3252

                     13                     14                     15
                      A                      A                      A
 Frequencies --    659.4327               739.6727               811.5935
 Red. masses --      3.5308                 3.1659                 2.4819
 Frc consts  --      0.9046                 1.0205                 0.9632
 IR Inten    --      5.9364                 4.4715                 4.3038

                     16                     17                     18
                      A                      A                      A
 Frequencies --    832.8961               850.2517               904.1463
 Red. masses --      1.3106                 2.0861                 3.7640
 Frc consts  --      0.5357                 0.8885                 1.8129
 IR Inten    --      2.6989                 6.0664                 7.6440

                     19                     20                     21
                      A                      A                      A
 Frequencies --    927.5655               946.3853               949.6255
 Red. masses --      1.8407                 1.7353                 2.0167
 Frc consts  --      0.9331                 0.9157                 1.0715
 IR Inten    --      6.1563                 8.4357                23.8508

                     22                     23                     24
                      A                      A                      A
 Frequencies --    979.0464               996.6892              1036.2280
 Red. masses --      2.0091                 1.8459                 1.5560
 Frc consts  --      1.1346                 1.0804                 0.9844
 IR Inten    --      0.6329                 0.1008                 9.0954

                     25                     26                     27
                      A                      A                      A
 Frequencies --   1082.7692              1108.2914              1130.0329
 Red. masses --      1.6141                 1.6185                 1.7964
 Frc consts  --      1.1150                 1.1713                 1.3515
 IR Inten    --     23.5697                14.7095                48.1025

                     28                     29                     30
                      A                      A                      A
 Frequencies --   1144.2334              1157.9481              1189.0354
 Red. masses --      1.9294                 2.2004                 1.7521
 Frc consts  --      1.4884                 1.7383                 1.4595
 IR Inten    --      6.0582                20.5675                 8.6314

                     31                     32                     33
                      A                      A                      A
 Frequencies --   1194.6747              1245.3296              1271.5130
 Red. masses --      2.4888                 1.9873                 1.7304
 Frc consts  --      2.0928                 1.8158                 1.6483
 IR Inten    --     30.8368                69.4728                 4.2608

                     34                     35                     36
                      A                      A                      A
 Frequencies --   1301.4625              1326.4255              1384.8784
 Red. masses --      2.1068                 1.5723                 2.0355
 Frc consts  --      2.1025                 1.6299                 2.3000
 IR Inten    --     17.1103                79.8689                26.5778

                     37                     38                     39
                      A                      A                      A
 Frequencies --   1406.5369              1443.0576              1486.9730
 Red. masses --      1.3319                 3.8680                 1.0870
 Frc consts  --      1.5524                 4.7458                 1.4160
 IR Inten    --     16.6689                36.2549                 5.4841

                     40                     41                     42
                      A                      A                      A
 Frequencies --   1491.6332              1514.1453              3026.1715
 Red. masses --      1.0806                 1.0947                 1.0417
 Frc consts  --      1.4166                 1.4787                 5.6205
 IR Inten    --     10.6152                 2.2003                21.9433

                     43                     44                     45
                      A                      A                      A
 Frequencies --   3039.5226              3089.5704              3092.0081
 Red. masses --      1.0583                 1.0989                 1.1018
 Frc consts  --      5.7608                 6.1803                 6.2065
 IR Inten    --     57.3961                29.4570                24.1984

                     46                     47                     48
                      A                      A                      A
 Frequencies --   3129.4024              3145.6611              3195.6573
 Red. masses --      1.0992                 1.0914                 1.0918
 Frc consts  --      6.3424                 6.3628                 6.5689
 IR Inten    --     17.6164                24.0606                14.0302

                     49                     50                     51
                      A                      A                      A
 Frequencies --   3237.1923              3786.0899              3807.7644
 Red. masses --      1.0982                 1.0657                 1.0661
 Frc consts  --      6.7805                 9.0008                 9.1069
 IR Inten    --      5.0480                21.8345                12.9907

 - Thermochemistry -
 -------------------
 Temperature   298.150 Kelvin.  Pressure   1.00000 Atm.
 Atom     1 has atomic number  6 and mass  12.00000

 Molecular mass:   126.06808 amu.
 Principal axes and moments of inertia in atomic units:
                           1         2         3
     Eigenvalues --   810.72128 938.444411195.62049
           X            0.99909   0.01886  -0.03833
           Y           -0.01605   0.99726   0.07221
           Z            0.03959  -0.07153   0.99665
 This molecule is an asymmetric top.
 Rotational symmetry number  1.
 Warning -- assumption of classical behavior for rotation
           may cause significant error
 Rotational temperatures (Kelvin)      0.10684     0.09230     0.07244
 Rotational constants (GHZ):           2.22609     1.92312     1.50946
 Zero-point vibrational energy     414779.8 (Joules/Mol)
                                   99.13475 (Kcal/Mol)
 Warning -- explicit consideration of  11 degrees of freedom as
           vibrations may cause significant error
 Vibrational temperatures:    253.59   274.02   307.33   313.62   359.35
          (Kelvin)            469.16   556.86   581.07   627.44   697.63
                              811.04   912.98   948.78  1064.22  1167.70
                             1198.35  1223.32  1300.86  1334.56  1361.64
                             1366.30  1408.63  1434.01  1490.90  1557.86
                             1594.58  1625.86  1646.29  1666.03  1710.75
                             1718.87  1791.75  1829.42  1872.51  1908.43
                             1992.53  2023.69  2076.24  2139.42  2146.12
                             2178.51  4353.98  4373.19  4445.20  4448.70
                             4502.51  4525.90  4597.83  4657.59  5447.33
                             5478.52

 Zero-point correction=                           0.157981 (Hartree/Particle)
 Thermal correction to Energy=                    0.166370
 Thermal correction to Enthalpy=                  0.167314
 Thermal correction to Gibbs Free Energy=         0.125873
 Sum of electronic and zero-point Energies=           -422.968458
 Sum of electronic and thermal Energies=              -422.960069
 Sum of electronic and thermal Enthalpies=            -422.959125
 Sum of electronic and thermal Free Energies=         -423.000566

                     E (Thermal)             CV                S
                      KCal/Mol        Cal/Mol-Kelvin    Cal/Mol-Kelvin
 Total                  104.399             33.709             87.220
 Electronic               0.000              0.000              0.000
 Translational            0.889              2.981             40.409
 Rotational               0.889              2.981             28.300
 Vibrational            102.621             27.747             18.512
 Vibration     1          0.628              1.872              2.368
 Vibration     2          0.634              1.853              2.223
 Vibration     3          0.644              1.820              2.013
 Vibration     4          0.646              1.814              1.976
 Vibration     5          0.663              1.763              1.732
 Vibration     6          0.710              1.623              1.279
 Vibration     7          0.755              1.498              1.012
 Vibration     8          0.769              1.462              0.949
 Vibration     9          0.797              1.392              0.839
 Vibration    10          0.841              1.284              0.697
 Vibration    11          0.919              1.110              0.516

 Normal termination of Gaussian 09 at Mon Jan 27 17:43:03 2020.
