 Gaussian 09, Revision D.01,
 Gaussian 09:  ES64L-G09RevD.01 24-Apr-2013

 -----------------------------
 # b3lyp 6-31G(2df,p) opt Freq
 -----------------------------

 -----
 titel
 -----
 Symbolic Z-matrix:
 Charge =  0 Multiplicity = 1

 SCF Done:  E(RB3LYP) =  -423.209731757     A.U. after   14 cycles
 Optimization completed.
    -- Stationary point found.
 Normal termination of Gaussian 09 at Tue Jan 28 08:14:15 2020.

 ----------------------------------------------------------------------
 #N Geom=AllCheck Guess=TCheck SCRF=Check GenChk RB3LYP/6-31G(2df,p) Fr
 eq
 ----------------------------------------------------------------------

 Structure from the checkpoint file:  "/scratch/puck/g09_7af45128-c78c-4846-89b7-c1db63bbe138/Gau-17939.chk"
 -----
 titel
 -----
 Charge =  0 Multiplicity = 1

                         Standard orientation:
 ---------------------------------------------------------------------
 Center     Atomic      Atomic             Coordinates (Angstroms)
 Number     Number       Type             X           Y           Z
 ---------------------------------------------------------------------
      1          8           0        2.338577    0.626415    0.056065
      2          6           0        1.039037    0.400777    0.539121
      3          6           0        0.113821    1.607451    0.223861
      4          6           0       -1.000476    1.307537   -0.791284
      5          6           0       -1.760421    0.030669   -0.476674
      6          6           0       -1.876825   -0.487683    0.916961
      7          6           0       -0.924206   -1.184084   -0.047483
      8          6           0        0.529088   -0.939319   -0.014453
      9          8           0        1.339263   -1.733628   -0.456866
     10          1           0        2.638328   -0.242204   -0.260824
     11          1           0        1.062359    0.266009    1.637301
     12          1           0       -0.333137    1.974137    1.153134
     13          1           0        0.756854    2.407497   -0.150338
     14          1           0       -1.695893    2.154322   -0.824394
     15          1           0       -0.572041    1.216960   -1.797491
     16          1           0       -2.580107   -0.198990   -1.150598
     17          1           0       -1.454566    0.081441    1.736606
     18          1           0       -2.763397   -1.051116    1.184498
     19          1           0       -1.201232   -2.162440   -0.421770
 ---------------------------------------------------------------------

 SCF Done:  E(RB3LYP) =  -423.209731757     A.U. after    1 cycles

 The electronic state is 1-A.
 Alpha  occ. eigenvalues --  -19.13497 -19.12433 -10.26983 -10.23740 -10.21625
 Alpha  occ. eigenvalues --  -10.20981 -10.20808 -10.19750 -10.19071  -1.05240
 Alpha  occ. eigenvalues --   -1.00435  -0.89070  -0.78266  -0.72291  -0.65994
 Alpha  occ. eigenvalues --   -0.62161  -0.58783  -0.53691  -0.50282  -0.49772
 Alpha  occ. eigenvalues --   -0.49199  -0.46075  -0.42840  -0.41569  -0.40549
 Alpha  occ. eigenvalues --   -0.38820  -0.37900  -0.36317  -0.35370  -0.33716
 Alpha  occ. eigenvalues --   -0.31111  -0.29082  -0.26952  -0.24786
 Alpha virt. eigenvalues --   -0.01911   0.07596   0.07866   0.11488   0.12251
 Alpha virt. eigenvalues --    0.12787   0.15147   0.15404   0.16110   0.16820
 Alpha virt. eigenvalues --    0.18189   0.19105   0.19194   0.21876   0.22204

 Mulliken charges:
               1
     1  O   -0.441924
     2  C    0.048183
     3  C   -0.247761
     4  C   -0.229072
     5  C   -0.015132
     6  C   -0.308971
     7  C   -0.118408
     8  C    0.376611
     9  O   -0.363330
    10  H    0.289264
    11  H    0.088644
    12  H    0.104189
    13  H    0.127925
    14  H    0.106569
    15  H    0.116785
    16  H    0.101871
    17  H    0.128853
    18  H    0.127389
    19  H    0.108315
 Sum of Mulliken charges =   0.00000

 Dipole moment (field-independent basis, Debye):
    X=             -3.4306    Y=              0.7419    Z=              0.6190  Tot=              3.5641
 Quadrupole moment (field-independent basis, Debye-Ang):
   XX=            -55.3505   YY=            -56.0674   ZZ=            -51.6770
   XY=              1.0300   XZ=              0.6776   YZ=             -1.2203

  Exact polarizability:  85.023  -2.125  76.277  -2.601   1.151  64.214
 Approx polarizability: 122.826 -10.447 113.951  -8.082   5.320 101.378

                      1                      2                      3
                      A                      A                      A
 Frequencies --     71.6494               149.7437               247.9161
 Red. masses --      4.8242                 3.3798                 2.6485
 Frc consts  --      0.0146                 0.0447                 0.0959
 IR Inten    --      0.9478                 0.7981                 1.3548

                      4                      5                      6
                      A                      A                      A
 Frequencies --    319.3274               352.3565               400.7143
 Red. masses --      3.0841                 3.5410                 3.1768
 Frc consts  --      0.1853                 0.2590                 0.3005
 IR Inten    --      6.3620                16.2406                 8.2394

                      7                      8                      9
                      A                      A                      A
 Frequencies --    465.9968               491.1942               513.1299
 Red. masses --      3.4216                 3.8013                 1.9418
 Frc consts  --      0.4378                 0.5404                 0.3012
 IR Inten    --     10.5460                11.0102                18.5326

                     10                     11                     12
                      A                      A                      A
 Frequencies --    537.7520               598.1583               654.9608
 Red. masses --      1.6517                 2.5062                 3.5090
 Frc consts  --      0.2814                 0.5283                 0.8869
 IR Inten    --     43.9726                 3.1869                 3.5433

                     13                     14                     15
                      A                      A                      A
 Frequencies --    755.9701               815.9990               836.8311
 Red. masses --      3.0425                 2.1145                 1.8778
 Frc consts  --      1.0244                 0.8295                 0.7748
 IR Inten    --      2.2100                 1.5126                14.1462

                     16                     17                     18
                      A                      A                      A
 Frequencies --    849.5885               906.4530               944.8286
 Red. masses --      2.4085                 1.8963                 2.3775
 Frc consts  --      1.0243                 0.9180                 1.2505
 IR Inten    --      3.9522                 9.5435                 8.5642

                     19                     20                     21
                      A                      A                      A
 Frequencies --    965.5762              1014.7327              1043.2774
 Red. masses --      1.8508                 2.5853                 1.9818
 Frc consts  --      1.0166                 1.5684                 1.2709
 IR Inten    --     28.3548                13.9877                12.8554

                     22                     23                     24
                      A                      A                      A
 Frequencies --   1058.9835              1074.1298              1113.5116
 Red. masses --      2.0452                 1.2384                 1.5141
 Frc consts  --      1.3513                 0.8418                 1.1061
 IR Inten    --     45.1131                 2.9954                 3.4120

                     25                     26                     27
                      A                      A                      A
 Frequencies --   1128.2028              1144.0070              1201.8293
 Red. masses --      1.1557                 2.7396                 1.3702
 Frc consts  --      0.8667                 2.1125                 1.1661
 IR Inten    --      3.4458                32.0088                 1.8538

                     28                     29                     30
                      A                      A                      A
 Frequencies --   1216.9689              1234.7130              1256.2611
 Red. masses --      1.4298                 1.5855                 1.4930
 Frc consts  --      1.2476                 1.4241                 1.3883
 IR Inten    --      0.3117                78.6776                 3.7462

                     31                     32                     33
                      A                      A                      A
 Frequencies --   1291.1205              1345.6180              1367.0461
 Red. masses --      1.4107                 1.3461                 1.4299
 Frc consts  --      1.3855                 1.4360                 1.5745
 IR Inten    --     33.0962                12.9864                 4.1879

                     34                     35                     36
                      A                      A                      A
 Frequencies --   1368.7383              1384.7920              1405.8447
 Red. masses --      1.7114                 1.6185                 1.6808
 Frc consts  --      1.8891                 1.8287                 1.9572
 IR Inten    --      7.3706                 9.0759                 6.4232

                     37                     38                     39
                      A                      A                      A
 Frequencies --   1434.8214              1482.2811              1489.9600
 Red. masses --      1.4384                 1.2236                 1.0889
 Frc consts  --      1.7447                 1.5840                 1.4243
 IR Inten    --     81.1945                 4.3294                 7.6352

                     40                     41                     42
                      A                      A                      A
 Frequencies --   1502.2523              1769.9610              2914.5431
 Red. masses --      1.1328                11.4119                 1.0795
 Frc consts  --      1.5062                21.0638                 5.4029
 IR Inten    --      1.6820               210.6158                38.3277

                     43                     44                     45
                      A                      A                      A
 Frequencies --   3026.1015              3050.4823              3067.3213
 Red. masses --      1.0606                 1.0766                 1.0896
 Frc consts  --      5.7220                 5.9024                 6.0398
 IR Inten    --     30.0298                 6.8067                39.7680

                     46                     47                     48
                      A                      A                      A
 Frequencies --   3108.4839              3145.6420              3155.8930
 Red. masses --      1.0999                 1.0550                 1.0889
 Frc consts  --      6.2618                 6.1508                 6.3900
 IR Inten    --     13.4204                10.5170                11.7627

                     49                     50                     51
                      A                      A                      A
 Frequencies --   3186.9900              3229.2329              3663.3372
 Red. masses --      1.0910                 1.1154                 1.0642
 Frc consts  --      6.5288                 6.8529                 8.4141
 IR Inten    --      5.0218                 6.2146                65.5066

 - Thermochemistry -
 -------------------
 Temperature   298.150 Kelvin.  Pressure   1.00000 Atm.
 Atom     1 has atomic number  8 and mass  15.99491

 Molecular mass:   126.06808 amu.
 Principal axes and moments of inertia in atomic units:
                           1         2         3
     Eigenvalues --   720.245681092.809331514.15769
           X            0.99979   0.02040   0.00256
           Y           -0.02037   0.99972  -0.01231
           Z           -0.00281   0.01226   0.99992
 This molecule is an asymmetric top.
 Rotational symmetry number  1.
 Warning -- assumption of classical behavior for rotation
           may cause significant error
 Rotational temperatures (Kelvin)      0.12026     0.07926     0.05720
 Rotational constants (GHZ):           2.50573     1.65147     1.19191
 Zero-point vibrational energy     423210.2 (Joules/Mol)
                                  101.14967 (Kcal/Mol)
 Warning -- explicit consideration of  11 degrees of freedom as
           vibrations may cause significant error
 Vibrational temperatures:    103.09   215.45   356.70   459.44   506.96
          (Kelvin)            576.54   670.46   706.72   738.28   773.70
                              860.62   942.34  1087.67  1174.04  1204.01
                             1222.37  1304.18  1359.40  1389.25  1459.97
                             1501.04  1523.64  1545.43  1602.09  1623.23
                             1645.97  1729.16  1750.94  1776.47  1807.48
                             1857.63  1936.04  1966.87  1969.31  1992.40
                             2022.69  2064.39  2132.67  2143.72  2161.40
                             2546.58  4193.37  4353.88  4388.96  4413.19
                             4472.41  4525.87  4540.62  4585.36  4646.14
                             5270.72

 Zero-point correction=                           0.161192 (Hartree/Particle)
 Thermal correction to Energy=                    0.168965
 Thermal correction to Enthalpy=                  0.169909
 Thermal correction to Gibbs Free Energy=         0.128888
 Sum of electronic and zero-point Energies=           -423.048539
 Sum of electronic and thermal Energies=              -423.040767
 Sum of electronic and thermal Enthalpies=            -423.039822
 Sum of electronic and thermal Free Energies=         -423.080844

                     E (Thermal)             CV                S
                      KCal/Mol        Cal/Mol-Kelvin    Cal/Mol-Kelvin
 Total                  106.027             30.996             86.337
 Electronic               0.000              0.000              0.000
 Translational            0.889              2.981             40.409
 Rotational               0.889              2.981             28.568
 Vibrational            104.250             25.034             17.360
 Vibration     1          0.598              1.968              4.108
 Vibration     2          0.618              1.903              2.675
 Vibration     3          0.662              1.766              1.745
 Vibration     4          0.705              1.637              1.314
 Vibration     5          0.729              1.570              1.156
 Vibration     6          0.767              1.469              0.960
 Vibration     7          0.823              1.325              0.749
 Vibration     8          0.847              1.270              0.681
 Vibration     9          0.868              1.221              0.626
 Vibration    10          0.893              1.167              0.570
 Vibration    11          0.956              1.036              0.453

 Optimization completed.
    -- Stationary point found.
 Normal termination of Gaussian 09 at Tue Jan 28 09:01:23 2020.
