 Gaussian 09, Revision D.01,
 Gaussian 09:  ES64L-G09RevD.01 24-Apr-2013

 -----------------------------
 # b3lyp 6-31G(2df,p) opt Freq
 -----------------------------

 -----
 titel
 -----
 Symbolic Z-matrix:
 Charge =  0 Multiplicity = 1

 SCF Done:  E(RB3LYP) =  -423.184932259     A.U. after   14 cycles
 Optimization completed.
    -- Stationary point found.
 Normal termination of Gaussian 09 at Mon Jan 27 13:23:43 2020.

 ----------------------------------------------------------------------
 #N Geom=AllCheck Guess=TCheck SCRF=Check GenChk RB3LYP/6-31G(2df,p) Fr
 eq
 ----------------------------------------------------------------------

 Structure from the checkpoint file:  "/scratch/puck/g09_237fa84a-415a-46c0-acaa-939989bce086/Gau-155456.chk"
 -----
 titel
 -----
 Charge =  0 Multiplicity = 1

                         Standard orientation:
 ---------------------------------------------------------------------
 Center     Atomic      Atomic             Coordinates (Angstroms)
 Number     Number       Type             X           Y           Z
 ---------------------------------------------------------------------
      1          8           0       -3.083650   -0.551934    0.110915
      2          6           0       -2.288529    0.348944    0.167835
      3          6           0       -0.857813    0.255455   -0.337530
      4          6           0       -0.266067   -1.156585   -0.239890
      5          6           0        1.256997   -1.133907   -0.353960
      6          6           0        2.088844   -0.732604    0.843043
      7          6           0        1.986279    0.195290   -0.335583
      8          6           0        1.155905    1.456974   -0.217854
      9          8           0       -0.105291    1.211648    0.387881
     10          1           0       -2.543734    1.345596    0.590491
     11          1           0       -0.891143    0.561290   -1.402406
     12          1           0       -0.576396   -1.613253    0.706012
     13          1           0       -0.702086   -1.769389   -1.033298
     14          1           0        1.680524   -1.906280   -0.987422
     15          1           0        1.549659   -0.451956    1.742429
     16          1           0        3.027518   -1.246370    1.017869
     17          1           0        2.859131    0.296715   -0.973882
     18          1           0        1.651249    2.204440    0.410555
     19          1           0        1.003110    1.900101   -1.217080
 ---------------------------------------------------------------------

 SCF Done:  E(RB3LYP) =  -423.184932259     A.U. after    1 cycles

 The electronic state is 1-A.
 Alpha  occ. eigenvalues --  -19.15326 -19.14517 -10.27193 -10.24379 -10.23714
 Alpha  occ. eigenvalues --  -10.19748 -10.19541 -10.18962 -10.18459  -1.05663
 Alpha  occ. eigenvalues --   -1.04417  -0.86478  -0.78525  -0.69776  -0.67398
 Alpha  occ. eigenvalues --   -0.59132  -0.58075  -0.54562  -0.51242  -0.50064
 Alpha  occ. eigenvalues --   -0.48161  -0.45015  -0.44706  -0.42715  -0.41223
 Alpha  occ. eigenvalues --   -0.39416  -0.38517  -0.37536  -0.35616  -0.32855
 Alpha  occ. eigenvalues --   -0.29228  -0.27962  -0.26291  -0.25380
 Alpha virt. eigenvalues --   -0.02789   0.07801   0.10529   0.11585   0.11710
 Alpha virt. eigenvalues --    0.12946   0.13668   0.14005   0.15222   0.17217
 Alpha virt. eigenvalues --    0.17867   0.18538   0.19551   0.22165   0.23807

 Mulliken charges:
               1
     1  O   -0.244608
     2  C    0.135418
     3  C    0.036942
     4  C   -0.232552
     5  C   -0.041870
     6  C   -0.279904
     7  C   -0.031284
     8  C   -0.102709
     9  O   -0.264787
    10  H    0.093571
    11  H    0.090581
    12  H    0.116452
    13  H    0.117346
    14  H    0.088305
    15  H    0.120616
    16  H    0.109653
    17  H    0.086316
    18  H    0.112450
    19  H    0.090062
 Sum of Mulliken charges =   0.00000

 Dipole moment (field-independent basis, Debye):
    X=              2.5520    Y=              0.7076    Z=             -1.0831  Tot=              2.8612
 Quadrupole moment (field-independent basis, Debye-Ang):
   XX=            -59.0378   YY=            -53.0580   ZZ=            -52.0133
   XY=             -3.4305   XZ=             -0.0766   YZ=             -0.6048

  Exact polarizability:  86.814   2.476  75.442   0.170   0.129  63.205
 Approx polarizability: 113.004   9.972 112.294  -0.143   1.348 100.294

                      1                      2                      3
                      A                      A                      A
 Frequencies --     57.5003               104.7963               188.8131
 Red. masses --      3.9972                 2.2233                 5.1246
 Frc consts  --      0.0078                 0.0144                 0.1076
 IR Inten    --      4.8750                 2.9203                 3.3734

                      4                      5                      6
                      A                      A                      A
 Frequencies --    224.6197               326.9754               346.9500
 Red. masses --      3.4988                 2.0494                 2.7608
 Frc consts  --      0.1040                 0.1291                 0.1958
 IR Inten    --      6.6951                 0.5552                 0.9447

                      7                      8                      9
                      A                      A                      A
 Frequencies --    416.8189               437.9125               520.1497
 Red. masses --      3.5458                 3.1807                 3.4571
 Frc consts  --      0.3630                 0.3594                 0.5511
 IR Inten    --      0.3265                 7.2724                 1.3557

                     10                     11                     12
                      A                      A                      A
 Frequencies --    609.9386               697.1784               771.5588
 Red. masses --      4.4562                 2.5396                 2.9354
 Frc consts  --      0.9768                 0.7273                 1.0296
 IR Inten    --     10.4198                21.4236                 1.3810

                     13                     14                     15
                      A                      A                      A
 Frequencies --    783.2740               825.4728               863.1166
 Red. masses --      3.2788                 1.4488                 1.6219
 Frc consts  --      1.1852                 0.5817                 0.7119
 IR Inten    --      3.9070                12.1634                 4.1979

                     16                     17                     18
                      A                      A                      A
 Frequencies --    876.7479               938.7983               975.7440
 Red. masses --      1.5597                 2.5644                 2.0937
 Frc consts  --      0.7064                 1.3316                 1.1745
 IR Inten    --      2.7971                 8.6296                17.8386

                     19                     20                     21
                      A                      A                      A
 Frequencies --   1021.7943              1067.9452              1073.8383
 Red. masses --      2.2809                 1.6970                 1.7478
 Frc consts  --      1.4031                 1.1403                 1.1874
 IR Inten    --     11.0695                16.4159                12.5833

                     22                     23                     24
                      A                      A                      A
 Frequencies --   1085.5000              1103.1691              1123.2708
 Red. masses --      1.9401                 2.0110                 2.2564
 Frc consts  --      1.3469                 1.4419                 1.6774
 IR Inten    --      2.1106                 4.2723                24.1549

                     25                     26                     27
                      A                      A                      A
 Frequencies --   1126.9661              1139.6710              1163.6803
 Red. masses --      1.3745                 1.7942                 2.4820
 Frc consts  --      1.0285                 1.3730                 1.9802
 IR Inten    --      4.7867                 8.1857                55.7128

                     28                     29                     30
                      A                      A                      A
 Frequencies --   1223.9134              1242.7138              1279.6893
 Red. masses --      1.4900                 1.3365                 1.1535
 Frc consts  --      1.3151                 1.2161                 1.1130
 IR Inten    --      4.9192                 3.6417                10.0452

                     31                     32                     33
                      A                      A                      A
 Frequencies --   1306.3616              1352.6100              1367.2211
 Red. masses --      1.3997                 1.1931                 1.4572
 Frc consts  --      1.4074                 1.2861                 1.6049
 IR Inten    --      8.1414                 6.0520                 7.6118

                     34                     35                     36
                      A                      A                      A
 Frequencies --   1371.2359              1391.8450              1406.8755
 Red. masses --      1.6861                 1.7195                 1.3569
 Frc consts  --      1.8679                 1.9626                 1.5824
 IR Inten    --      1.8396                 4.0202                12.8479

                     37                     38                     39
                      A                      A                      A
 Frequencies --   1420.2189              1482.7465              1491.0918
 Red. masses --      1.3143                 1.1736                 1.2985
 Frc consts  --      1.5618                 1.5202                 1.7010
 IR Inten    --      6.1185                 2.8689                 4.7659

                     40                     41                     42
                      A                      A                      A
 Frequencies --   1499.4555              1838.3972              2897.6627
 Red. masses --      1.0956                10.8479                 1.0836
 Frc consts  --      1.4513                21.6010                 5.3604
 IR Inten    --      0.5674               142.2501                82.7606

                     43                     44                     45
                      A                      A                      A
 Frequencies --   2909.5924              2957.6731              3049.9051
 Red. masses --      1.0796                 1.0705                 1.0634
 Frc consts  --      5.3847                 5.5175                 5.8278
 IR Inten    --     48.9902                71.1108                19.7926

                     46                     47                     48
                      A                      A                      A
 Frequencies --   3069.3287              3096.1456              3129.8279
 Red. masses --      1.0916                 1.1000                 1.0536
 Frc consts  --      6.0589                 6.2128                 6.0808
 IR Inten    --     35.5211                12.0242                13.2000

                     49                     50                     51
                      A                      A                      A
 Frequencies --   3148.2218              3159.1777              3218.1664
 Red. masses --      1.0879                 1.0911                 1.1164
 Frc consts  --      6.3527                 6.4157                 6.8122
 IR Inten    --     13.3387                20.5238                10.9519

 - Thermochemistry -
 -------------------
 Temperature   298.150 Kelvin.  Pressure   1.00000 Atm.
 Atom     1 has atomic number  8 and mass  15.99491

 Molecular mass:   126.06808 amu.
 Principal axes and moments of inertia in atomic units:
                           1         2         3
     Eigenvalues --   517.629701508.216691821.99691
           X            0.99994  -0.01092   0.00227
           Y            0.01095   0.99985  -0.01323
           Z           -0.00213   0.01326   0.99991
 This molecule is an asymmetric top.
 Rotational symmetry number  1.
 Warning -- assumption of classical behavior for rotation
           may cause significant error
 Rotational temperatures (Kelvin)      0.16733     0.05743     0.04754
 Rotational constants (GHZ):           3.48655     1.19661     0.99053
 Zero-point vibrational energy     419783.2 (Joules/Mol)
                                  100.33060 (Kcal/Mol)
 Warning -- explicit consideration of  10 degrees of freedom as
           vibrations may cause significant error
 Vibrational temperatures:     82.73   150.78   271.66   323.18   470.44
          (Kelvin)            499.18   599.71   630.06   748.38   877.56
                             1003.08  1110.10  1126.96  1187.67  1241.83
                             1261.44  1350.72  1403.88  1470.13  1536.53
                             1545.01  1561.79  1587.21  1616.13  1621.45
                             1639.73  1674.27  1760.94  1787.99  1841.19
                             1879.56  1946.10  1967.12  1972.90  2002.55
                             2024.18  2043.38  2133.34  2145.35  2157.38
                             2645.04  4169.09  4186.25  4255.43  4388.13
                             4416.07  4454.66  4503.12  4529.58  4545.35
                             4630.22

 Zero-point correction=                           0.159887 (Hartree/Particle)
 Thermal correction to Energy=                    0.167957
 Thermal correction to Enthalpy=                  0.168901
 Thermal correction to Gibbs Free Energy=         0.126714
 Sum of electronic and zero-point Energies=           -423.025045
 Sum of electronic and thermal Energies=              -423.016976
 Sum of electronic and thermal Enthalpies=            -423.016031
 Sum of electronic and thermal Free Energies=         -423.058218

                     E (Thermal)             CV                S
                      KCal/Mol        Cal/Mol-Kelvin    Cal/Mol-Kelvin
 Total                  105.394             30.670             88.789
 Electronic               0.000              0.000              0.000
 Translational            0.889              2.981             40.409
 Rotational               0.889              2.981             28.744
 Vibrational            103.617             24.708             19.637
 Vibration     1          0.596              1.975              4.541
 Vibration     2          0.605              1.945              3.363
 Vibration     3          0.633              1.855              2.239
 Vibration     4          0.649              1.804              1.922
 Vibration     5          0.711              1.622              1.275
 Vibration     6          0.725              1.581              1.180
 Vibration     7          0.780              1.434              0.903
 Vibration     8          0.798              1.388              0.833
 Vibration     9          0.875              1.205              0.610
 Vibration    10          0.969              1.011              0.433

 Optimization completed.
    -- Stationary point found.
 Normal termination of Gaussian 09 at Mon Jan 27 14:10:02 2020.
