 Gaussian 09, Revision D.01,
 Gaussian 09:  ES64L-G09RevD.01 24-Apr-2013

 -----------------------------
 # b3lyp 6-31G(2df,p) opt Freq
 -----------------------------

 -----
 titel
 -----
 Symbolic Z-matrix:
 Charge =  0 Multiplicity = 1

 SCF Done:  E(RB3LYP) =  -423.245064928     A.U. after   14 cycles
 Optimization completed.
    -- Stationary point found.
 Normal termination of Gaussian 09 at Tue Jan 28 00:36:50 2020.

 ----------------------------------------------------------------------
 #N Geom=AllCheck Guess=TCheck SCRF=Check GenChk RB3LYP/6-31G(2df,p) Fr
 eq
 ----------------------------------------------------------------------

 Structure from the checkpoint file:  "/scratch/puck/g09_0be37a1c-da66-46a2-9461-a520b6588af5/Gau-107501.chk"
 -----
 titel
 -----
 Charge =  0 Multiplicity = 1

                         Standard orientation:
 ---------------------------------------------------------------------
 Center     Atomic      Atomic             Coordinates (Angstroms)
 Number     Number       Type             X           Y           Z
 ---------------------------------------------------------------------
      1          6           0        2.003111   -1.620353    0.081986
      2          6           0        0.812401   -0.698797    0.347864
      3          6           0       -0.484876   -1.165976   -0.340474
      4          6           0       -1.697467   -0.298330   -0.014710
      5          8           0       -2.826660   -0.721279   -0.068955
      6          6           0       -1.380233    1.138934    0.387625
      7          6           0       -0.088433    1.657911   -0.257836
      8          6           0        1.122244    0.758036   -0.014965
      9          8           0        2.251195    1.176720   -0.111291
     10          1           0        2.200278   -1.699255   -0.992234
     11          1           0        2.904681   -1.225972    0.553906
     12          1           0        1.809117   -2.625336    0.467576
     13          1           0        0.621272   -0.682493    1.433843
     14          1           0       -0.350554   -1.140885   -1.432265
     15          1           0       -0.725451   -2.202165   -0.087851
     16          1           0       -2.243285    1.765912    0.151671
     17          1           0       -1.278661    1.148786    1.482386
     18          1           0       -0.217272    1.721432   -1.347702
     19          1           0        0.163117    2.667898    0.075706
 ---------------------------------------------------------------------

 SCF Done:  E(RB3LYP) =  -423.245064928     A.U. after    1 cycles

 The electronic state is 1-A.
 Alpha  occ. eigenvalues --  -19.13665 -19.13465 -10.27742 -10.27651 -10.21164
 Alpha  occ. eigenvalues --  -10.20681 -10.20578 -10.20385 -10.18430  -1.04851
 Alpha  occ. eigenvalues --   -1.04618  -0.84199  -0.78850  -0.72150  -0.68783
 Alpha  occ. eigenvalues --   -0.63575  -0.55744  -0.51902  -0.50332  -0.47948
 Alpha  occ. eigenvalues --   -0.46959  -0.44201  -0.43448  -0.41935  -0.41004
 Alpha  occ. eigenvalues --   -0.40093  -0.39888  -0.37989  -0.36774  -0.36100
 Alpha  occ. eigenvalues --   -0.35440  -0.33500  -0.24942  -0.24813
 Alpha virt. eigenvalues --   -0.02431  -0.02093   0.06717   0.10275   0.10979
 Alpha virt. eigenvalues --    0.13200   0.13833   0.14337   0.15984   0.16526
 Alpha virt. eigenvalues --    0.17623   0.18361   0.19139   0.20706   0.21330

 Mulliken charges:
               1
     1  C   -0.398312
     2  C   -0.109215
     3  C   -0.320907
     4  C    0.394604
     5  O   -0.308930
     6  C   -0.323421
     7  C   -0.322144
     8  C    0.400466
     9  O   -0.314007
    10  H    0.122916
    11  H    0.140953
    12  H    0.114078
    13  H    0.110307
    14  H    0.133147
    15  H    0.134105
    16  H    0.134044
    17  H    0.135731
    18  H    0.139219
    19  H    0.137366
 Sum of Mulliken charges =   0.00000

 Dipole moment (field-independent basis, Debye):
    X=              0.2028    Y=              0.0356    Z=              0.3408  Tot=              0.3982
 Quadrupole moment (field-independent basis, Debye-Ang):
   XX=            -70.1253   YY=            -52.0163   ZZ=            -50.1380
   XY=             -8.0477   XZ=              0.2565   YZ=              0.0825

  Exact polarizability:  87.814  -0.637  78.786  -0.300   0.302  58.992
 Approx polarizability: 128.556   8.631 107.713  -0.621   0.003  94.802

                      1                      2                      3
                      A                      A                      A
 Frequencies --     38.2879                98.6904               176.2081
 Red. masses --      5.4957                 2.8640                 2.1930
 Frc consts  --      0.0047                 0.0164                 0.0401
 IR Inten    --      9.8390                 2.4399                 1.6521

                      4                      5                      6
                      A                      A                      A
 Frequencies --    199.0368               275.4481               303.2328
 Red. masses --      1.0676                 2.7930                 2.3020
 Frc consts  --      0.0249                 0.1249                 0.1247
 IR Inten    --      0.1474                 0.9310                 2.6212

                      7                      8                      9
                      A                      A                      A
 Frequencies --    362.8230               402.8219               439.2340
 Red. masses --      3.6236                 7.2471                 4.9197
 Frc consts  --      0.2810                 0.6929                 0.5592
 IR Inten    --      5.5756                 0.1939                13.5793

                     10                     11                     12
                      A                      A                      A
 Frequencies --    520.9133               529.5546               567.4169
 Red. masses --      2.3256                 1.8562                 3.6629
 Frc consts  --      0.3718                 0.3067                 0.6948
 IR Inten    --      3.5220                 6.5833                 0.5244

                     13                     14                     15
                      A                      A                      A
 Frequencies --    633.5678               722.7132               747.5247
 Red. masses --      3.6385                 3.1328                 2.9648
 Frc consts  --      0.8605                 0.9641                 0.9761
 IR Inten    --      1.2028                 1.7105                 3.5620

                     16                     17                     18
                      A                      A                      A
 Frequencies --    830.2946               881.6812               935.3588
 Red. masses --      1.7020                 2.1301                 1.6711
 Frc consts  --      0.6913                 0.9756                 0.8614
 IR Inten    --      5.3619                 3.4434                 3.1911

                     19                     20                     21
                      A                      A                      A
 Frequencies --    962.8572               998.1833              1063.1548
 Red. masses --      1.5594                 1.7476                 2.0784
 Frc consts  --      0.8518                 1.0259                 1.3841
 IR Inten    --      6.4122                17.8638                 1.0008

                     22                     23                     24
                      A                      A                      A
 Frequencies --   1086.0015              1101.6541              1141.2171
 Red. masses --      1.2098                 2.7417                 3.2099
 Frc consts  --      0.8407                 1.9605                 2.4631
 IR Inten    --      3.4546                17.3001                74.4499

                     25                     26                     27
                      A                      A                      A
 Frequencies --   1159.6162              1188.9241              1226.8660
 Red. masses --      2.0235                 2.0328                 1.5033
 Frc consts  --      1.6032                 1.6930                 1.3332
 IR Inten    --      8.7353                 6.0494                 4.5819

                     28                     29                     30
                      A                      A                      A
 Frequencies --   1257.1453              1283.9746              1315.3583
 Red. masses --      1.6330                 1.3792                 1.5117
 Frc consts  --      1.5206                 1.3396                 1.5410
 IR Inten    --     34.0902                 4.2975                 0.8207

                     31                     32                     33
                      A                      A                      A
 Frequencies --   1333.1701              1343.2457              1357.3469
 Red. masses --      1.3830                 1.5412                 1.9567
 Frc consts  --      1.4482                 1.6384                 2.1241
 IR Inten    --      6.7334                 3.9082                 5.1610

                     34                     35                     36
                      A                      A                      A
 Frequencies --   1409.5418              1451.2495              1458.4392
 Red. masses --      1.2187                 1.0773                 1.0821
 Frc consts  --      1.4266                 1.3369                 1.3561
 IR Inten    --      3.8812                 8.1017                13.7856

                     37                     38                     39
                      A                      A                      A
 Frequencies --   1460.9030              1491.0613              1497.2003
 Red. masses --      1.0820                 1.0439                 1.0517
 Frc consts  --      1.3606                 1.3674                 1.3890
 IR Inten    --      5.6530                 8.0458                 5.0644

                     40                     41                     42
                      A                      A                      A
 Frequencies --   1814.9610              1823.7898              2973.8193
 Red. masses --     12.3519                12.0387                 1.0797
 Frc consts  --     23.9728                23.5927                 5.6259
 IR Inten    --    227.3554               126.8801                 8.7544

                     43                     44                     45
                      A                      A                      A
 Frequencies --   3012.8343              3015.8911              3026.4277
 Red. masses --      1.0690                 1.0707                 1.0667
 Frc consts  --      5.7171                 5.7377                 5.7562
 IR Inten    --      8.9002                 0.4094                17.5268

                     46                     47                     48
                      A                      A                      A
 Frequencies --   3044.4908              3095.9124              3100.9768
 Red. masses --      1.0369                 1.0925                 1.0934
 Frc consts  --      5.6626                 6.1696                 6.1947
 IR Inten    --     21.0500                 8.6283                 6.3983

                     49                     50                     51
                      A                      A                      A
 Frequencies --   3105.8551              3110.0096              3139.1911
 Red. masses --      1.0925                 1.1013                 1.1002
 Frc consts  --      6.2093                 6.2760                 6.3882
 IR Inten    --      9.6185                23.9968                10.4220

 - Thermochemistry -
 -------------------
 Temperature   298.150 Kelvin.  Pressure   1.00000 Atm.
 Atom     1 has atomic number  6 and mass  12.00000

 Molecular mass:   126.06808 amu.
 Principal axes and moments of inertia in atomic units:
                           1         2         3
     Eigenvalues --   669.773051363.000141921.74945
           X            0.99668  -0.08139  -0.00069
           Y            0.08139   0.99668   0.00306
           Z            0.00044  -0.00310   1.00000
 This molecule is an asymmetric top.
 Rotational symmetry number  1.
 Warning -- assumption of classical behavior for rotation
           may cause significant error
 Rotational temperatures (Kelvin)      0.12932     0.06355     0.04507
 Rotational constants (GHZ):           2.69456     1.32409     0.93911
 Zero-point vibrational energy     415798.5 (Joules/Mol)
                                   99.37822 (Kcal/Mol)
 Warning -- explicit consideration of  12 degrees of freedom as
           vibrations may cause significant error
 Vibrational temperatures:     55.09   141.99   253.52   286.37   396.31
          (Kelvin)            436.28   522.02   579.57   631.96   749.48
                              761.91   816.39   911.56  1039.82  1075.52
                             1194.61  1268.54  1345.77  1385.33  1436.16
                             1529.64  1562.51  1585.03  1641.95  1668.43
                             1710.59  1765.18  1808.75  1847.35  1892.50
                             1918.13  1932.63  1952.92  2028.01  2088.02
                             2098.37  2101.91  2145.30  2154.13  2611.32
                             2624.02  4278.66  4334.79  4339.19  4354.35
                             4380.34  4454.32  4461.61  4468.63  4474.60
                             4516.59

 Zero-point correction=                           0.158369 (Hartree/Particle)
 Thermal correction to Energy=                    0.167196
 Thermal correction to Enthalpy=                  0.168141
 Thermal correction to Gibbs Free Energy=         0.124205
 Sum of electronic and zero-point Energies=           -423.086696
 Sum of electronic and thermal Energies=              -423.077868
 Sum of electronic and thermal Enthalpies=            -423.076924
 Sum of electronic and thermal Free Energies=         -423.120860

                     E (Thermal)             CV                S
                      KCal/Mol        Cal/Mol-Kelvin    Cal/Mol-Kelvin
 Total                  104.917             32.928             92.470
 Electronic               0.000              0.000              0.000
 Translational            0.889              2.981             40.409
 Rotational               0.889              2.981             28.952
 Vibrational            103.140             26.966             23.109
 Vibration     1          0.594              1.982              5.346
 Vibration     2          0.604              1.950              3.480
 Vibration     3          0.628              1.872              2.368
 Vibration     4          0.637              1.841              2.142
 Vibration     5          0.677              1.719              1.562
 Vibration     6          0.695              1.668              1.399
 Vibration     7          0.737              1.549              1.110
 Vibration     8          0.768              1.464              0.952
 Vibration     9          0.799              1.385              0.829
 Vibration    10          0.876              1.204              0.608
 Vibration    11          0.885              1.185              0.588
 Vibration    12          0.923              1.102              0.509

 Optimization completed.
    -- Stationary point found.
 Normal termination of Gaussian 09 at Tue Jan 28 01:19:41 2020.
