 Gaussian 09, Revision D.01,
 Gaussian 09:  ES64L-G09RevD.01 24-Apr-2013

 -----------------------------
 # b3lyp 6-31G(2df,p) opt Freq
 -----------------------------

 -----
 titel
 -----
 Symbolic Z-matrix:
 Charge =  0 Multiplicity = 1

 SCF Done:  E(RB3LYP) =  -423.130255646     A.U. after   14 cycles
 Optimization completed.
    -- Stationary point found.
 Normal termination of Gaussian 09 at Tue Jan 28 12:07:36 2020.

 ----------------------------------------------------------------------
 #N Geom=AllCheck Guess=TCheck SCRF=Check GenChk RB3LYP/6-31G(2df,p) Fr
 eq
 ----------------------------------------------------------------------

 Structure from the checkpoint file:  "/scratch/puck/g09_e9cce0e6-0a58-4dc9-88b3-6ef22f9f7631/Gau-1190.chk"
 -----
 titel
 -----
 Charge =  0 Multiplicity = 1

                         Standard orientation:
 ---------------------------------------------------------------------
 Center     Atomic      Atomic             Coordinates (Angstroms)
 Number     Number       Type             X           Y           Z
 ---------------------------------------------------------------------
      1          8           0       -4.481276    0.222986   -0.156670
      2          6           0       -3.102859    0.499139    0.007978
      3          6           0       -2.247770   -0.783903   -0.001532
      4          6           0       -0.830967   -0.516748    0.208252
      5          6           0        0.331403   -0.250455    0.387316
      6          6           0        1.716037    0.048242    0.606130
      7          6           0        2.360199    1.285021   -0.025568
      8          6           0        2.724542   -0.087383   -0.510106
      9          8           0        3.949894   -0.645002   -0.143171
     10          1           0       -4.613568   -0.108313   -1.050620
     11          1           0       -2.728667    1.196120   -0.756151
     12          1           0       -3.004020    0.994735    0.977918
     13          1           0       -2.630424   -1.459598    0.773154
     14          1           0       -2.394445   -1.302117   -0.960332
     15          1           0        2.112982   -0.217439    1.581578
     16          1           0        1.737886    1.911763   -0.653515
     17          1           0        3.091165    1.806001    0.582617
     18          1           0        2.336442   -0.401495   -1.478033
     19          1           0        4.640189   -0.207011   -0.652706
 ---------------------------------------------------------------------

 SCF Done:  E(RB3LYP) =  -423.130255646     A.U. after    1 cycles

 The electronic state is 1-A.
 Alpha  occ. eigenvalues --  -19.14774 -19.13753 -10.24284 -10.23054 -10.20977
 Alpha  occ. eigenvalues --  -10.20269 -10.19272 -10.17058 -10.16809  -1.03377
 Alpha  occ. eigenvalues --   -1.01903  -0.85855  -0.78633  -0.71808  -0.64364
 Alpha  occ. eigenvalues --   -0.61632  -0.60696  -0.53865  -0.50877  -0.50337
 Alpha  occ. eigenvalues --   -0.47165  -0.45062  -0.44590  -0.41009  -0.40290
 Alpha  occ. eigenvalues --   -0.38958  -0.38068  -0.35151  -0.33072  -0.31140
 Alpha  occ. eigenvalues --   -0.28111  -0.27487  -0.24344  -0.23097
 Alpha virt. eigenvalues --    0.04802   0.05344   0.07450   0.08347   0.11412
 Alpha virt. eigenvalues --    0.12412   0.13265   0.14411   0.15242   0.15464
 Alpha virt. eigenvalues --    0.16727   0.18964   0.20838   0.22005   0.23866

 Mulliken charges:
               1
     1  O   -0.409399
     2  C   -0.052527
     3  C   -0.358904
     4  C    0.056894
     5  C    0.085840
     6  C   -0.202723
     7  C   -0.315803
     8  C    0.111288
     9  O   -0.421323
    10  H    0.283037
    11  H    0.096817
    12  H    0.124635
    13  H    0.137698
    14  H    0.114002
    15  H    0.121256
    16  H    0.121943
    17  H    0.119164
    18  H    0.098901
    19  H    0.289204
 Sum of Mulliken charges =   0.00000

 Dipole moment (field-independent basis, Debye):
    X=              1.2195    Y=              0.9182    Z=             -2.1207  Tot=              2.6130
 Quadrupole moment (field-independent basis, Debye-Ang):
   XX=            -51.5835   YY=            -54.3360   ZZ=            -49.3548
   XY=              7.5891   XZ=              2.2490   YZ=              0.5318

  Exact polarizability: 123.990   8.709  65.400   2.240   0.683  61.991
 Approx polarizability: 163.318  15.502  95.472   5.230   0.991  93.701

                      1                      2                      3
                      A                      A                      A
 Frequencies --     24.1877                62.8709                76.6948
 Red. masses --      3.2388                 5.3406                 2.3844
 Frc consts  --      0.0011                 0.0124                 0.0083
 IR Inten    --      0.9371                 0.7351                 2.1250

                      4                      5                      6
                      A                      A                      A
 Frequencies --    132.5490               154.2088               282.3259
 Red. masses --      3.7255                 4.4638                 1.4012
 Frc consts  --      0.0386                 0.0625                 0.0658
 IR Inten    --      4.5734                 2.0684                68.1663

                      7                      8                      9
                      A                      A                      A
 Frequencies --    301.5165               311.6651               330.9622
 Red. masses --      1.4107                 2.3925                 2.1615
 Frc consts  --      0.0756                 0.1369                 0.1395
 IR Inten    --     60.7080                11.6218                64.5371

                     10                     11                     12
                      A                      A                      A
 Frequencies --    376.0004               405.0352               446.6471
 Red. masses --      4.0500                 3.7677                 3.6389
 Frc consts  --      0.3374                 0.3642                 0.4277
 IR Inten    --     32.9566                12.6404                 1.6443

                     13                     14                     15
                      A                      A                      A
 Frequencies --    504.9937               555.7738               750.0174
 Red. masses --      4.8838                 4.5159                 2.3565
 Frc consts  --      0.7338                 0.8218                 0.7810
 IR Inten    --      1.7877                 0.9830                 2.1849

                     16                     17                     18
                      A                      A                      A
 Frequencies --    780.3625               813.3722               896.4260
 Red. masses --      1.1579                 2.2868                 3.8419
 Frc consts  --      0.4154                 0.8914                 1.8190
 IR Inten    --      1.7058                 3.1434                34.1870

                     19                     20                     21
                      A                      A                      A
 Frequencies --    927.6860               967.2864              1009.2222
 Red. masses --      1.7738                 2.4413                 3.0835
 Frc consts  --      0.8994                 1.3458                 1.8504
 IR Inten    --     27.6411                 2.5176                 7.4957

                     22                     23                     24
                      A                      A                      A
 Frequencies --   1050.8103              1053.9835              1081.9411
 Red. masses --      1.6383                 1.5071                 3.8680
 Frc consts  --      1.0659                 0.9864                 2.6677
 IR Inten    --     57.6722                23.9436                95.1353

                     25                     26                     27
                      A                      A                      A
 Frequencies --   1088.2873              1105.0249              1163.7640
 Red. masses --      1.1797                 1.4895                 2.2278
 Frc consts  --      0.8232                 1.0716                 1.7777
 IR Inten    --      1.0034                24.4285                16.9551

                     28                     29                     30
                      A                      A                      A
 Frequencies --   1169.8370              1202.9257              1219.8263
 Red. masses --      1.1746                 2.4378                 1.6315
 Frc consts  --      0.9471                 2.0784                 1.4303
 IR Inten    --      2.8782                28.6961                40.4268

                     31                     32                     33
                      A                      A                      A
 Frequencies --   1292.1511              1294.3310              1314.5889
 Red. masses --      1.2260                 1.2943                 1.1846
 Frc consts  --      1.2061                 1.2775                 1.2062
 IR Inten    --     28.4033                21.6598                19.2837

                     34                     35                     36
                      A                      A                      A
 Frequencies --   1352.8078              1394.3366              1413.5616
 Red. masses --      1.5636                 1.2888                 1.2465
 Frc consts  --      1.6859                 1.4762                 1.4675
 IR Inten    --      5.3377                18.6362                41.1493

                     37                     38                     39
                      A                      A                      A
 Frequencies --   1426.3620              1472.1587              1481.3754
 Red. masses --      1.3585                 1.0904                 1.6678
 Frc consts  --      1.6284                 1.3923                 2.1564
 IR Inten    --      6.6935                 4.1292                14.5620

                     40                     41                     42
                      A                      A                      A
 Frequencies --   1509.5915              2362.2035              2999.3508
 Red. masses --      1.0893                11.8611                 1.0690
 Frc consts  --      1.4625                38.9950                 5.6662
 IR Inten    --      0.4883                 4.0835                35.1619

                     43                     44                     45
                      A                      A                      A
 Frequencies --   3004.0939              3052.9630              3095.7030
 Red. masses --      1.0659                 1.0917                 1.0969
 Frc consts  --      5.6678                 5.9952                 6.1935
 IR Inten    --     39.2057                13.6834                29.2582

                     46                     47                     48
                      A                      A                      A
 Frequencies --   3114.4619              3139.4495              3154.1766
 Red. masses --      1.0878                 1.0543                 1.0864
 Frc consts  --      6.2165                 6.1223                 6.3684
 IR Inten    --     23.2451                 7.2126                 6.2948

                     49                     50                     51
                      A                      A                      A
 Frequencies --   3235.7785              3799.8769              3816.4111
 Red. masses --      1.1180                 1.0661                 1.0661
 Frc consts  --      6.8967                 9.0697                 9.1491
 IR Inten    --      6.0348                22.0771                20.9480

 - Thermochemistry -
 -------------------
 Temperature   298.150 Kelvin.  Pressure   1.00000 Atm.
 Atom     1 has atomic number  8 and mass  15.99491

 Molecular mass:   126.06808 amu.
 Principal axes and moments of inertia in atomic units:
                           1         2         3
     Eigenvalues --   270.702883798.414083921.56537
           X            0.99997   0.00772   0.00183
           Y           -0.00774   0.99988   0.01372
           Z           -0.00173  -0.01373   0.99990
 This molecule is an asymmetric top.
 Rotational symmetry number  1.
 Rotational temperatures (Kelvin)      0.31996     0.02280     0.02209
 Rotational constants (GHZ):           6.66687     0.47513     0.46021
 Zero-point vibrational energy     412543.8 (Joules/Mol)
                                   98.60033 (Kcal/Mol)
 Warning -- explicit consideration of  14 degrees of freedom as
           vibrations may cause significant error
 Vibrational temperatures:     34.80    90.46   110.35   190.71   221.87
          (Kelvin)            406.20   433.81   448.42   476.18   540.98
                              582.75   642.62   726.57   799.63  1079.11
                             1122.77  1170.26  1289.76  1334.73  1391.71
                             1452.04  1511.88  1516.45  1556.67  1565.80
                             1589.88  1674.39  1683.13  1730.74  1755.06
                             1859.11  1862.25  1891.40  1946.39  2006.14
                             2033.80  2052.21  2118.11  2131.37  2171.96
                             3398.68  4315.39  4322.22  4392.53  4454.02
                             4481.01  4516.96  4538.15  4655.56  5467.17
                             5490.96

 Zero-point correction=                           0.157130 (Hartree/Particle)
 Thermal correction to Energy=                    0.167433
 Thermal correction to Enthalpy=                  0.168377
 Thermal correction to Gibbs Free Energy=         0.120066
 Sum of electronic and zero-point Energies=           -422.973126
 Sum of electronic and thermal Energies=              -422.962823
 Sum of electronic and thermal Enthalpies=            -422.961879
 Sum of electronic and thermal Free Energies=         -423.010190

                     E (Thermal)             CV                S
                      KCal/Mol        Cal/Mol-Kelvin    Cal/Mol-Kelvin
 Total                  105.066             36.330            101.680
 Electronic               0.000              0.000              0.000
 Translational            0.889              2.981             40.409
 Rotational               0.889              2.981             29.779
 Vibrational            103.288             30.368             31.492
 Vibration     1          0.593              1.985              6.257
 Vibration     2          0.597              1.972              4.365
 Vibration     3          0.599              1.965              3.974
 Vibration     4          0.613              1.921              2.909
 Vibration     5          0.620              1.898              2.620
 Vibration     6          0.681              1.706              1.520
 Vibration     7          0.694              1.671              1.408
 Vibration     8          0.700              1.651              1.353
 Vibration     9          0.713              1.614              1.255
 Vibration    10          0.747              1.521              1.055
 Vibration    11          0.770              1.459              0.944
 Vibration    12          0.806              1.368              0.806
 Vibration    13          0.860              1.239              0.646
 Vibration    14          0.911              1.127              0.532

 Optimization completed.
    -- Stationary point found.
 Normal termination of Gaussian 09 at Tue Jan 28 12:44:01 2020.
