 Gaussian 09, Revision D.01,
 Gaussian 09:  ES64L-G09RevD.01 24-Apr-2013

 -----------------------------
 # b3lyp 6-31G(2df,p) opt Freq
 -----------------------------

 -----
 titel
 -----
 Symbolic Z-matrix:
 Charge =  0 Multiplicity = 1

 SCF Done:  E(RB3LYP) =  -423.201350470     A.U. after   14 cycles
 Optimization completed.
    -- Stationary point found.
 Normal termination of Gaussian 09 at Tue Jan 28 00:32:58 2020.

 ----------------------------------------------------------------------
 #N Geom=AllCheck Guess=TCheck SCRF=Check GenChk RB3LYP/6-31G(2df,p) Fr
 eq
 ----------------------------------------------------------------------

 Structure from the checkpoint file:  "/scratch/puck/g09_66021a7d-5acf-403e-885e-5f3fb73b041d/Gau-196302.chk"
 -----
 titel
 -----
 Charge =  0 Multiplicity = 1

                         Standard orientation:
 ---------------------------------------------------------------------
 Center     Atomic      Atomic             Coordinates (Angstroms)
 Number     Number       Type             X           Y           Z
 ---------------------------------------------------------------------
      1          8           0        1.780133   -1.854197    0.250545
      2          6           0        1.344106   -0.647593   -0.358127
      3          6           0        2.287517    0.524344   -0.221494
      4          6           0        1.641413    1.653081    0.066007
      5          6           0        0.148326    1.446650    0.166500
      6          6           0        0.014206   -0.096473    0.233088
      7          6           0       -1.240912   -0.686520   -0.424201
      8          6           0       -2.502043   -0.303206    0.313137
      9          8           0       -3.431951    0.295380   -0.163018
     10          1           0        2.030922   -1.645154    1.157692
     11          1           0        1.215284   -0.918055   -1.415332
     12          1           0        3.353582    0.418592   -0.388774
     13          1           0        2.101904    2.629000    0.176155
     14          1           0       -0.299832    1.953616    1.028643
     15          1           0       -0.360054    1.849937   -0.720724
     16          1           0        0.019831   -0.389564    1.292525
     17          1           0       -1.332755   -0.369994   -1.467949
     18          1           0       -1.156683   -1.782692   -0.396981
     19          1           0       -2.513327   -0.616840    1.385072
 ---------------------------------------------------------------------

 SCF Done:  E(RB3LYP) =  -423.201350470     A.U. after    1 cycles

 The electronic state is 1-A.
 Alpha  occ. eigenvalues --  -19.14229 -19.13912 -10.27125 -10.23937 -10.20308
 Alpha  occ. eigenvalues --  -10.19523 -10.19487 -10.19450 -10.18544  -1.04579
 Alpha  occ. eigenvalues --   -1.02450  -0.85224  -0.77740  -0.70532  -0.68519
 Alpha  occ. eigenvalues --   -0.59190  -0.57846  -0.55333  -0.51466  -0.47888
 Alpha  occ. eigenvalues --   -0.46998  -0.44961  -0.43521  -0.42222  -0.41038
 Alpha  occ. eigenvalues --   -0.39116  -0.38754  -0.36900  -0.34998  -0.34002
 Alpha  occ. eigenvalues --   -0.32758  -0.28052  -0.25650  -0.24754
 Alpha virt. eigenvalues --   -0.02157   0.00539   0.08099   0.09820   0.10606
 Alpha virt. eigenvalues --    0.12411   0.13762   0.15075   0.15238   0.15569
 Alpha virt. eigenvalues --    0.16549   0.17201   0.18764   0.19618   0.24218

 Mulliken charges:
               1
     1  O   -0.434820
     2  C    0.092146
     3  C   -0.127605
     4  C   -0.066244
     5  C   -0.275118
     6  C   -0.002990
     7  C   -0.304579
     8  C    0.162039
     9  O   -0.241995
    10  H    0.275500
    11  H    0.095663
    12  H    0.103069
    13  H    0.102123
    14  H    0.111190
    15  H    0.122721
    16  H    0.072403
    17  H    0.118424
    18  H    0.129406
    19  H    0.068667
 Sum of Mulliken charges =   0.00000

 Dipole moment (field-independent basis, Debye):
    X=              2.3154    Y=              0.3800    Z=              1.2492  Tot=              2.6582
 Quadrupole moment (field-independent basis, Debye-Ang):
   XX=            -63.9537   YY=            -54.7494   ZZ=            -50.4840
   XY=              5.6066   XZ=             -0.1871   YZ=             -0.9393

  Exact polarizability:  90.785  -4.759  79.039  -0.679   0.359  62.526
 Approx polarizability: 122.326 -18.334 123.904   2.145   0.498  99.938

                      1                      2                      3
                      A                      A                      A
 Frequencies --     47.7118                73.9769                90.1049
 Red. masses --      5.6632                 3.4446                 2.7805
 Frc consts  --      0.0076                 0.0111                 0.0133
 IR Inten    --      4.1637                 3.1232                 3.4931

                      4                      5                      6
                      A                      A                      A
 Frequencies --    171.3593               259.0975               279.9283
 Red. masses --      3.2613                 2.9355                 3.0881
 Frc consts  --      0.0564                 0.1161                 0.1426
 IR Inten    --      1.9642                 0.3025                 1.8980

                      7                      8                      9
                      A                      A                      A
 Frequencies --    350.9000               404.1443               449.1050
 Red. masses --      1.2472                 1.9992                 2.9660
 Frc consts  --      0.0905                 0.1924                 0.3525
 IR Inten    --     75.8583                18.2979                 3.5590

                     10                     11                     12
                      A                      A                      A
 Frequencies --    494.9459               555.3684               595.5939
 Red. masses --      2.7377                 4.0440                 2.5020
 Frc consts  --      0.3951                 0.7349                 0.5229
 IR Inten    --     14.2192                 1.7180                 2.9716

                     13                     14                     15
                      A                      A                      A
 Frequencies --    740.2314               771.1722               807.1695
 Red. masses --      1.7456                 2.9505                 1.7888
 Frc consts  --      0.5636                 1.0338                 0.6867
 IR Inten    --     13.1201                10.1098                10.0726

                     16                     17                     18
                      A                      A                      A
 Frequencies --    874.2068               931.8705               953.3762
 Red. masses --      2.0440                 1.9578                 1.6521
 Frc consts  --      0.9204                 1.0017                 0.8847
 IR Inten    --      7.8424                 8.1771                19.0686

                     19                     20                     21
                      A                      A                      A
 Frequencies --    970.2706               983.5682              1035.8880
 Red. masses --      2.6949                 1.3264                 2.5291
 Frc consts  --      1.4948                 0.7560                 1.5990
 IR Inten    --     15.1385                 2.3875                46.5344

                     22                     23                     24
                      A                      A                      A
 Frequencies --   1068.1668              1077.0070              1098.7220
 Red. masses --      1.9172                 2.1435                 2.5365
 Frc consts  --      1.2888                 1.4649                 1.8041
 IR Inten    --     23.4614                 1.7851                37.7534

                     25                     26                     27
                      A                      A                      A
 Frequencies --   1120.4380              1144.9353              1172.4921
 Red. masses --      2.3277                 1.6575                 1.3096
 Frc consts  --      1.7217                 1.2802                 1.0607
 IR Inten    --      2.9559                30.5117                14.0786

                     28                     29                     30
                      A                      A                      A
 Frequencies --   1208.2317              1250.2442              1269.1912
 Red. masses --      1.2466                 1.2521                 1.4206
 Frc consts  --      1.0722                 1.1531                 1.3483
 IR Inten    --     14.5366                10.0618                 1.9123

                     31                     32                     33
                      A                      A                      A
 Frequencies --   1302.2023              1317.7720              1328.5839
 Red. masses --      1.3922                 1.5207                 1.3375
 Frc consts  --      1.3909                 1.5559                 1.3910
 IR Inten    --      1.2785                 1.4930                 4.9878

                     34                     35                     36
                      A                      A                      A
 Frequencies --   1367.3719              1381.0317              1426.2335
 Red. masses --      1.6070                 1.5569                 1.2333
 Frc consts  --      1.7702                 1.7495                 1.4781
 IR Inten    --      0.6852                 3.6986                75.9885

                     37                     38                     39
                      A                      A                      A
 Frequencies --   1429.5495              1463.2288              1488.8808
 Red. masses --      1.1946                 1.0972                 1.0947
 Frc consts  --      1.4384                 1.3841                 1.4297
 IR Inten    --      4.5858                 4.4844                 2.8269

                     40                     41                     42
                      A                      A                      A
 Frequencies --   1682.3799              1834.5548              2841.6395
 Red. masses --      6.3415                10.1056                 1.0812
 Frc consts  --     10.5753                20.0389                 5.1440
 IR Inten    --      6.7125               176.6951               110.2207

                     43                     44                     45
                      A                      A                      A
 Frequencies --   3001.5261              3012.6136              3013.8451
 Red. masses --      1.0817                 1.0695                 1.0646
 Frc consts  --      5.7420                 5.7192                 5.6975
 IR Inten    --      5.3981                 7.8715                22.8365

                     46                     47                     48
                      A                      A                      A
 Frequencies --   3017.9450              3056.6764              3092.2168
 Red. masses --      1.0789                 1.0955                 1.0983
 Frc consts  --      5.7894                 6.0307                 6.1873
 IR Inten    --     45.2352                24.8752                18.7436

                     49                     50                     51
                      A                      A                      A
 Frequencies --   3182.7588              3208.5190              3792.2020
 Red. masses --      1.0849                 1.1043                 1.0659
 Frc consts  --      6.4753                 6.6982                 9.0310
 IR Inten    --      6.6448                18.9540                14.2901

 - Thermochemistry -
 -------------------
 Temperature   298.150 Kelvin.  Pressure   1.00000 Atm.
 Atom     1 has atomic number  8 and mass  15.99491

 Molecular mass:   126.06808 amu.
 Principal axes and moments of inertia in atomic units:
                           1         2         3
     Eigenvalues --   608.173221785.306762257.68819
           X            0.99987   0.01603  -0.00292
           Y           -0.01603   0.99987   0.00189
           Z            0.00295  -0.00184   0.99999
 This molecule is an asymmetric top.
 Rotational symmetry number  1.
 Warning -- assumption of classical behavior for rotation
           may cause significant error
 Rotational temperatures (Kelvin)      0.14242     0.04851     0.03836
 Rotational constants (GHZ):           2.96748     1.01089     0.79938
 Zero-point vibrational energy     415649.4 (Joules/Mol)
                                   99.34258 (Kcal/Mol)
 Warning -- explicit consideration of  12 degrees of freedom as
           vibrations may cause significant error
 Vibrational temperatures:     68.65   106.44   129.64   246.55   372.78
          (Kelvin)            402.75   504.87   581.47   646.16   712.12
                              799.05   856.93  1065.03  1109.54  1161.34
                             1257.79  1340.75  1371.69  1396.00  1415.13
                             1490.41  1536.85  1549.57  1580.81  1612.06
                             1647.30  1686.95  1738.37  1798.82  1826.08
                             1873.58  1895.98  1911.53  1967.34  1986.99
                             2052.03  2056.80  2105.26  2142.16  2420.57
                             2639.51  4088.48  4318.52  4334.47  4336.25
                             4342.14  4397.87  4449.00  4579.27  4616.34
                             5456.13

 Zero-point correction=                           0.158312 (Hartree/Particle)
 Thermal correction to Energy=                    0.167344
 Thermal correction to Enthalpy=                  0.168288
 Thermal correction to Gibbs Free Energy=         0.123381
 Sum of electronic and zero-point Energies=           -423.043038
 Sum of electronic and thermal Energies=              -423.034006
 Sum of electronic and thermal Enthalpies=            -423.033062
 Sum of electronic and thermal Free Energies=         -423.077969

                     E (Thermal)             CV                S
                      KCal/Mol        Cal/Mol-Kelvin    Cal/Mol-Kelvin
 Total                  105.010             32.918             94.515
 Electronic               0.000              0.000              0.000
 Translational            0.889              2.981             40.409
 Rotational               0.889              2.981             29.285
 Vibrational            103.233             26.957             24.822
 Vibration     1          0.595              1.978              4.910
 Vibration     2          0.599              1.966              4.045
 Vibration     3          0.602              1.956              3.658
 Vibration     4          0.626              1.878              2.421
 Vibration     5          0.668              1.747              1.668
 Vibration     6          0.680              1.711              1.534
 Vibration     7          0.728              1.573              1.162
 Vibration     8          0.769              1.461              0.948
 Vibration     9          0.808              1.363              0.798
 Vibration    10          0.851              1.261              0.671
 Vibration    11          0.911              1.128              0.533
 Vibration    12          0.953              1.041              0.457

 Optimization completed.
    -- Stationary point found.
 Normal termination of Gaussian 09 at Tue Jan 28 01:12:18 2020.
