 Gaussian 09, Revision D.01,
 Gaussian 09:  ES64L-G09RevD.01 24-Apr-2013

 -----------------------------
 # b3lyp 6-31G(2df,p) opt Freq
 -----------------------------

 -----
 titel
 -----
 Symbolic Z-matrix:
 Charge =  0 Multiplicity = 1

 SCF Done:  E(RB3LYP) =  -423.149382151     A.U. after   13 cycles
 SCF Done:  E(RB3LYP) =  -423.149382313     A.U. after    6 cycles
 SCF Done:  E(RB3LYP) =  -423.149382410     A.U. after    6 cycles
 Optimization completed.
    -- Stationary point found.
 Normal termination of Gaussian 09 at Mon Jan 27 23:59:18 2020.

 ----------------------------------------------------------------------
 #N Geom=AllCheck Guess=TCheck SCRF=Check GenChk RB3LYP/6-31G(2df,p) Fr
 eq
 ----------------------------------------------------------------------

 Structure from the checkpoint file:  "/scratch/puck/g09_c8ae3c36-de24-4dee-81a3-1e5ad0d54f11/Gau-78166.chk"
 -----
 titel
 -----
 Charge =  0 Multiplicity = 1

                         Standard orientation:
 ---------------------------------------------------------------------
 Center     Atomic      Atomic             Coordinates (Angstroms)
 Number     Number       Type             X           Y           Z
 ---------------------------------------------------------------------
      1          6           0       -2.033787   -1.384721    0.116155
      2          6           0       -1.042073   -0.253235    0.034753
      3          6           0       -1.424048    1.228213   -0.148029
      4          6           0        0.079031    1.382597   -0.441972
      5          8           0        0.665380    1.128647    0.855452
      6          6           0        0.237605   -0.244132    0.972923
      7          6           0        1.055552   -0.891683   -0.171984
      8          8           0        2.433926   -0.681508   -0.198251
      9          6           0        0.096100   -0.074143   -1.057326
     10          1           0       -2.710966   -1.378340   -0.744540
     11          1           0       -1.541329   -2.362507    0.143985
     12          1           0       -2.646580   -1.299794    1.021423
     13          1           0       -2.043570    1.359796   -1.039832
     14          1           0       -1.827291    1.798472    0.693696
     15          1           0        0.528951    2.257197   -0.907556
     16          1           0        0.253055   -0.573515    2.011071
     17          1           0        0.867818   -1.962946   -0.276136
     18          1           0        2.560456    0.214993    0.141300
     19          1           0       -0.045266   -0.207842   -2.128139
 ---------------------------------------------------------------------

 SCF Done:  E(RB3LYP) =  -423.149382410     A.U. after    1 cycles

 The electronic state is 1-A.
 Alpha  occ. eigenvalues --  -19.14703 -19.12964 -10.23974 -10.23212 -10.22958
 Alpha  occ. eigenvalues --  -10.20543 -10.18997 -10.18527 -10.18504  -1.06288
 Alpha  occ. eigenvalues --   -1.01024  -0.85545  -0.75865  -0.72991  -0.66452
 Alpha  occ. eigenvalues --   -0.60833  -0.56614  -0.54673  -0.51372  -0.50237
 Alpha  occ. eigenvalues --   -0.46736  -0.45044  -0.41442  -0.40606  -0.39770
 Alpha  occ. eigenvalues --   -0.38637  -0.37859  -0.35895  -0.35411  -0.32898
 Alpha  occ. eigenvalues --   -0.29789  -0.28139  -0.27036  -0.23823
 Alpha virt. eigenvalues --    0.07691   0.09259   0.11354   0.12204   0.12634
 Alpha virt. eigenvalues --    0.13546   0.14523   0.15539   0.15929   0.16908
 Alpha virt. eigenvalues --    0.17801   0.18394   0.18967   0.19100   0.19904

 Mulliken charges:
               1
     1  C   -0.511999
     2  C    0.320944
     3  C   -0.285788
     4  C    0.063696
     5  O   -0.290436
     6  C   -0.027895
     7  C    0.184293
     8  O   -0.455485
     9  C   -0.176121
    10  H    0.121565
    11  H    0.123262
    12  H    0.123772
    13  H    0.100796
    14  H    0.100245
    15  H    0.082645
    16  H    0.077376
    17  H    0.089877
    18  H    0.285899
    19  H    0.073355
 Sum of Mulliken charges =   0.00000

 Dipole moment (field-independent basis, Debye):
    X=             -2.1069    Y=              0.0909    Z=             -0.4787  Tot=              2.1625
 Quadrupole moment (field-independent basis, Debye-Ang):
   XX=            -56.7538   YY=            -52.7319   ZZ=            -52.4173
   XY=              2.9097   XZ=              0.7491   YZ=             -2.6193

  Exact polarizability:  79.857   0.112  74.984  -0.060  -2.135  67.176
 Approx polarizability: 112.292   0.116 110.562   0.500  -0.934 106.891

                      1                      2                      3
                      A                      A                      A
 Frequencies --    184.5091               199.3169               257.9224
 Red. masses --      4.1065                 1.0310                 2.5924
 Frc consts  --      0.0824                 0.0241                 0.1016
 IR Inten    --      2.6661                 0.0505                 0.2519

                      4                      5                      6
                      A                      A                      A
 Frequencies --    285.0072               294.5560               471.6172
 Red. masses --      3.4785                 3.3526                 1.7670
 Frc consts  --      0.1665                 0.1714                 0.2316
 IR Inten    --      4.7280                 0.2107                 4.1422

                      7                      8                      9
                      A                      A                      A
 Frequencies --    501.8741               524.1929               567.4420
 Red. masses --      1.2886                 3.1915                 3.9010
 Frc consts  --      0.1912                 0.5167                 0.7401
 IR Inten    --     48.5382                15.9111                 0.8650

                     10                     11                     12
                      A                      A                      A
 Frequencies --    622.8700               699.3814               771.6038
 Red. masses --      4.1159                 4.0514                 2.8885
 Frc consts  --      0.9408                 1.1676                 1.0132
 IR Inten    --     14.1144                 0.0721                 1.9409

                     13                     14                     15
                      A                      A                      A
 Frequencies --    802.8982               832.6555               841.8410
 Red. masses --      3.2091                 2.7566                 2.2409
 Frc consts  --      1.2189                 1.1260                 0.9357
 IR Inten    --      8.8614                 8.6728                 4.7027

                     16                     17                     18
                      A                      A                      A
 Frequencies --    902.3441               921.6222               927.3753
 Red. masses --      3.0227                 2.2198                 2.0084
 Frc consts  --      1.4501                 1.1109                 1.0177
 IR Inten    --     20.7784                 2.1754                10.7183

                     19                     20                     21
                      A                      A                      A
 Frequencies --    959.4619               962.8568              1007.0292
 Red. masses --      1.9181                 2.8899                 1.6877
 Frc consts  --      1.0403                 1.5785                 1.0084
 IR Inten    --      4.4040                26.0302                 1.4939

                     22                     23                     24
                      A                      A                      A
 Frequencies --   1042.3673              1069.8682              1086.3076
 Red. masses --      4.2850                 1.4452                 1.4800
 Frc consts  --      2.7431                 0.9747                 1.0290
 IR Inten    --     25.0285                 7.8108                 2.0194

                     25                     26                     27
                      A                      A                      A
 Frequencies --   1096.0196              1155.8776              1157.5520
 Red. masses --      2.1717                 1.8627                 1.7196
 Frc consts  --      1.5370                 1.4663                 1.3576
 IR Inten    --     94.8919                74.5325                31.0470

                     28                     29                     30
                      A                      A                      A
 Frequencies --   1185.6563              1209.5033              1220.1172
 Red. masses --      1.4891                 1.8461                 1.8145
 Frc consts  --      1.2334                 1.5911                 1.5915
 IR Inten    --      0.5718                 4.6562                 4.6682

                     31                     32                     33
                      A                      A                      A
 Frequencies --   1238.2971              1259.8409              1276.6348
 Red. masses --      1.4831                 1.6891                 1.7099
 Frc consts  --      1.3399                 1.5795                 1.6419
 IR Inten    --      0.6961                 4.1732                 4.8000

                     34                     35                     36
                      A                      A                      A
 Frequencies --   1297.5882              1325.1662              1352.2009
 Red. masses --      1.6664                 2.2436                 1.8599
 Frc consts  --      1.6531                 2.3213                 2.0037
 IR Inten    --     22.0404                 8.0422                 2.9030

                     37                     38                     39
                      A                      A                      A
 Frequencies --   1416.3648              1444.3254              1485.4346
 Red. masses --      1.3134                 1.2786                 1.1402
 Frc consts  --      1.5524                 1.5714                 1.4823
 IR Inten    --      2.8694                99.4425                 0.4648

                     40                     41                     42
                      A                      A                      A
 Frequencies --   1491.2212              1494.5762              3025.0985
 Red. masses --      1.0507                 1.0500                 1.0359
 Frc consts  --      1.3766                 1.3819                 5.5855
 IR Inten    --      4.6407                 3.2889                27.4670

                     43                     44                     45
                      A                      A                      A
 Frequencies --   3051.2010              3086.2381              3091.8493
 Red. masses --      1.0561                 1.0983                 1.0940
 Frc consts  --      5.7927                 6.1635                 6.1616
 IR Inten    --     34.9953                13.3923                20.9762

                     46                     47                     48
                      A                      A                      A
 Frequencies --   3098.8577              3112.5484              3131.2999
 Red. masses --      1.0942                 1.1091                 1.0908
 Frc consts  --      6.1910                 6.3305                 6.3017
 IR Inten    --     27.3898                23.2355                44.9875

                     49                     50                     51
                      A                      A                      A
 Frequencies --   3136.1705              3145.4937              3756.0387
 Red. masses --      1.0900                 1.0935                 1.0644
 Frc consts  --      6.3167                 6.3746                 8.8474
 IR Inten    --     22.1890                30.8136                27.1336

 - Thermochemistry -
 -------------------
 Temperature   298.150 Kelvin.  Pressure   1.00000 Atm.
 Atom     1 has atomic number  6 and mass  12.00000

 Molecular mass:   126.06808 amu.
 Principal axes and moments of inertia in atomic units:
                           1         2         3
     Eigenvalues --   641.073591028.395611291.70294
           X            0.99905   0.04369   0.00035
           Y           -0.04364   0.99825  -0.03988
           Z           -0.00209   0.03982   0.99920
 This molecule is an asymmetric top.
 Rotational symmetry number  1.
 Warning -- assumption of classical behavior for rotation
           may cause significant error
 Rotational temperatures (Kelvin)      0.13511     0.08422     0.06705
 Rotational constants (GHZ):           2.81519     1.75491     1.39718
 Zero-point vibrational energy     421552.6 (Joules/Mol)
                                  100.75349 (Kcal/Mol)
 Warning -- explicit consideration of   9 degrees of freedom as
           vibrations may cause significant error
 Vibrational temperatures:    265.47   286.77   371.09   410.06   423.80
          (Kelvin)            678.55   722.08   754.20   816.42   896.17
                             1006.25  1110.16  1155.19  1198.00  1211.22
                             1298.27  1326.01  1334.28  1380.45  1385.33
                             1448.89  1499.73  1539.30  1562.95  1576.93
                             1663.05  1665.46  1705.89  1740.20  1755.47
                             1781.63  1812.63  1836.79  1866.94  1906.62
                             1945.51  2037.83  2078.06  2137.21  2145.53
                             2150.36  4352.44  4389.99  4440.40  4448.48
                             4458.56  4478.26  4505.24  4512.24  4525.66
                             5404.10

 Zero-point correction=                           0.160561 (Hartree/Particle)
 Thermal correction to Energy=                    0.167871
 Thermal correction to Enthalpy=                  0.168815
 Thermal correction to Gibbs Free Energy=         0.129312
 Sum of electronic and zero-point Energies=           -422.988822
 Sum of electronic and thermal Energies=              -422.981511
 Sum of electronic and thermal Enthalpies=            -422.980567
 Sum of electronic and thermal Free Energies=         -423.020070

                     E (Thermal)             CV                S
                      KCal/Mol        Cal/Mol-Kelvin    Cal/Mol-Kelvin
 Total                  105.341             30.276             83.141
 Electronic               0.000              0.000              0.000
 Translational            0.889              2.981             40.409
 Rotational               0.889              2.981             28.234
 Vibrational            103.563             24.314             14.499
 Vibration     1          0.631              1.861              2.282
 Vibration     2          0.637              1.841              2.139
 Vibration     3          0.667              1.749              1.676
 Vibration     4          0.683              1.701              1.503
 Vibration     5          0.689              1.684              1.448
 Vibration     6          0.829              1.313              0.733
 Vibration     7          0.857              1.246              0.653
 Vibration     8          0.879              1.196              0.600
 Vibration     9          0.923              1.102              0.509

 Normal termination of Gaussian 09 at Tue Jan 28 00:45:43 2020.
