 Gaussian 09, Revision D.01,
 Gaussian 09:  ES64L-G09RevD.01 24-Apr-2013

 -----------------------------
 # b3lyp 6-31G(2df,p) opt Freq
 -----------------------------

 -----
 titel
 -----
 Symbolic Z-matrix:
 Charge =  0 Multiplicity = 1

 SCF Done:  E(RB3LYP) =  -423.202189700     A.U. after   14 cycles
 Optimization completed.
    -- Stationary point found.
 Normal termination of Gaussian 09 at Tue Jan 28 03:17:17 2020.

 ----------------------------------------------------------------------
 #N Geom=AllCheck Guess=TCheck SCRF=Check GenChk RB3LYP/6-31G(2df,p) Fr
 eq
 ----------------------------------------------------------------------

 Structure from the checkpoint file:  "/scratch/puck/g09_7573b21c-d033-4c47-97aa-92de40849f31/Gau-89146.chk"
 -----
 titel
 -----
 Charge =  0 Multiplicity = 1

                         Standard orientation:
 ---------------------------------------------------------------------
 Center     Atomic      Atomic             Coordinates (Angstroms)
 Number     Number       Type             X           Y           Z
 ---------------------------------------------------------------------
      1          6           0       -2.556539    0.173173   -0.433752
      2          6           0       -1.313685   -0.271502    0.322436
      3          8           0       -0.748389   -1.436886   -0.279962
      4          6           0        0.647343   -1.291652   -0.375768
      5          6           0        1.404006   -1.070750    0.889345
      6          6           0        1.080726    0.118290   -0.036168
      7          6           0        2.172958    0.922224   -0.692462
      8          6           0       -0.202710    0.796736    0.311714
      9          8           0       -0.376641    1.978833    0.480523
     10          1           0       -2.317422    0.358680   -1.484560
     11          1           0       -3.332371   -0.594599   -0.382555
     12          1           0       -2.934736    1.098934    0.007779
     13          1           0       -1.577052   -0.484526    1.370791
     14          1           0        1.068454   -1.856615   -1.199517
     15          1           0        0.886964   -1.167838    1.837858
     16          1           0        2.450904   -1.354445    0.911642
     17          1           0        2.506634    1.724792   -0.027427
     18          1           0        3.036213    0.294596   -0.931822
     19          1           0        1.820056    1.386328   -1.618752
 ---------------------------------------------------------------------

 SCF Done:  E(RB3LYP) =  -423.202189700     A.U. after    1 cycles

 The electronic state is 1-A.
 Alpha  occ. eigenvalues --  -19.15262 -19.13332 -10.26828 -10.25039 -10.24217
 Alpha  occ. eigenvalues --  -10.20976 -10.20334 -10.18876 -10.18141  -1.06065
 Alpha  occ. eigenvalues --   -1.03803  -0.87002  -0.77260  -0.72461  -0.67788
 Alpha  occ. eigenvalues --   -0.63084  -0.57872  -0.54735  -0.50230  -0.49289
 Alpha  occ. eigenvalues --   -0.45312  -0.44443  -0.42139  -0.41486  -0.40610
 Alpha  occ. eigenvalues --   -0.39630  -0.38393  -0.38209  -0.37416  -0.36284
 Alpha  occ. eigenvalues --   -0.33840  -0.28771  -0.26153  -0.23316
 Alpha virt. eigenvalues --   -0.01960   0.08876   0.09800   0.11303   0.12031
 Alpha virt. eigenvalues --    0.12902   0.13731   0.14727   0.16179   0.17243
 Alpha virt. eigenvalues --    0.17676   0.18575   0.19510   0.20638   0.23031

 Mulliken charges:
               1
     1  C   -0.392522
     2  C    0.011581
     3  O   -0.273891
     4  C    0.070096
     5  C   -0.360383
     6  C    0.178170
     7  C   -0.479476
     8  C    0.329546
     9  O   -0.333700
    10  H    0.125430
    11  H    0.126102
    12  H    0.139317
    13  H    0.104771
    14  H    0.112868
    15  H    0.128426
    16  H    0.126049
    17  H    0.140640
    18  H    0.116181
    19  H    0.130794
 Sum of Mulliken charges =   0.00000

 Dipole moment (field-independent basis, Debye):
    X=              1.1967    Y=             -1.5332    Z=             -0.1647  Tot=              1.9519
 Quadrupole moment (field-independent basis, Debye-Ang):
   XX=            -48.4743   YY=            -61.0819   ZZ=            -51.2906
   XY=             -1.3220   XZ=             -1.0971   YZ=             -2.0846

  Exact polarizability:  87.304  -3.291  76.142  -0.628  -1.228  63.668
 Approx polarizability: 112.060  -6.330 124.180  -0.459   1.862  97.324

                      1                      2                      3
                      A                      A                      A
 Frequencies --     75.6570               139.0920               176.0083
 Red. masses --      3.8288                 1.1744                 2.5031
 Frc consts  --      0.0129                 0.0134                 0.0457
 IR Inten    --      3.9729                 0.0825                 0.2651

                      4                      5                      6
                      A                      A                      A
 Frequencies --    207.5534               231.0635               263.7588
 Red. masses --      1.0662                 2.7945                 3.2186
 Frc consts  --      0.0271                 0.0879                 0.1319
 IR Inten    --      0.6924                 2.9596                 3.3577

                      7                      8                      9
                      A                      A                      A
 Frequencies --    292.7802               380.1211               458.6422
 Red. masses --      3.1074                 2.9163                 2.6572
 Frc consts  --      0.1569                 0.2483                 0.3293
 IR Inten    --      2.6753                 3.5575                 5.1673

                     10                     11                     12
                      A                      A                      A
 Frequencies --    477.3558               549.4644               623.7031
 Red. masses --      3.5712                 4.1195                 5.9355
 Frc consts  --      0.4795                 0.7328                 1.3604
 IR Inten    --      8.8649                 2.6395                 1.9537

                     13                     14                     15
                      A                      A                      A
 Frequencies --    675.8041               756.1740               817.3704
 Red. masses --      4.3434                 3.4495                 2.4218
 Frc consts  --      1.1688                 1.1621                 0.9533
 IR Inten    --      2.5943                 2.2936                13.9823

                     16                     17                     18
                      A                      A                      A
 Frequencies --    843.1792               878.3501               903.2750
 Red. masses --      2.3787                 2.4515                 2.0618
 Frc consts  --      0.9964                 1.1143                 0.9912
 IR Inten    --     20.6508                 7.0807                 1.3086

                     19                     20                     21
                      A                      A                      A
 Frequencies --    962.8504               990.5705              1035.8494
 Red. masses --      1.4076                 1.9027                 1.3706
 Frc consts  --      0.7689                 1.1000                 0.8665
 IR Inten    --      5.7382                33.0870                 8.1466

                     22                     23                     24
                      A                      A                      A
 Frequencies --   1046.3173              1063.4375              1100.2720
 Red. masses --      1.6681                 2.0577                 1.8647
 Frc consts  --      1.0760                 1.3711                 1.3301
 IR Inten    --     23.8513                14.4471                12.2830

                     25                     26                     27
                      A                      A                      A
 Frequencies --   1108.1861              1119.7538              1145.5376
 Red. masses --      2.0070                 1.6600                 2.8385
 Frc consts  --      1.4522                 1.2264                 2.1946
 IR Inten    --      6.5726                 3.3035                35.8167

                     28                     29                     30
                      A                      A                      A
 Frequencies --   1163.3327              1280.0928              1293.8725
 Red. masses --      2.8363                 1.6925                 1.6945
 Frc consts  --      2.2616                 1.6340                 1.6713
 IR Inten    --     95.0226                 2.3585                 3.1698

                     31                     32                     33
                      A                      A                      A
 Frequencies --   1330.1473              1353.2472              1396.5508
 Red. masses --      2.7295                 1.4265                 1.3366
 Frc consts  --      2.8454                 1.5392                 1.5359
 IR Inten    --     22.2127                 5.8530                 7.3980

                     34                     35                     36
                      A                      A                      A
 Frequencies --   1404.2091              1418.8881              1480.8148
 Red. masses --      1.4891                 1.4243                 1.3121
 Frc consts  --      1.7299                 1.6895                 1.6951
 IR Inten    --     18.4155                 2.5922                13.4331

                     37                     38                     39
                      A                      A                      A
 Frequencies --   1482.4613              1484.7971              1496.6066
 Red. masses --      1.0611                 1.0606                 1.0510
 Frc consts  --      1.3739                 1.3777                 1.3870
 IR Inten    --      5.5874                 7.9420                 5.8535

                     40                     41                     42
                      A                      A                      A
 Frequencies --   1496.8161              1830.9475              2978.3718
 Red. masses --      1.0535                12.6002                 1.0811
 Frc consts  --      1.3906                24.8875                 5.6502
 IR Inten    --      5.5233               200.5082                25.3010

                     43                     44                     45
                      A                      A                      A
 Frequencies --   3038.4461              3049.0278              3106.2408
 Red. masses --      1.0348                 1.0337                 1.1013
 Frc consts  --      5.6287                 5.6620                 6.2610
 IR Inten    --     25.7052                14.9508                14.5043

                     46                     47                     48
                      A                      A                      A
 Frequencies --   3112.2779              3126.9234              3131.2818
 Red. masses --      1.1019                 1.1027                 1.0539
 Frc consts  --      6.2884                 6.3522                 6.0881
 IR Inten    --     13.3551                17.7630                 8.5408

                     49                     50                     51
                      A                      A                      A
 Frequencies --   3133.8607              3181.7896              3221.2445
 Red. masses --      1.1025                 1.0930                 1.1171
 Frc consts  --      6.3796                 6.5197                 6.8294
 IR Inten    --      9.4247                13.4714                 4.8273

 - Thermochemistry -
 -------------------
 Temperature   298.150 Kelvin.  Pressure   1.00000 Atm.
 Atom     1 has atomic number  6 and mass  12.00000

 Molecular mass:   126.06808 amu.
 Principal axes and moments of inertia in atomic units:
                           1         2         3
     Eigenvalues --   722.610671088.466941526.46995
           X            0.99999   0.00055  -0.00332
           Y           -0.00068   0.99929  -0.03778
           Z            0.00329   0.03778   0.99928
 This molecule is an asymmetric top.
 Rotational symmetry number  1.
 Warning -- assumption of classical behavior for rotation
           may cause significant error
 Rotational temperatures (Kelvin)      0.11986     0.07957     0.05674
 Rotational constants (GHZ):           2.49753     1.65806     1.18230
 Zero-point vibrational energy     414592.0 (Joules/Mol)
                                   99.08987 (Kcal/Mol)
 Warning -- explicit consideration of  11 degrees of freedom as
           vibrations may cause significant error
 Vibrational temperatures:    108.85   200.12   253.24   298.62   332.45
          (Kelvin)            379.49   421.24   546.91   659.88   686.81
                              790.56   897.37   972.33  1087.96  1176.01
                             1213.15  1263.75  1299.61  1385.33  1425.21
                             1490.35  1505.42  1530.05  1583.04  1594.43
                             1611.07  1648.17  1673.77  1841.77  1861.59
                             1913.78  1947.02  2009.32  2020.34  2041.46
                             2130.56  2132.93  2136.29  2153.28  2153.58
                             2634.32  4285.21  4371.64  4386.87  4469.18
                             4477.87  4498.94  4505.21  4508.92  4577.88
                             4634.65

 Zero-point correction=                           0.157910 (Hartree/Particle)
 Thermal correction to Energy=                    0.166753
 Thermal correction to Enthalpy=                  0.167698
 Thermal correction to Gibbs Free Energy=         0.124526
 Sum of electronic and zero-point Energies=           -423.044280
 Sum of electronic and thermal Energies=              -423.035436
 Sum of electronic and thermal Enthalpies=            -423.034492
 Sum of electronic and thermal Free Energies=         -423.077663

                     E (Thermal)             CV                S
                      KCal/Mol        Cal/Mol-Kelvin    Cal/Mol-Kelvin
 Total                  104.639             33.243             90.861
 Electronic               0.000              0.000              0.000
 Translational            0.889              2.981             40.409
 Rotational               0.889              2.981             28.575
 Vibrational            102.862             27.281             21.878
 Vibration     1          0.599              1.965              4.001
 Vibration     2          0.615              1.914              2.816
 Vibration     3          0.628              1.872              2.370
 Vibration     4          0.641              1.829              2.065
 Vibration     5          0.653              1.794              1.871
 Vibration     6          0.670              1.739              1.637
 Vibration     7          0.688              1.687              1.458
 Vibration     8          0.750              1.513              1.039
 Vibration     9          0.817              1.342              0.770
 Vibration    10          0.834              1.300              0.717
 Vibration    11          0.905              1.141              0.545

 Optimization completed.
    -- Stationary point found.
 Normal termination of Gaussian 09 at Tue Jan 28 04:00:14 2020.
