 Gaussian 09, Revision D.01,
 Gaussian 09:  ES64L-G09RevD.01 24-Apr-2013

 -----------------------------
 # b3lyp 6-31G(2df,p) opt Freq
 -----------------------------

 -----
 titel
 -----
 Symbolic Z-matrix:
 Charge =  0 Multiplicity = 1

 SCF Done:  E(RB3LYP) =  -423.131587090     A.U. after   14 cycles
 Optimization completed.
    -- Stationary point found.
 Normal termination of Gaussian 09 at Mon Jan 27 17:27:46 2020.

 ----------------------------------------------------------------------
 #N Geom=AllCheck Guess=TCheck SCRF=Check GenChk RB3LYP/6-31G(2df,p) Fr
 eq
 ----------------------------------------------------------------------

 Structure from the checkpoint file:  "/scratch/puck/g09_63bca81f-2408-4d54-bd3c-9085d6f99869/Gau-39352.chk"
 -----
 titel
 -----
 Charge =  0 Multiplicity = 1

                         Standard orientation:
 ---------------------------------------------------------------------
 Center     Atomic      Atomic             Coordinates (Angstroms)
 Number     Number       Type             X           Y           Z
 ---------------------------------------------------------------------
      1          6           0       -1.061762    1.981698   -0.236823
      2          6           0       -1.075061    0.520753    0.071551
      3          6           0       -2.204518   -0.506373   -0.133492
      4          6           0       -1.111380   -1.623505   -0.264409
      5          6           0       -0.044168   -0.538461   -0.036229
      6          8           0       -0.340466    0.067333    1.227058
      7          6           0        1.360479   -0.520037   -0.515893
      8          6           0        2.489878   -0.318247    0.405121
      9          8           0        2.047886    0.731142   -0.458148
     10          1           0       -1.716953    2.526512    0.452881
     11          1           0       -0.046705    2.371429   -0.142612
     12          1           0       -1.420398    2.164941   -1.254899
     13          1           0       -2.901759   -0.595467    0.702979
     14          1           0       -2.763551   -0.355202   -1.060226
     15          1           0       -1.125411   -2.419549    0.483633
     16          1           0       -1.077217   -2.061918   -1.265123
     17          1           0        1.531708   -1.086666   -1.432105
     18          1           0        2.275675   -0.166346    1.460158
     19          1           0        3.464441   -0.740504    0.165077
 ---------------------------------------------------------------------

 SCF Done:  E(RB3LYP) =  -423.131587090     A.U. after    1 cycles

 The electronic state is 1-A.
 Alpha  occ. eigenvalues --  -19.15414 -19.14441 -10.24414 -10.23845 -10.23723
 Alpha  occ. eigenvalues --  -10.23385 -10.19097 -10.18796 -10.17915  -1.08163
 Alpha  occ. eigenvalues --   -1.06421  -0.80112  -0.74132  -0.70830  -0.65767
 Alpha  occ. eigenvalues --   -0.62503  -0.59456  -0.54270  -0.49956  -0.49241
 Alpha  occ. eigenvalues --   -0.46149  -0.45394  -0.42984  -0.41648  -0.39888
 Alpha  occ. eigenvalues --   -0.38929  -0.38001  -0.35342  -0.34389  -0.33368
 Alpha  occ. eigenvalues --   -0.32008  -0.28370  -0.26981  -0.24206
 Alpha virt. eigenvalues --    0.06271   0.09548   0.10217   0.11556   0.12300
 Alpha virt. eigenvalues --    0.13135   0.13430   0.14949   0.15686   0.16411
 Alpha virt. eigenvalues --    0.17566   0.18676   0.18961   0.19543   0.21045

 Mulliken charges:
               1
     1  C   -0.503072
     2  C    0.339948
     3  C   -0.279933
     4  C   -0.305026
     5  C    0.368680
     6  O   -0.324599
     7  C   -0.063847
     8  C   -0.175224
     9  O   -0.230959
    10  H    0.126249
    11  H    0.156848
    12  H    0.120698
    13  H    0.109102
    14  H    0.105134
    15  H    0.109570
    16  H    0.105498
    17  H    0.093229
    18  H    0.133600
    19  H    0.114106
 Sum of Mulliken charges =   0.00000

 Dipole moment (field-independent basis, Debye):
    X=             -0.5927    Y=             -1.3505    Z=             -1.1162  Tot=              1.8497
 Quadrupole moment (field-independent basis, Debye-Ang):
   XX=            -50.2959   YY=            -52.2825   ZZ=            -54.0832
   XY=             -4.0514   XZ=              2.2891   YZ=              1.0615

  Exact polarizability:  89.338  -3.386  75.060   3.526   1.915  64.232
 Approx polarizability: 116.815  -4.633 108.131   5.960   2.851 104.661

                      1                      2                      3
                      A                      A                      A
 Frequencies --     75.3538               147.6459               176.0115
 Red. masses --      3.6379                 3.6481                 2.2670
 Frc consts  --      0.0122                 0.0469                 0.0414
 IR Inten    --      2.6733                 4.1814                 0.9811

                      4                      5                      6
                      A                      A                      A
 Frequencies --    202.6236               237.0193               301.4645
 Red. masses --      1.1452                 2.1261                 2.9138
 Frc consts  --      0.0277                 0.0704                 0.1560
 IR Inten    --      0.9421                 0.4322                 1.2337

                      7                      8                      9
                      A                      A                      A
 Frequencies --    348.0388               373.6472               509.4485
 Red. masses --      2.5429                 4.3546                 4.0330
 Frc consts  --      0.1815                 0.3582                 0.6167
 IR Inten    --      3.5223                 1.2202                10.4690

                     10                     11                     12
                      A                      A                      A
 Frequencies --    538.1599               650.8078               689.2266
 Red. masses --      3.0854                 4.1096                 2.7662
 Frc consts  --      0.5265                 1.0255                 0.7742
 IR Inten    --      4.8711                14.6732                 2.9510

                     13                     14                     15
                      A                      A                      A
 Frequencies --    734.4492               775.8262               858.7964
 Red. masses --      4.6923                 1.3765                 8.0036
 Frc consts  --      1.4913                 0.4882                 3.4779
 IR Inten    --      3.3200                 0.8059                14.0999

                     16                     17                     18
                      A                      A                      A
 Frequencies --    884.2763               889.9477               924.1561
 Red. masses --      2.4527                 3.2069                 2.5137
 Frc consts  --      1.1300                 1.4965                 1.2649
 IR Inten    --     10.6590                34.0967                11.3819

                     19                     20                     21
                      A                      A                      A
 Frequencies --    937.1166               996.3382              1010.6190
 Red. masses --      2.8500                 1.5185                 1.6341
 Frc consts  --      1.4746                 0.8881                 0.9833
 IR Inten    --      2.9837                 2.0078                 8.7511

                     22                     23                     24
                      A                      A                      A
 Frequencies --   1069.0957              1083.7513              1111.8519
 Red. masses --      2.0061                 1.4922                 1.5427
 Frc consts  --      1.3509                 1.0326                 1.1236
 IR Inten    --      2.9726                 6.7348                 2.1368

                     25                     26                     27
                      A                      A                      A
 Frequencies --   1151.4723              1162.7754              1167.7300
 Red. masses --      1.8458                 1.4552                 1.3593
 Frc consts  --      1.4419                 1.1592                 1.0921
 IR Inten    --      2.2793                 2.8064                 1.1327

                     28                     29                     30
                      A                      A                      A
 Frequencies --   1188.1645              1214.7632              1223.1280
 Red. masses --      1.9205                 1.3278                 1.8583
 Frc consts  --      1.5974                 1.1544                 1.6380
 IR Inten    --     10.5464                10.9136                13.5565

                     31                     32                     33
                      A                      A                      A
 Frequencies --   1224.1911              1282.6486              1302.0687
 Red. masses --      1.5046                 1.8146                 2.0578
 Frc consts  --      1.3285                 1.7590                 2.0556
 IR Inten    --      5.3346                 7.7733                 7.9539

                     34                     35                     36
                      A                      A                      A
 Frequencies --   1402.7564              1427.0395              1463.7734
 Red. masses --      1.3005                 1.9077                 1.0907
 Frc consts  --      1.5077                 2.2889                 1.3770
 IR Inten    --      1.7878                11.5251                 0.4141

                     37                     38                     39
                      A                      A                      A
 Frequencies --   1469.2173              1484.8038              1489.1974
 Red. masses --      1.3940                 1.0754                 1.0501
 Frc consts  --      1.7729                 1.3969                 1.3721
 IR Inten    --      4.7552                 2.2252                 3.2138

                     40                     41                     42
                      A                      A                      A
 Frequencies --   1511.6556              1525.2824              3034.2439
 Red. masses --      1.4119                 2.6459                 1.0385
 Frc consts  --      1.9009                 3.6268                 5.6334
 IR Inten    --      6.8958                 3.5406                24.7748

                     43                     44                     45
                      A                      A                      A
 Frequencies --   3060.6711              3068.2016              3092.0162
 Red. masses --      1.0563                 1.0595                 1.0518
 Frc consts  --      5.8300                 5.8767                 5.9246
 IR Inten    --     35.2624                32.8550                25.8534

                     46                     47                     48
                      A                      A                      A
 Frequencies --   3094.3207              3104.8620              3112.4491
 Red. masses --      1.0989                 1.0868                 1.1085
 Frc consts  --      6.1995                 6.1729                 6.3270
 IR Inten    --     14.7508                28.5083                 0.1602

                     49                     50                     51
                      A                      A                      A
 Frequencies --   3128.6835              3142.6937              3191.9024
 Red. masses --      1.1081                 1.0992                 1.1191
 Frc consts  --      6.3905                 6.3966                 6.7174
 IR Inten    --     37.2945                 4.5827                15.8315

 - Thermochemistry -
 -------------------
 Temperature   298.150 Kelvin.  Pressure   1.00000 Atm.
 Atom     1 has atomic number  6 and mass  12.00000

 Molecular mass:   126.06808 amu.
 Principal axes and moments of inertia in atomic units:
                           1         2         3
     Eigenvalues --   623.664851261.752851572.32249
           X            0.99955  -0.02495   0.01659
           Y            0.02483   0.99967   0.00691
           Z           -0.01676  -0.00650   0.99984
 This molecule is an asymmetric top.
 Rotational symmetry number  1.
 Warning -- assumption of classical behavior for rotation
           may cause significant error
 Rotational temperatures (Kelvin)      0.13888     0.06865     0.05509
 Rotational constants (GHZ):           2.89377     1.43034     1.14782
 Zero-point vibrational energy     414185.3 (Joules/Mol)
                                   98.99267 (Kcal/Mol)
 Warning -- explicit consideration of  10 degrees of freedom as
           vibrations may cause significant error
 Vibrational temperatures:    108.42   212.43   253.24   291.53   341.02
          (Kelvin)            433.74   500.75   537.59   732.98   774.29
                              936.37   991.64  1056.71  1116.24  1235.61
                             1272.27  1280.43  1329.65  1348.30  1433.51
                             1454.05  1538.19  1559.27  1599.70  1656.71
                             1672.97  1680.10  1709.50  1747.77  1759.81
                             1761.34  1845.44  1873.38  2018.25  2053.19
                             2106.04  2113.87  2136.30  2142.62  2174.93
                             2194.54  4365.59  4403.62  4414.45  4448.72
                             4452.03  4467.20  4478.11  4501.47  4521.63
                             4592.43

 Zero-point correction=                           0.157755 (Hartree/Particle)
 Thermal correction to Energy=                    0.166262
 Thermal correction to Enthalpy=                  0.167206
 Thermal correction to Gibbs Free Energy=         0.124624
 Sum of electronic and zero-point Energies=           -422.973832
 Sum of electronic and thermal Energies=              -422.965325
 Sum of electronic and thermal Enthalpies=            -422.964381
 Sum of electronic and thermal Free Energies=         -423.006963

                     E (Thermal)             CV                S
                      KCal/Mol        Cal/Mol-Kelvin    Cal/Mol-Kelvin
 Total                  104.331             32.317             89.621
 Electronic               0.000              0.000              0.000
 Translational            0.889              2.981             40.409
 Rotational               0.889              2.981             28.605
 Vibrational            102.553             26.355             20.607
 Vibration     1          0.599              1.965              4.008
 Vibration     2          0.617              1.905              2.702
 Vibration     3          0.628              1.872              2.370
 Vibration     4          0.639              1.836              2.109
 Vibration     5          0.656              1.784              1.825
 Vibration     6          0.693              1.671              1.409
 Vibration     7          0.726              1.579              1.175
 Vibration     8          0.745              1.526              1.065
 Vibration     9          0.865              1.229              0.635
 Vibration    10          0.893              1.166              0.569

 Normal termination of Gaussian 09 at Mon Jan 27 18:29:15 2020.
