 Gaussian 09, Revision D.01,
 Gaussian 09:  ES64L-G09RevD.01 24-Apr-2013

 -----------------------------
 # b3lyp 6-31G(2df,p) opt Freq
 -----------------------------

 -----
 titel
 -----
 Symbolic Z-matrix:
 Charge =  0 Multiplicity = 1

 SCF Done:  E(RB3LYP) =  -423.157587765     A.U. after   14 cycles
 Optimization completed.
    -- Stationary point found.
 Normal termination of Gaussian 09 at Tue Jan 28 09:16:14 2020.

 ----------------------------------------------------------------------
 #N Geom=AllCheck Guess=TCheck SCRF=Check GenChk RB3LYP/6-31G(2df,p) Fr
 eq
 ----------------------------------------------------------------------

 Structure from the checkpoint file:  "/scratch/puck/g09_d9f37d6d-ade6-4f93-9a6b-31f8a3932779/Gau-82396.chk"
 -----
 titel
 -----
 Charge =  0 Multiplicity = 1

                         Standard orientation:
 ---------------------------------------------------------------------
 Center     Atomic      Atomic             Coordinates (Angstroms)
 Number     Number       Type             X           Y           Z
 ---------------------------------------------------------------------
      1          6           0        2.815761   -0.727608   -0.194788
      2          8           0        1.451785   -0.743125   -0.594632
      3          6           0        0.678873    0.196232    0.044282
      4          6           0        0.207300    0.004972    1.442687
      5          6           0       -0.841836    0.074907    0.335075
      6          6           0       -1.043745    1.525782   -0.102934
      7          6           0        0.479387    1.635698   -0.447421
      8          6           0       -1.728862   -1.049770    0.025745
      9          8           0       -2.804217   -0.937744   -0.517160
     10          1           0        2.919052   -0.915576    0.882457
     11          1           0        3.315469   -1.523451   -0.750322
     12          1           0        3.296041    0.230985   -0.433230
     13          1           0        0.373121   -0.993563    1.837003
     14          1           0        0.236381    0.802412    2.181807
     15          1           0       -1.690975    1.605615   -0.976807
     16          1           0       -1.409795    2.201137    0.675522
     17          1           0        0.651079    1.716069   -1.522582
     18          1           0        1.056165    2.409427    0.068612
     19          1           0       -1.328349   -2.047373    0.315997
 ---------------------------------------------------------------------

 SCF Done:  E(RB3LYP) =  -423.157587765     A.U. after    1 cycles

 The electronic state is 1-A.
 Alpha  occ. eigenvalues --  -19.16200 -19.12496 -10.26152 -10.26010 -10.23734
 Alpha  occ. eigenvalues --  -10.20631 -10.20607 -10.19563 -10.19318  -1.05870
 Alpha  occ. eigenvalues --   -1.03169  -0.90547  -0.74902  -0.71299  -0.67994
 Alpha  occ. eigenvalues --   -0.62616  -0.58570  -0.54014  -0.50553  -0.48876
 Alpha  occ. eigenvalues --   -0.47365  -0.45414  -0.44701  -0.42641  -0.40742
 Alpha  occ. eigenvalues --   -0.40096  -0.39091  -0.36757  -0.35307  -0.34423
 Alpha  occ. eigenvalues --   -0.31729  -0.26652  -0.26467  -0.24066
 Alpha virt. eigenvalues --   -0.01729   0.08523   0.10185   0.11084   0.11209
 Alpha virt. eigenvalues --    0.12192   0.12423   0.13433   0.14799   0.16361
 Alpha virt. eigenvalues --    0.16848   0.17906   0.18241   0.18961   0.22513

 Mulliken charges:
               1
     1  C   -0.258751
     2  O   -0.278418
     3  C    0.400502
     4  C   -0.394090
     5  C    0.183326
     6  C   -0.291993
     7  C   -0.292474
     8  C    0.062705
     9  O   -0.272761
    10  H    0.115436
    11  H    0.135397
    12  H    0.118242
    13  H    0.128294
    14  H    0.117884
    15  H    0.132856
    16  H    0.104057
    17  H    0.120665
    18  H    0.100785
    19  H    0.068337
 Sum of Mulliken charges =   0.00000

 Dipole moment (field-independent basis, Debye):
    X=              3.6478    Y=              1.1508    Z=              1.6619  Tot=              4.1704
 Quadrupole moment (field-independent basis, Debye-Ang):
   XX=            -59.1203   YY=            -51.8541   ZZ=            -52.6132
   XY=             -3.2855   XZ=             -2.0296   YZ=             -1.9488

  Exact polarizability:  93.452   1.090  76.926   3.987  -1.515  66.263
 Approx polarizability: 136.457   3.823 107.148  11.134  -0.048 103.388

                      1                      2                      3
                      A                      A                      A
 Frequencies --     72.0686                87.5410               151.1403
 Red. masses --      2.7688                 6.0216                 3.1598
 Frc consts  --      0.0085                 0.0272                 0.0425
 IR Inten    --      1.0646                 1.5091                 4.0727

                      4                      5                      6
                      A                      A                      A
 Frequencies --    170.1481               209.1592               237.9690
 Red. masses --      1.1207                 2.0557                 2.8612
 Frc consts  --      0.0191                 0.0530                 0.0955
 IR Inten    --      0.1897                 5.2436                 7.1307

                      7                      8                      9
                      A                      A                      A
 Frequencies --    300.2660               376.9955               439.7377
 Red. masses --      2.8597                 2.5658                 2.7217
 Frc consts  --      0.1519                 0.2149                 0.3101
 IR Inten    --      0.4735                 0.8840                 5.1409

                     10                     11                     12
                      A                      A                      A
 Frequencies --    463.6818               501.0051               677.2066
 Red. masses --      3.0191                 4.5999                 3.6990
 Frc consts  --      0.3824                 0.6803                 0.9995
 IR Inten    --     15.8397                 2.2320                 9.5913

                     13                     14                     15
                      A                      A                      A
 Frequencies --    712.4234               778.7840               800.4731
 Red. masses --      3.5605                 2.5793                 1.5466
 Frc consts  --      1.0647                 0.9217                 0.5839
 IR Inten    --      3.2097                18.3208                 9.0302

                     16                     17                     18
                      A                      A                      A
 Frequencies --    845.7807               929.6283               938.8018
 Red. masses --      3.7297                 1.8981                 1.6346
 Frc consts  --      1.5720                 0.9665                 0.8488
 IR Inten    --     19.5866                 2.0409                21.2700

                     19                     20                     21
                      A                      A                      A
 Frequencies --    973.2421              1000.2329              1033.2350
 Red. masses --      1.6132                 2.5210                 1.6948
 Frc consts  --      0.9003                 1.4860                 1.0660
 IR Inten    --     13.7730                40.2406                 2.4235

                     22                     23                     24
                      A                      A                      A
 Frequencies --   1065.7675              1084.9298              1113.4120
 Red. masses --      1.7906                 1.9167                 1.6878
 Frc consts  --      1.1983                 1.3292                 1.2328
 IR Inten    --     23.8015                11.9041                63.6234

                     25                     26                     27
                      A                      A                      A
 Frequencies --   1145.3148              1179.0507              1209.2078
 Red. masses --      3.1722                 1.2817                 1.4378
 Frc consts  --      2.4517                 1.0498                 1.2387
 IR Inten    --     13.0246                 2.4951                11.6928

                     28                     29                     30
                      A                      A                      A
 Frequencies --   1212.4799              1230.2424              1245.7407
 Red. masses --      1.2104                 1.5935                 1.6514
 Frc consts  --      1.0484                 1.4210                 1.5100
 IR Inten    --      2.3154                 6.2243                19.4376

                     31                     32                     33
                      A                      A                      A
 Frequencies --   1274.4638              1347.4594              1374.3189
 Red. masses --      3.0781                 3.0095                 2.3007
 Frc consts  --      2.9457                 3.2194                 2.5603
 IR Inten    --     36.9892               136.6461                44.5558

                     34                     35                     36
                      A                      A                      A
 Frequencies --   1436.3454              1470.2576              1478.5847
 Red. masses --      1.3825                 1.1692                 1.0964
 Frc consts  --      1.6805                 1.4891                 1.4123
 IR Inten    --     18.1642                10.0759                 0.6294

                     37                     38                     39
                      A                      A                      A
 Frequencies --   1485.5638              1489.0877              1505.0524
 Red. masses --      1.1623                 1.0789                 1.0662
 Frc consts  --      1.5113                 1.4096                 1.4229
 IR Inten    --      2.7707                 3.8860                18.6906

                     40                     41                     42
                      A                      A                      A
 Frequencies --   1511.1862              1795.7336              2873.1895
 Red. masses --      1.2956                10.3120                 1.0821
 Frc consts  --      1.7432                19.5920                 5.2631
 IR Inten    --     16.1352               269.3176               101.9045

                     43                     44                     45
                      A                      A                      A
 Frequencies --   2999.0264              3051.6207              3056.0861
 Red. masses --      1.0344                 1.0660                 1.0996
 Frc consts  --      5.4815                 5.8488                 6.0507
 IR Inten    --     51.0905                21.2382                53.4978

                     46                     47                     48
                      A                      A                      A
 Frequencies --   3064.9312              3104.7948              3115.5527
 Red. masses --      1.0642                 1.0556                 1.1036
 Frc consts  --      5.8898                 5.9955                 6.3115
 IR Inten    --     40.8843                12.2825                 4.8380

                     49                     50                     51
                      A                      A                      A
 Frequencies --   3129.9175              3136.7641              3199.6917
 Red. masses --      1.0990                 1.1028                 1.1147
 Frc consts  --      6.3431                 6.3932                 6.7241
 IR Inten    --     22.8275                17.8846                 6.7385

 - Thermochemistry -
 -------------------
 Temperature   298.150 Kelvin.  Pressure   1.00000 Atm.
 Atom     1 has atomic number  6 and mass  12.00000

 Molecular mass:   126.06808 amu.
 Principal axes and moments of inertia in atomic units:
                           1         2         3
     Eigenvalues --   646.435641472.616831742.50270
           X            0.99962  -0.02741  -0.00128
           Y            0.02734   0.99888  -0.03854
           Z            0.00234   0.03849   0.99926
 This molecule is an asymmetric top.
 Rotational symmetry number  1.
 Warning -- assumption of classical behavior for rotation
           may cause significant error
 Rotational temperatures (Kelvin)      0.13399     0.05882     0.04971
 Rotational constants (GHZ):           2.79183     1.22553     1.03572
 Zero-point vibrational energy     413221.8 (Joules/Mol)
                                   98.76238 (Kcal/Mol)
 Warning -- explicit consideration of  11 degrees of freedom as
           vibrations may cause significant error
 Vibrational temperatures:    103.69   125.95   217.46   244.80   300.93
          (Kelvin)            342.38   432.02   542.41   632.68   667.13
                              720.83   974.35  1025.02  1120.50  1151.70
                             1216.89  1337.53  1350.72  1400.28  1439.11
                             1486.59  1533.40  1560.97  1601.95  1647.85
                             1696.39  1739.78  1744.49  1770.04  1792.34
                             1833.67  1938.69  1977.34  2066.58  2115.37
                             2127.35  2137.39  2142.46  2165.43  2174.26
                             2583.66  4133.87  4314.92  4390.60  4397.02
                             4409.75  4467.10  4482.58  4503.25  4513.10
                             4603.64

 Zero-point correction=                           0.157388 (Hartree/Particle)
 Thermal correction to Energy=                    0.166481
 Thermal correction to Enthalpy=                  0.167425
 Thermal correction to Gibbs Free Energy=         0.123169
 Sum of electronic and zero-point Energies=           -423.000200
 Sum of electronic and thermal Energies=              -422.991107
 Sum of electronic and thermal Enthalpies=            -422.990163
 Sum of electronic and thermal Free Energies=         -423.034419

                     E (Thermal)             CV                S
                      KCal/Mol        Cal/Mol-Kelvin    Cal/Mol-Kelvin
 Total                  104.468             33.144             93.145
 Electronic               0.000              0.000              0.000
 Translational            0.889              2.981             40.409
 Rotational               0.889              2.981             28.896
 Vibrational            102.691             27.183             23.840
 Vibration     1          0.598              1.967              4.096
 Vibration     2          0.601              1.958              3.714
 Vibration     3          0.619              1.901              2.658
 Vibration     4          0.625              1.879              2.434
 Vibration     5          0.642              1.827              2.051
 Vibration     6          0.656              1.783              1.818
 Vibration     7          0.693              1.673              1.415
 Vibration     8          0.748              1.519              1.051
 Vibration     9          0.800              1.384              0.827
 Vibration    10          0.821              1.331              0.755
 Vibration    11          0.856              1.248              0.656

 Normal termination of Gaussian 09 at Tue Jan 28 10:09:09 2020.
