 Gaussian 09, Revision D.01,
 Gaussian 09:  ES64L-G09RevD.01 24-Apr-2013

 -----------------------------
 # b3lyp 6-31G(2df,p) opt Freq
 -----------------------------

 -----
 titel
 -----
 Symbolic Z-matrix:
 Charge =  0 Multiplicity = 1

 SCF Done:  E(RB3LYP) =  -423.171872372     A.U. after   14 cycles
 Optimization completed.
    -- Stationary point found.
 Normal termination of Gaussian 09 at Tue Jan 28 14:12:55 2020.

 ----------------------------------------------------------------------
 #N Geom=AllCheck Guess=TCheck SCRF=Check GenChk RB3LYP/6-31G(2df,p) Fr
 eq
 ----------------------------------------------------------------------

 Structure from the checkpoint file:  "/scratch/puck/g09_af1edb1a-ddb6-4f22-a54a-4519b1ce58c5/Gau-11060.chk"
 -----
 titel
 -----
 Charge =  0 Multiplicity = 1

                         Standard orientation:
 ---------------------------------------------------------------------
 Center     Atomic      Atomic             Coordinates (Angstroms)
 Number     Number       Type             X           Y           Z
 ---------------------------------------------------------------------
      1          8           0        3.647140   -0.268447   -0.201713
      2          6           0        2.370629   -0.189029    0.407321
      3          6           0        1.248103    0.071066   -0.607319
      4          6           0       -0.100252    0.210583    0.041721
      5          6           0       -0.624816    1.477533    0.618498
      6          6           0       -1.388009    0.861068   -0.552048
      7          6           0       -2.169508   -0.318303   -0.067881
      8          8           0       -3.275429   -0.725376   -0.285807
      9          6           0       -0.929397   -0.958915    0.614221
     10          1           0        3.656462   -1.043961   -0.771783
     11          1           0        2.145559   -1.094460    0.993262
     12          1           0        2.428305    0.644759    1.114805
     13          1           0        1.493391    0.980150   -1.168365
     14          1           0        1.224582   -0.754050   -1.333650
     15          1           0       -1.072284    1.501324    1.608513
     16          1           0       -0.091908    2.385359    0.351482
     17          1           0       -1.541098    1.411965   -1.472343
     18          1           0       -0.943180   -1.078029    1.701566
     19          1           0       -0.714019   -1.926489    0.149595
 ---------------------------------------------------------------------

 SCF Done:  E(RB3LYP) =  -423.171872372     A.U. after    1 cycles

 The electronic state is 1-A.
 Alpha  occ. eigenvalues --  -19.14179 -19.12831 -10.26938 -10.23571 -10.22345
 Alpha  occ. eigenvalues --  -10.21071 -10.20648 -10.19858 -10.19744  -1.03947
 Alpha  occ. eigenvalues --   -1.02319  -0.91444  -0.76939  -0.73213  -0.65242
 Alpha  occ. eigenvalues --   -0.63868  -0.56235  -0.53653  -0.51467  -0.48313
 Alpha  occ. eigenvalues --   -0.47241  -0.46661  -0.44152  -0.41748  -0.40538
 Alpha  occ. eigenvalues --   -0.40356  -0.39052  -0.37339  -0.35448  -0.33268
 Alpha  occ. eigenvalues --   -0.30945  -0.29247  -0.26445  -0.24179
 Alpha virt. eigenvalues --   -0.00906   0.06608   0.07695   0.10200   0.10734
 Alpha virt. eigenvalues --    0.12049   0.13186   0.14272   0.14698   0.15123
 Alpha virt. eigenvalues --    0.16430   0.17524   0.18482   0.20627   0.22031

 Mulliken charges:
               1
     1  O   -0.413707
     2  C   -0.054271
     3  C   -0.336007
     4  C    0.367608
     5  C   -0.323895
     6  C   -0.236953
     7  C    0.432180
     8  O   -0.318874
     9  C   -0.422123
    10  H    0.282998
    11  H    0.093567
    12  H    0.117666
    13  H    0.112649
    14  H    0.093602
    15  H    0.122509
    16  H    0.126968
    17  H    0.109622
    18  H    0.119109
    19  H    0.127353
 Sum of Mulliken charges =   0.00000

 Dipole moment (field-independent basis, Debye):
    X=              2.1361    Y=              0.2174    Z=              0.0004  Tot=              2.1471
 Quadrupole moment (field-independent basis, Debye-Ang):
   XX=            -73.6318   YY=            -49.6779   ZZ=            -50.6519
   XY=             -7.1120   XZ=             -3.5390   YZ=              0.7830

  Exact polarizability:  91.812   2.055  73.831   1.316  -0.326  65.672
 Approx polarizability: 128.604   6.702 111.738   4.837   0.765 100.837

                      1                      2                      3
                      A                      A                      A
 Frequencies --     66.5249                91.7382               106.2915
 Red. masses --      5.2811                 3.9654                 2.0582
 Frc consts  --      0.0138                 0.0197                 0.0137
 IR Inten    --      4.7618                 7.1769                 2.4223

                      4                      5                      6
                      A                      A                      A
 Frequencies --    168.8200               299.0794               322.2476
 Red. masses --      3.9061                 1.1894                 2.6820
 Frc consts  --      0.0656                 0.0627                 0.1641
 IR Inten    --      1.3921                85.5702                 0.3218

                      7                      8                      9
                      A                      A                      A
 Frequencies --    339.4202               370.2340               414.3412
 Red. masses --      4.2515                 2.3794                 2.3249
 Frc consts  --      0.2886                 0.1922                 0.2352
 IR Inten    --     20.4715                 9.7621                 3.4631

                     10                     11                     12
                      A                      A                      A
 Frequencies --    470.2314               554.2524               632.7505
 Red. masses --      3.6955                 2.8336                 3.3718
 Frc consts  --      0.4814                 0.5129                 0.7954
 IR Inten    --      3.4782                 2.1293                 0.2712

                     13                     14                     15
                      A                      A                      A
 Frequencies --    727.7184               776.0554               788.0770
 Red. masses --      2.9145                 3.1796                 1.1586
 Frc consts  --      0.9094                 1.1283                 0.4240
 IR Inten    --      0.1249                38.8191                 2.1963

                     16                     17                     18
                      A                      A                      A
 Frequencies --    834.8611               920.4101               955.3984
 Red. masses --      3.6627                 1.4726                 1.9674
 Frc consts  --      1.5041                 0.7350                 1.0581
 IR Inten    --      2.2907                21.3636                11.1185

                     19                     20                     21
                      A                      A                      A
 Frequencies --    965.3410               990.5163              1021.9321
 Red. masses --      1.9617                 1.5725                 1.4462
 Frc consts  --      1.0771                 0.9090                 0.8899
 IR Inten    --      2.5480                 9.0274                 8.1156

                     22                     23                     24
                      A                      A                      A
 Frequencies --   1025.4546              1064.4459              1077.5720
 Red. masses --      3.2662                 2.1196                 3.6576
 Frc consts  --      2.0236                 1.4150                 2.5023
 IR Inten    --     10.1547                24.5075               121.1916

                     25                     26                     27
                      A                      A                      A
 Frequencies --   1094.2100              1104.2402              1119.8758
 Red. masses --      1.5255                 1.2822                 1.8647
 Frc consts  --      1.0761                 0.9211                 1.3779
 IR Inten    --      2.8865                 0.5893                 7.2828

                     28                     29                     30
                      A                      A                      A
 Frequencies --   1163.1606              1206.1670              1236.3216
 Red. masses --      1.5848                 1.4831                 1.8135
 Frc consts  --      1.2633                 1.2713                 1.6332
 IR Inten    --      7.4117                 6.0713                 7.8691

                     31                     32                     33
                      A                      A                      A
 Frequencies --   1269.5789              1307.7643              1334.9212
 Red. masses --      2.0053                 1.4871                 1.2673
 Frc consts  --      1.9043                 1.4984                 1.3305
 IR Inten    --     16.6869                 2.6462                 1.2522

                     34                     35                     36
                      A                      A                      A
 Frequencies --   1388.3039              1405.4583              1419.2318
 Red. masses --      1.8047                 1.6171                 1.3287
 Frc consts  --      2.0494                 1.8820                 1.5769
 IR Inten    --     13.6188                 7.5362                39.8182

                     37                     38                     39
                      A                      A                      A
 Frequencies --   1457.6108              1482.0839              1503.6858
 Red. masses --      1.1104                 1.1205                 1.2725
 Frc consts  --      1.3900                 1.4501                 1.6953
 IR Inten    --      3.0465                 3.0752                 2.0706

                     40                     41                     42
                      A                      A                      A
 Frequencies --   1512.8380              1881.4531              2978.9250
 Red. masses --      1.0912                12.3633                 1.0704
 Frc consts  --      1.4714                25.7852                 5.5963
 IR Inten    --      0.5280               393.6861                45.3423

                     43                     44                     45
                      A                      A                      A
 Frequencies --   3006.0951              3051.6307              3062.0047
 Red. masses --      1.0652                 1.0577                 1.0904
 Frc consts  --      5.6715                 5.8036                 6.0236
 IR Inten    --     29.3340                16.8130                10.1562

                     46                     47                     48
                      A                      A                      A
 Frequencies --   3081.8457              3105.1887              3113.8628
 Red. masses --      1.0979                 1.1066                 1.0550
 Frc consts  --      6.1440                 6.2864                 6.0271
 IR Inten    --     38.4910                11.9829                15.8757

                     49                     50                     51
                      A                      A                      A
 Frequencies --   3191.0713              3200.8944              3815.6361
 Red. masses --      1.0985                 1.1109                 1.0662
 Frc consts  --      6.5906                 6.7059                 9.1454
 IR Inten    --      3.7047                 8.6377                18.9898

 - Thermochemistry -
 -------------------
 Temperature   298.150 Kelvin.  Pressure   1.00000 Atm.
 Atom     1 has atomic number  8 and mass  15.99491

 Molecular mass:   126.06808 amu.
 Principal axes and moments of inertia in atomic units:
                           1         2         3
     Eigenvalues --   400.445612259.938422409.92707
           X            0.99993  -0.01076  -0.00426
           Y            0.01070   0.99984  -0.01452
           Z            0.00442   0.01448   0.99989
 This molecule is an asymmetric top.
 Rotational symmetry number  1.
 Rotational temperatures (Kelvin)      0.21629     0.03833     0.03594
 Rotational constants (GHZ):           4.50683     0.79858     0.74888
 Zero-point vibrational energy     415569.4 (Joules/Mol)
                                   99.32346 (Kcal/Mol)
 Warning -- explicit consideration of  11 degrees of freedom as
           vibrations may cause significant error
 Vibrational temperatures:     95.71   131.99   152.93   242.89   430.31
          (Kelvin)            463.64   488.35   532.68   596.14   676.56
                              797.44   910.39  1047.02  1116.57  1133.87
                             1201.18  1324.26  1374.60  1388.91  1425.13
                             1470.33  1475.40  1531.50  1550.38  1574.32
                             1588.75  1611.25  1673.53  1735.40  1778.79
                             1826.64  1881.58  1920.65  1997.46  2022.14
                             2041.96  2097.17  2132.39  2163.47  2176.63
                             2706.99  4286.00  4325.09  4390.61  4405.54
                             4434.08  4467.67  4480.15  4591.23  4605.37
                             5489.84

 Zero-point correction=                           0.158282 (Hartree/Particle)
 Thermal correction to Energy=                    0.167235
 Thermal correction to Enthalpy=                  0.168179
 Thermal correction to Gibbs Free Energy=         0.124001
 Sum of electronic and zero-point Energies=           -423.013590
 Sum of electronic and thermal Energies=              -423.004637
 Sum of electronic and thermal Enthalpies=            -423.003693
 Sum of electronic and thermal Free Energies=         -423.047871

                     E (Thermal)             CV                S
                      KCal/Mol        Cal/Mol-Kelvin    Cal/Mol-Kelvin
 Total                  104.942             33.275             92.981
 Electronic               0.000              0.000              0.000
 Translational            0.889              2.981             40.409
 Rotational               0.889              2.981             29.168
 Vibrational            103.164             27.314             23.404
 Vibration     1          0.598              1.970              4.254
 Vibration     2          0.602              1.955              3.623
 Vibration     3          0.605              1.944              3.336
 Vibration     4          0.625              1.881              2.449
 Vibration     5          0.692              1.675              1.422
 Vibration     6          0.707              1.631              1.299
 Vibration     7          0.719              1.597              1.215
 Vibration     8          0.742              1.533              1.079
 Vibration     9          0.778              1.439              0.911
 Vibration    10          0.827              1.316              0.737
 Vibration    11          0.910              1.130              0.535

 Optimization completed.
    -- Stationary point found.
 Normal termination of Gaussian 09 at Tue Jan 28 14:56:51 2020.
