 Gaussian 09, Revision D.01,
 Gaussian 09:  ES64L-G09RevD.01 24-Apr-2013

 -----------------------------
 # b3lyp 6-31G(2df,p) opt Freq
 -----------------------------

 -----
 titel
 -----
 Symbolic Z-matrix:
 Charge =  0 Multiplicity = 1

 SCF Done:  E(RB3LYP) =  -423.149380869     A.U. after   13 cycles
 Optimization completed.
    -- Stationary point found.
 Normal termination of Gaussian 09 at Mon Jan 27 18:23:45 2020.

 ----------------------------------------------------------------------
 #N Geom=AllCheck Guess=TCheck SCRF=Check GenChk RB3LYP/6-31G(2df,p) Fr
 eq
 ----------------------------------------------------------------------

 Structure from the checkpoint file:  "/scratch/puck/g09_95ded52b-fad9-422d-919c-f017ea2c1bdd/Gau-171813.chk"
 -----
 titel
 -----
 Charge =  0 Multiplicity = 1

                         Standard orientation:
 ---------------------------------------------------------------------
 Center     Atomic      Atomic             Coordinates (Angstroms)
 Number     Number       Type             X           Y           Z
 ---------------------------------------------------------------------
      1          6           0        2.650350    0.184885   -0.387248
      2          6           0        1.201084    0.013299   -0.071638
      3          8           0        0.494546   -1.005107   -0.791098
      4          6           0       -0.367147   -1.233005    0.362016
      5          6           0       -1.798412   -0.813058    0.048426
      6          8           0       -1.833304    0.405047   -0.665418
      7          6           0       -1.088627    1.472222   -0.104096
      8          6           0        0.269515    1.085770    0.454930
      9          6           0        0.421483   -0.220811    1.202320
     10          1           0        3.184741   -0.764671   -0.284046
     11          1           0        2.778580    0.536464   -1.417192
     12          1           0        3.107310    0.920236    0.281119
     13          1           0       -0.307658   -2.271458    0.702161
     14          1           0       -2.287172   -1.544575   -0.602475
     15          1           0       -2.368410   -0.758049    0.993277
     16          1           0       -0.989131    2.209222   -0.908331
     17          1           0       -1.662942    1.947799    0.711581
     18          1           0        0.798613    1.918944    0.912896
     19          1           0        0.726653   -0.329254    2.234884
 ---------------------------------------------------------------------

 SCF Done:  E(RB3LYP) =  -423.149380869     A.U. after    1 cycles

 The electronic state is 1-A.
 Alpha  occ. eigenvalues --  -19.13415 -19.13156 -10.24395 -10.23575 -10.22810
 Alpha  occ. eigenvalues --  -10.22511 -10.19375 -10.19010 -10.18419  -1.05563
 Alpha  occ. eigenvalues --   -1.01980  -0.83974  -0.76016  -0.73452  -0.67143
 Alpha  occ. eigenvalues --   -0.63572  -0.54829  -0.53526  -0.51387  -0.47673
 Alpha  occ. eigenvalues --   -0.47302  -0.46132  -0.43426  -0.41889  -0.41160
 Alpha  occ. eigenvalues --   -0.39705  -0.38020  -0.37491  -0.34103  -0.32752
 Alpha  occ. eigenvalues --   -0.29698  -0.26766  -0.24828  -0.22389
 Alpha virt. eigenvalues --    0.07856   0.09349   0.11194   0.12311   0.12729
 Alpha virt. eigenvalues --    0.13338   0.13962   0.15622   0.15786   0.16986
 Alpha virt. eigenvalues --    0.17124   0.18326   0.18972   0.20130   0.21575

 Mulliken charges:
               1
     1  C   -0.491631
     2  C    0.465520
     3  O   -0.326776
     4  C    0.086498
     5  C   -0.092660
     6  O   -0.241305
     7  C   -0.094177
     8  C   -0.121203
     9  C   -0.230413
    10  H    0.129194
    11  H    0.134824
    12  H    0.122410
    13  H    0.081850
    14  H    0.114452
    15  H    0.085397
    16  H    0.111970
    17  H    0.085196
    18  H    0.089254
    19  H    0.091600
 Sum of Mulliken charges =   0.00000

 Dipole moment (field-independent basis, Debye):
    X=              0.9631    Y=              0.4788    Z=              2.2702  Tot=              2.5121
 Quadrupole moment (field-independent basis, Debye-Ang):
   XX=            -52.7110   YY=            -50.1459   ZZ=            -54.3831
   XY=              3.0159   XZ=             -1.2758   YZ=             -1.4173

  Exact polarizability:  82.386   2.929  77.146  -2.813  -1.143  65.281
 Approx polarizability: 106.343   3.518 112.878  -4.515  -0.389 105.698

                      1                      2                      3
                      A                      A                      A
 Frequencies --    168.6548               194.9579               221.1644
 Red. masses --      3.2727                 1.2071                 1.7452
 Frc consts  --      0.0548                 0.0270                 0.0503
 IR Inten    --      2.6330                 0.1923                 0.3595

                      4                      5                      6
                      A                      A                      A
 Frequencies --    255.7964               279.7406               385.9162
 Red. masses --      3.7060                 2.2139                 2.9548
 Frc consts  --      0.1429                 0.1021                 0.2593
 IR Inten    --      1.9249                 3.1240                 1.8152

                      7                      8                      9
                      A                      A                      A
 Frequencies --    427.2844               493.3394               623.9953
 Red. masses --      4.5430                 3.3921                 3.5034
 Frc consts  --      0.4887                 0.4864                 0.8037
 IR Inten    --      1.2207                 1.6359                 3.3696

                     10                     11                     12
                      A                      A                      A
 Frequencies --    673.7289               726.9507               744.4010
 Red. masses --      4.5547                 3.4218                 3.2383
 Frc consts  --      1.2181                 1.0654                 1.0572
 IR Inten    --      7.7703                 2.0317                 6.7391

                     13                     14                     15
                      A                      A                      A
 Frequencies --    826.7385               859.7365               880.8890
 Red. masses --      3.9749                 2.3111                 2.3803
 Frc consts  --      1.6007                 1.0065                 1.0882
 IR Inten    --     27.1911                 5.4561                32.0621

                     16                     17                     18
                      A                      A                      A
 Frequencies --    903.2528               915.9916               974.8026
 Red. masses --      2.3112                 1.7600                 1.7069
 Frc consts  --      1.1110                 0.8701                 0.9556
 IR Inten    --      7.9283                 3.6897                13.0783

                     19                     20                     21
                      A                      A                      A
 Frequencies --    986.3284              1025.3145              1031.8513
 Red. masses --      2.7997                 1.8900                 2.0274
 Frc consts  --      1.6048                 1.1707                 1.2718
 IR Inten    --      6.3333                 6.2304                 7.6089

                     22                     23                     24
                      A                      A                      A
 Frequencies --   1064.5001              1075.6617              1110.8190
 Red. masses --      1.8041                 2.0588                 1.7280
 Frc consts  --      1.2045                 1.4035                 1.2563
 IR Inten    --      4.9086                19.9170                10.7933

                     25                     26                     27
                      A                      A                      A
 Frequencies --   1119.8632              1170.5641              1192.2532
 Red. masses --      2.0676                 4.4739                 1.8139
 Frc consts  --      1.5277                 3.6119                 1.5191
 IR Inten    --      6.3933                83.2976                25.3250

                     28                     29                     30
                      A                      A                      A
 Frequencies --   1248.0248              1256.2050              1293.7038
 Red. masses --      1.4630                 1.8987                 1.3312
 Frc consts  --      1.3425                 1.7654                 1.3127
 IR Inten    --     15.4127                 1.0959                24.6026

                     31                     32                     33
                      A                      A                      A
 Frequencies --   1301.4045              1329.2550              1335.4849
 Red. masses --      1.5607                 1.4854                 1.7080
 Frc consts  --      1.5574                 1.5463                 1.7948
 IR Inten    --      3.5132                 5.3840                10.5375

                     34                     35                     36
                      A                      A                      A
 Frequencies --   1387.1907              1406.8400              1426.7368
 Red. masses --      1.2893                 1.3166                 1.3972
 Frc consts  --      1.4618                 1.5353                 1.6757
 IR Inten    --      1.3242                 5.2357                20.9579

                     37                     38                     39
                      A                      A                      A
 Frequencies --   1473.2413              1480.6996              1487.5327
 Red. masses --      1.0861                 1.8884                 1.1224
 Frc consts  --      1.3889                 2.4393                 1.4633
 IR Inten    --      3.6210                 9.6998                 0.8164

                     40                     41                     42
                      A                      A                      A
 Frequencies --   1501.8125              1504.5167              2938.2611
 Red. masses --      1.2194                 1.1895                 1.0721
 Frc consts  --      1.6204                 1.5864                 5.4536
 IR Inten    --      1.0878                 4.7862                72.3913

                     43                     44                     45
                      A                      A                      A
 Frequencies --   2952.1714              3033.7976              3060.2892
 Red. masses --      1.0709                 1.0356                 1.0881
 Frc consts  --      5.4991                 5.6156                 6.0038
 IR Inten    --     77.0323                25.2242                32.4112

                     46                     47                     48
                      A                      A                      A
 Frequencies --   3061.3527              3080.5514              3098.1136
 Red. masses --      1.0891                 1.0909                 1.1004
 Frc consts  --      6.0136                 6.0994                 6.2229
 IR Inten    --     39.3992                38.9747                16.2561

                     49                     50                     51
                      A                      A                      A
 Frequencies --   3116.3851              3137.3993              3192.5569
 Red. masses --      1.1010                 1.0867                 1.0949
 Frc consts  --      6.2999                 6.3023                 6.5748
 IR Inten    --     13.6436                15.9879                12.7697

 - Thermochemistry -
 -------------------
 Temperature   298.150 Kelvin.  Pressure   1.00000 Atm.
 Atom     1 has atomic number  6 and mass  12.00000

 Molecular mass:   126.06808 amu.
 Principal axes and moments of inertia in atomic units:
                           1         2         3
     Eigenvalues --   571.890531115.405491318.43596
           X            0.99959   0.02463  -0.01479
           Y           -0.02497   0.99942  -0.02304
           Z            0.01421   0.02340   0.99963
 This molecule is an asymmetric top.
 Rotational symmetry number  1.
 Warning -- assumption of classical behavior for rotation
           may cause significant error
 Rotational temperatures (Kelvin)      0.15145     0.07765     0.06569
 Rotational constants (GHZ):           3.15575     1.61801     1.36885
 Zero-point vibrational energy     421312.9 (Joules/Mol)
                                  100.69621 (Kcal/Mol)
 Warning -- explicit consideration of   8 degrees of freedom as
           vibrations may cause significant error
 Vibrational temperatures:    242.66   280.50   318.21   368.03   402.48
          (Kelvin)            555.25   614.77   709.80   897.79   969.34
                             1045.92  1071.03  1189.49  1236.97  1267.40
                             1299.58  1317.91  1402.52  1419.10  1475.20
                             1484.60  1531.58  1547.64  1598.22  1611.23
                             1684.18  1715.38  1795.63  1807.40  1861.35
                             1872.43  1912.50  1921.46  1995.86  2024.13
                             2052.75  2119.66  2130.39  2140.23  2160.77
                             2164.66  4227.50  4247.51  4364.95  4403.07
                             4404.60  4432.22  4457.49  4483.78  4514.01
                             4593.37

 Zero-point correction=                           0.160470 (Hartree/Particle)
 Thermal correction to Energy=                    0.167938
 Thermal correction to Enthalpy=                  0.168882
 Thermal correction to Gibbs Free Energy=         0.128949
 Sum of electronic and zero-point Energies=           -422.988911
 Sum of electronic and thermal Energies=              -422.981443
 Sum of electronic and thermal Enthalpies=            -422.980499
 Sum of electronic and thermal Free Energies=         -423.020432

                     E (Thermal)             CV                S
                      KCal/Mol        Cal/Mol-Kelvin    Cal/Mol-Kelvin
 Total                  105.383             29.877             84.047
 Electronic               0.000              0.000              0.000
 Translational            0.889              2.981             40.409
 Rotational               0.889              2.981             28.222
 Vibrational            103.605             23.916             15.417
 Vibration     1          0.625              1.881              2.450
 Vibration     2          0.636              1.847              2.180
 Vibration     3          0.648              1.809              1.950
 Vibration     4          0.666              1.753              1.690
 Vibration     5          0.680              1.711              1.535
 Vibration     6          0.755              1.500              1.016
 Vibration     7          0.789              1.411              0.868
 Vibration     8          0.849              1.265              0.675

 Optimization completed.
    -- Stationary point found.
 Normal termination of Gaussian 09 at Mon Jan 27 19:12:23 2020.
