 Gaussian 09, Revision D.01,
 Gaussian 09:  ES64L-G09RevD.01 24-Apr-2013

 -----------------------------
 # b3lyp 6-31G(2df,p) opt Freq
 -----------------------------

 -----
 titel
 -----
 Symbolic Z-matrix:
 Charge =  0 Multiplicity = 1

 SCF Done:  E(RB3LYP) =  -423.202862548     A.U. after   14 cycles
 Optimization completed.
    -- Stationary point found.
 Normal termination of Gaussian 09 at Tue Jan 28 00:06:52 2020.

 ----------------------------------------------------------------------
 #N Geom=AllCheck Guess=TCheck SCRF=Check GenChk RB3LYP/6-31G(2df,p) Fr
 eq
 ----------------------------------------------------------------------

 Structure from the checkpoint file:  "/scratch/puck/g09_42fe056e-eedd-40e4-8907-93966b0f0f97/Gau-3510.chk"
 -----
 titel
 -----
 Charge =  0 Multiplicity = 1

                         Standard orientation:
 ---------------------------------------------------------------------
 Center     Atomic      Atomic             Coordinates (Angstroms)
 Number     Number       Type             X           Y           Z
 ---------------------------------------------------------------------
      1          6           0       -2.564490   -0.306907    0.272835
      2          6           0       -1.250087   -0.160992   -0.510749
      3          6           0       -0.778380    1.275952   -0.556838
      4          6           0        0.378628    1.650819   -0.013032
      5          6           0        1.242244    0.605436    0.654172
      6          6           0        1.983971   -0.250832   -0.390295
      7          8           0        0.958332   -1.142473   -0.829639
      8          6           0       -0.125908   -1.026330    0.092792
      9          8           0        0.404374   -0.401549    1.240544
     10          1           0       -2.934853   -1.336913    0.233817
     11          1           0       -2.413821   -0.034327    1.321557
     12          1           0       -3.341554    0.344360   -0.139179
     13          1           0       -1.406571   -0.517187   -1.537556
     14          1           0       -1.433736    2.000434   -1.034365
     15          1           0        0.735328    2.675135   -0.056463
     16          1           0        1.885874    1.010980    1.436117
     17          1           0        2.356181    0.323632   -1.243173
     18          1           0        2.810412   -0.810749    0.066951
     19          1           0       -0.474774   -2.026068    0.371750
 ---------------------------------------------------------------------

 SCF Done:  E(RB3LYP) =  -423.202862548     A.U. after    1 cycles

 The electronic state is 1-A.
 Alpha  occ. eigenvalues --  -19.14657 -19.13863 -10.27215 -10.24008 -10.22979
 Alpha  occ. eigenvalues --  -10.19000 -10.18657 -10.18302 -10.17622  -1.08814
 Alpha  occ. eigenvalues --   -0.98782  -0.81091  -0.79011  -0.71289  -0.63829
 Alpha  occ. eigenvalues --   -0.63548  -0.60353  -0.53831  -0.52480  -0.47520
 Alpha  occ. eigenvalues --   -0.46457  -0.45177  -0.43099  -0.42582  -0.39860
 Alpha  occ. eigenvalues --   -0.39164  -0.37550  -0.36789  -0.34239  -0.33380
 Alpha  occ. eigenvalues --   -0.32896  -0.26638  -0.25877  -0.24266
 Alpha virt. eigenvalues --    0.01052   0.09009   0.11121   0.12819   0.13167
 Alpha virt. eigenvalues --    0.13779   0.14797   0.15603   0.16061   0.17259
 Alpha virt. eigenvalues --    0.17949   0.18482   0.18725   0.21406   0.22682

 Mulliken charges:
               1
     1  C   -0.407463
     2  C   -0.041668
     3  C   -0.064966
     4  C   -0.069952
     5  C   -0.003028
     6  C   -0.080488
     7  O   -0.281315
     8  C    0.179007
     9  O   -0.253514
    10  H    0.114133
    11  H    0.133272
    12  H    0.114958
    13  H    0.092415
    14  H    0.092739
    15  H    0.091439
    16  H    0.090430
    17  H    0.109702
    18  H    0.100271
    19  H    0.084029
 Sum of Mulliken charges =   0.00000

 Dipole moment (field-independent basis, Debye):
    X=              0.0130    Y=              1.2406    Z=             -0.2729  Tot=              1.2704
 Quadrupole moment (field-independent basis, Debye-Ang):
   XX=            -48.6376   YY=            -52.1199   ZZ=            -56.5027
   XY=              2.9305   XZ=              1.9656   YZ=             -0.9394

  Exact polarizability:  91.744   5.435  73.822   5.112  -0.988  60.541
 Approx polarizability: 127.225  10.963 107.474  11.418   1.516  98.557

                      1                      2                      3
                      A                      A                      A
 Frequencies --    128.1261               211.6362               221.3541
 Red. masses --      3.1085                 2.6761                 1.2534
 Frc consts  --      0.0301                 0.0706                 0.0362
 IR Inten    --      0.8121                 2.6897                 0.3315

                      4                      5                      6
                      A                      A                      A
 Frequencies --    261.2896               339.4228               405.2922
 Red. masses --      2.3285                 2.4546                 3.1095
 Frc consts  --      0.0937                 0.1666                 0.3009
 IR Inten    --      0.5263                 2.1210                 2.0640

                      7                      8                      9
                      A                      A                      A
 Frequencies --    478.0015               544.1400               570.9217
 Red. masses --      6.0820                 3.8570                 3.6133
 Frc consts  --      0.8188                 0.6728                 0.6939
 IR Inten    --      7.8863                 0.7400                 0.2545

                     10                     11                     12
                      A                      A                      A
 Frequencies --    707.4548               730.0517               794.5608
 Red. masses --      4.9347                 1.6891                 3.8475
 Frc consts  --      1.4552                 0.5304                 1.4311
 IR Inten    --      1.8369                17.7259                 0.9770

                     13                     14                     15
                      A                      A                      A
 Frequencies --    820.9583               860.8946               893.3108
 Red. masses --      3.2703                 2.6521                 2.9436
 Frc consts  --      1.2986                 1.1581                 1.3840
 IR Inten    --     16.1220                 2.8533                28.6099

                     16                     17                     18
                      A                      A                      A
 Frequencies --    918.1488               942.8349               973.1638
 Red. masses --      2.7215                 2.2544                 2.2928
 Frc consts  --      1.3517                 1.1807                 1.2793
 IR Inten    --     39.4990                31.3311                 3.2134

                     19                     20                     21
                      A                      A                      A
 Frequencies --    988.9128               996.9952              1032.0633
 Red. masses --      1.2374                 2.6553                 3.8793
 Frc consts  --      0.7130                 1.5551                 2.4345
 IR Inten    --      1.0393                13.2761                18.6804

                     22                     23                     24
                      A                      A                      A
 Frequencies --   1048.3707              1077.7754              1098.0723
 Red. masses --      3.5477                 1.7497                 2.4656
 Frc consts  --      2.2973                 1.1975                 1.7516
 IR Inten    --     74.1094                 5.1901                 8.0534

                     25                     26                     27
                      A                      A                      A
 Frequencies --   1123.8786              1149.6359              1185.8997
 Red. masses --      1.6763                 2.7406                 1.1914
 Frc consts  --      1.2475                 2.1341                 0.9872
 IR Inten    --     22.5267                62.8705                 8.6650

                     28                     29                     30
                      A                      A                      A
 Frequencies --   1205.0560              1267.4833              1301.6382
 Red. masses --      1.1200                 1.3704                 1.2417
 Frc consts  --      0.9583                 1.2972                 1.2395
 IR Inten    --      3.3887                 0.9611                 2.9048

                     31                     32                     33
                      A                      A                      A
 Frequencies --   1314.9218              1332.7741              1340.3690
 Red. masses --      1.5407                 1.3587                 1.4773
 Frc consts  --      1.5695                 1.4219                 1.5638
 IR Inten    --      6.2059                 1.8938                 7.2324

                     34                     35                     36
                      A                      A                      A
 Frequencies --   1377.1993              1386.6001              1397.0328
 Red. masses --      1.3628                 1.5192                 1.3207
 Frc consts  --      1.5230                 1.7210                 1.5187
 IR Inten    --      8.1337                 7.2758                 1.9015

                     37                     38                     39
                      A                      A                      A
 Frequencies --   1420.9386              1494.4032              1504.5669
 Red. masses --      1.4316                 1.0448                 1.0577
 Frc consts  --      1.7030                 1.3747                 1.4107
 IR Inten    --      2.1342                 4.8561                 4.3377

                     40                     41                     42
                      A                      A                      A
 Frequencies --   1514.9378              1705.9382              3015.1131
 Red. masses --      1.0945                 6.7502                 1.0649
 Frc consts  --      1.4799                11.5742                 5.7036
 IR Inten    --      0.3820                 3.4320                75.8604

                     43                     44                     45
                      A                      A                      A
 Frequencies --   3023.1870              3034.0321              3060.6342
 Red. masses --      1.0821                 1.0354                 1.0885
 Frc consts  --      5.8270                 5.6154                 6.0079
 IR Inten    --     14.9019                22.8316                54.8285

                     46                     47                     48
                      A                      A                      A
 Frequencies --   3090.1696              3102.1028              3109.6956
 Red. masses --      1.1002                 1.1012                 1.0887
 Frc consts  --      6.1900                 6.2437                 6.2030
 IR Inten    --     24.3696                27.9365                29.4382

                     49                     50                     51
                      A                      A                      A
 Frequencies --   3115.6804              3151.4889              3182.0874
 Red. masses --      1.1019                 1.0854                 1.0975
 Frc consts  --      6.3020                 6.3515                 6.5476
 IR Inten    --     18.5877                11.6975                21.8666

 - Thermochemistry -
 -------------------
 Temperature   298.150 Kelvin.  Pressure   1.00000 Atm.
 Atom     1 has atomic number  6 and mass  12.00000

 Molecular mass:   126.06808 amu.
 Principal axes and moments of inertia in atomic units:
                           1         2         3
     Eigenvalues --   620.187501061.139541256.59702
           X            0.99949   0.03194  -0.00063
           Y           -0.03194   0.99907  -0.02888
           Z           -0.00029   0.02889   0.99958
 This molecule is an asymmetric top.
 Rotational symmetry number  1.
 Warning -- assumption of classical behavior for rotation
           may cause significant error
 Rotational temperatures (Kelvin)      0.13966     0.08162     0.06893
 Rotational constants (GHZ):           2.90999     1.70076     1.43621
 Zero-point vibrational energy     424382.5 (Joules/Mol)
                                  101.42986 (Kcal/Mol)
 Warning -- explicit consideration of   9 degrees of freedom as
           vibrations may cause significant error
 Vibrational temperatures:    184.34   304.50   318.48   375.94   488.35
          (Kelvin)            583.12   687.74   782.90   821.43  1017.87
                             1050.38  1143.19  1181.17  1238.63  1285.27
                             1321.01  1356.53  1400.16  1422.82  1434.45
                             1484.91  1508.37  1550.68  1579.88  1617.01
                             1654.07  1706.24  1733.80  1823.62  1872.76
                             1891.88  1917.56  1928.49  1981.48  1995.01
                             2010.02  2044.41  2150.11  2164.73  2179.65
                             2454.46  4338.07  4349.69  4365.29  4403.56
                             4446.06  4463.23  4474.15  4482.76  4534.28
                             4578.31

 Zero-point correction=                           0.161639 (Hartree/Particle)
 Thermal correction to Energy=                    0.168971
 Thermal correction to Enthalpy=                  0.169915
 Thermal correction to Gibbs Free Energy=         0.130147
 Sum of electronic and zero-point Energies=           -423.041224
 Sum of electronic and thermal Energies=              -423.033891
 Sum of electronic and thermal Enthalpies=            -423.032947
 Sum of electronic and thermal Free Energies=         -423.072716

                     E (Thermal)             CV                S
                      KCal/Mol        Cal/Mol-Kelvin    Cal/Mol-Kelvin
 Total                  106.031             29.462             83.700
 Electronic               0.000              0.000              0.000
 Translational            0.889              2.981             40.409
 Rotational               0.889              2.981             28.205
 Vibrational            104.253             23.500             15.086
 Vibration     1          0.611              1.925              2.974
 Vibration     2          0.643              1.823              2.030
 Vibration     3          0.648              1.809              1.948
 Vibration     4          0.669              1.744              1.653
 Vibration     5          0.719              1.597              1.215
 Vibration     6          0.770              1.459              0.943
 Vibration     7          0.835              1.299              0.715
 Vibration     8          0.899              1.153              0.556
 Vibration     9          0.927              1.094              0.502

 Optimization completed.
    -- Stationary point found.
 Normal termination of Gaussian 09 at Tue Jan 28 00:55:34 2020.
