 Gaussian 09, Revision D.01,
 Gaussian 09:  ES64L-G09RevD.01 24-Apr-2013

 -----------------------------
 # b3lyp 6-31G(2df,p) opt Freq
 -----------------------------

 -----
 titel
 -----
 Symbolic Z-matrix:
 Charge =  0 Multiplicity = 1

 SCF Done:  E(RB3LYP) =  -423.178922774     A.U. after   14 cycles
 Optimization completed.
    -- Stationary point found.
 Normal termination of Gaussian 09 at Tue Jan 28 02:24:33 2020.

 ----------------------------------------------------------------------
 #N Geom=AllCheck Guess=TCheck SCRF=Check GenChk RB3LYP/6-31G(2df,p) Fr
 eq
 ----------------------------------------------------------------------

 Structure from the checkpoint file:  "/scratch/puck/g09_cd674b4b-d440-4ee7-94a3-20d9e4cc1bda/Gau-5070.chk"
 -----
 titel
 -----
 Charge =  0 Multiplicity = 1

                         Standard orientation:
 ---------------------------------------------------------------------
 Center     Atomic      Atomic             Coordinates (Angstroms)
 Number     Number       Type             X           Y           Z
 ---------------------------------------------------------------------
      1          6           0       -2.123512   -1.211962    0.237605
      2          6           0       -0.732184   -1.246997   -0.381747
      3          6           0        0.494925   -1.449778    0.563345
      4          6           0        1.126067   -0.128920    0.058093
      5          8           0        2.470014   -0.107081   -0.308789
      6          6           0        0.724086    1.135842    0.853383
      7          6           0       -0.481695    1.312289   -0.086183
      8          8           0       -1.362893    2.122301   -0.147058
      9          6           0       -0.112979    0.090273   -0.925924
     10          1           0       -2.877641   -0.921484   -0.500771
     11          1           0       -2.394721   -2.198691    0.628189
     12          1           0       -2.184363   -0.497289    1.064689
     13          1           0       -0.716897   -1.989783   -1.184485
     14          1           0        0.280173   -1.488884    1.635785
     15          1           0        1.094239   -2.329660    0.308189
     16          1           0        2.660732   -0.894487   -0.829243
     17          1           0        0.522129    1.040797    1.923831
     18          1           0        1.455635    1.936275    0.697687
     19          1           0       -0.064498    0.216961   -2.008528
 ---------------------------------------------------------------------

 SCF Done:  E(RB3LYP) =  -423.178922774     A.U. after    1 cycles

 The electronic state is 1-A.
 Alpha  occ. eigenvalues --  -19.15273 -19.13225 -10.26591 -10.24920 -10.20577
 Alpha  occ. eigenvalues --  -10.18998 -10.18787 -10.18766 -10.18008  -1.04233
 Alpha  occ. eigenvalues --   -1.03669  -0.87261  -0.77256  -0.70886  -0.67899
 Alpha  occ. eigenvalues --   -0.60036  -0.58022  -0.52145  -0.50785  -0.47882
 Alpha  occ. eigenvalues --   -0.46259  -0.43945  -0.42102  -0.41530  -0.40581
 Alpha  occ. eigenvalues --   -0.40074  -0.37674  -0.36841  -0.35839  -0.34177
 Alpha  occ. eigenvalues --   -0.31869  -0.29252  -0.26142  -0.23519
 Alpha virt. eigenvalues --   -0.02034   0.06179   0.08674   0.10326   0.11489
 Alpha virt. eigenvalues --    0.13152   0.13941   0.14596   0.16155   0.16808
 Alpha virt. eigenvalues --    0.17182   0.17881   0.18631   0.22072   0.23113

 Mulliken charges:
               1
     1  C   -0.403548
     2  C    0.031704
     3  C   -0.323805
     4  C    0.429597
     5  O   -0.477337
     6  C   -0.395605
     7  C    0.434053
     8  O   -0.312935
     9  C   -0.270346
    10  H    0.129182
    11  H    0.114803
    12  H    0.125271
    13  H    0.084638
    14  H    0.104195
    15  H    0.095649
    16  H    0.280626
    17  H    0.122326
    18  H    0.144930
    19  H    0.086602
 Sum of Mulliken charges =   0.00000

 Dipole moment (field-independent basis, Debye):
    X=              1.1811    Y=             -3.2390    Z=             -0.3158  Tot=              3.4620
 Quadrupole moment (field-independent basis, Debye-Ang):
   XX=            -57.5448   YY=            -55.8553   ZZ=            -50.4630
   XY=              2.2732   XZ=             -1.9305   YZ=              2.2533

  Exact polarizability:  79.794  -1.780  79.073   1.659   2.045  66.829
 Approx polarizability: 114.646  -8.765 114.741   3.004   3.024 102.714

                      1                      2                      3
                      A                      A                      A
 Frequencies --     46.4430               120.1957               221.9382
 Red. masses --      2.9961                 4.5176                 1.2058
 Frc consts  --      0.0038                 0.0385                 0.0350
 IR Inten    --      1.0781                 2.5859                 0.8980

                      4                      5                      6
                      A                      A                      A
 Frequencies --    231.8218               311.0502               330.9978
 Red. masses --      1.8193                 1.4816                 2.2654
 Frc consts  --      0.0576                 0.0845                 0.1462
 IR Inten    --      4.5297                56.4845                28.5501

                      7                      8                      9
                      A                      A                      A
 Frequencies --    356.4444               378.5996               405.0614
 Red. masses --      2.2999                 3.2074                 2.9727
 Frc consts  --      0.1722                 0.2709                 0.2874
 IR Inten    --      4.2162                 5.2379                11.8473

                     10                     11                     12
                      A                      A                      A
 Frequencies --    449.2036               562.9308               577.4429
 Red. masses --      2.9980                 2.3933                 2.9521
 Frc consts  --      0.3564                 0.4469                 0.5800
 IR Inten    --      1.2692                 7.0984                 3.4767

                     13                     14                     15
                      A                      A                      A
 Frequencies --    605.9241               706.1343               805.9578
 Red. masses --      4.9536                 2.5486                 2.0587
 Frc consts  --      1.0715                 0.7487                 0.7879
 IR Inten    --      5.6128                 1.3391                 1.5007

                     16                     17                     18
                      A                      A                      A
 Frequencies --    860.0827               870.0954               913.4056
 Red. masses --      2.7450                 2.0614                 3.3236
 Frc consts  --      1.1964                 0.9195                 1.6338
 IR Inten    --      3.7239                 1.0882                 1.1710

                     19                     20                     21
                      A                      A                      A
 Frequencies --    924.3821               947.6954               993.8857
 Red. masses --      1.9661                 2.2964                 1.3073
 Frc consts  --      0.9898                 1.2152                 0.7609
 IR Inten    --      3.6288                 3.5210                 4.7394

                     22                     23                     24
                      A                      A                      A
 Frequencies --   1023.0115              1080.9691              1097.4373
 Red. masses --      1.9539                 1.8974                 1.6799
 Frc consts  --      1.2048                 1.3062                 1.1920
 IR Inten    --     15.8715                25.8873                21.7457

                     25                     26                     27
                      A                      A                      A
 Frequencies --   1106.2691              1115.7787              1139.0840
 Red. masses --      2.0609                 2.2182                 1.7857
 Frc consts  --      1.4860                 1.6271                 1.3651
 IR Inten    --     19.1267                46.3145                29.1001

                     28                     29                     30
                      A                      A                      A
 Frequencies --   1161.6463              1211.7782              1226.1689
 Red. masses --      2.0026                 1.6571                 1.6635
 Frc consts  --      1.5921                 1.4336                 1.4736
 IR Inten    --      6.8007                 4.1087                 4.1664

                     31                     32                     33
                      A                      A                      A
 Frequencies --   1243.7659              1293.9301              1310.7992
 Red. masses --      1.5810                 1.5018                 2.2328
 Frc consts  --      1.4410                 1.4815                 2.2603
 IR Inten    --     32.5694                24.5806               151.9791

                     34                     35                     36
                      A                      A                      A
 Frequencies --   1361.8633              1384.0820              1415.7819
 Red. masses --      1.4877                 1.7293                 1.2458
 Frc consts  --      1.6256                 1.9518                 1.4713
 IR Inten    --      3.9688                13.2505                 2.4612

                     37                     38                     39
                      A                      A                      A
 Frequencies --   1428.8299              1483.5437              1492.4708
 Red. masses --      1.1620                 1.1047                 1.0520
 Frc consts  --      1.3977                 1.4325                 1.3807
 IR Inten    --     11.0174                 2.5535                 2.0920

                     40                     41                     42
                      A                      A                      A
 Frequencies --   1494.3800              1879.8522              3032.5894
 Red. masses --      1.0461                12.5907                 1.0357
 Frc consts  --      1.3764                26.2149                 5.6118
 IR Inten    --      4.0565               247.5345                19.6435

                     43                     44                     45
                      A                      A                      A
 Frequencies --   3041.9044              3051.9318              3053.3861
 Red. masses --      1.0613                 1.0597                 1.0831
 Frc consts  --      5.7859                 5.8156                 5.9493
 IR Inten    --     28.2848                 9.0217                11.7065

                     46                     47                     48
                      A                      A                      A
 Frequencies --   3093.0313              3100.4599              3105.0171
 Red. masses --      1.1065                 1.1006                 1.0954
 Frc consts  --      6.2368                 6.2334                 6.2222
 IR Inten    --     16.8314                29.1952                 2.7124

                     49                     50                     51
                      A                      A                      A
 Frequencies --   3108.0803              3110.7851              3809.8178
 Red. masses --      1.0961                 1.1046                 1.0659
 Frc consts  --      6.2383                 6.2977                 9.1150
 IR Inten    --     43.1418                 6.7782                19.5834

 - Thermochemistry -
 -------------------
 Temperature   298.150 Kelvin.  Pressure   1.00000 Atm.
 Atom     1 has atomic number  6 and mass  12.00000

 Molecular mass:   126.06808 amu.
 Principal axes and moments of inertia in atomic units:
                           1         2         3
     Eigenvalues --   835.820831032.109311566.50673
           X            0.98772   0.15618  -0.00372
           Y           -0.15614   0.98770   0.00843
           Z            0.00499  -0.00775   0.99996
 This molecule is an asymmetric top.
 Rotational symmetry number  1.
 Warning -- assumption of classical behavior for rotation
           may cause significant error
 Rotational temperatures (Kelvin)      0.10363     0.08392     0.05529
 Rotational constants (GHZ):           2.15924     1.74860     1.15208
 Zero-point vibrational energy     413179.0 (Joules/Mol)
                                   98.75215 (Kcal/Mol)
 Warning -- explicit consideration of  13 degrees of freedom as
           vibrations may cause significant error
 Vibrational temperatures:     66.82   172.93   319.32   333.54   447.53
          (Kelvin)            476.23   512.84   544.72   582.79   646.30
                              809.93   830.81   871.79  1015.97  1159.59
                             1237.47  1251.87  1314.19  1329.98  1363.52
                             1429.98  1471.88  1555.27  1578.97  1591.67
                             1605.35  1638.89  1671.35  1743.48  1764.18
                             1789.50  1861.67  1885.95  1959.42  1991.38
                             2036.99  2055.77  2134.49  2147.33  2150.08
                             2704.68  4363.21  4376.62  4391.04  4393.14
                             4450.18  4460.86  4467.42  4471.83  4475.72
                             5481.47

 Zero-point correction=                           0.157372 (Hartree/Particle)
 Thermal correction to Energy=                    0.166119
 Thermal correction to Enthalpy=                  0.167063
 Thermal correction to Gibbs Free Energy=         0.123845
 Sum of electronic and zero-point Energies=           -423.021551
 Sum of electronic and thermal Energies=              -423.012804
 Sum of electronic and thermal Enthalpies=            -423.011860
 Sum of electronic and thermal Free Energies=         -423.055078

                     E (Thermal)             CV                S
                      KCal/Mol        Cal/Mol-Kelvin    Cal/Mol-Kelvin
 Total                  104.241             33.670             90.961
 Electronic               0.000              0.000              0.000
 Translational            0.889              2.981             40.409
 Rotational               0.889              2.981             28.693
 Vibrational            102.464             27.708             21.859
 Vibration     1          0.595              1.979              4.963
 Vibration     2          0.609              1.932              3.097
 Vibration     3          0.648              1.808              1.943
 Vibration     4          0.653              1.792              1.865
 Vibration     5          0.700              1.653              1.357
 Vibration     6          0.713              1.614              1.255
 Vibration     7          0.732              1.562              1.138
 Vibration     8          0.749              1.516              1.045
 Vibration     9          0.770              1.459              0.944
 Vibration    10          0.808              1.363              0.798
 Vibration    11          0.919              1.111              0.518
 Vibration    12          0.934              1.080              0.490
 Vibration    13          0.965              1.019              0.440

 Optimization completed.
    -- Stationary point found.
 Normal termination of Gaussian 09 at Tue Jan 28 03:08:57 2020.
