 Gaussian 09, Revision D.01,
 Gaussian 09:  ES64L-G09RevD.01 24-Apr-2013

 -----------------------------
 # b3lyp 6-31G(2df,p) opt Freq
 -----------------------------

 -----
 titel
 -----
 Symbolic Z-matrix:
 Charge =  0 Multiplicity = 1

 SCF Done:  E(RB3LYP) =  -423.140300721     A.U. after   14 cycles
 Optimization completed.
    -- Stationary point found.
 Normal termination of Gaussian 09 at Mon Jan 27 23:50:16 2020.

 ----------------------------------------------------------------------
 #N Geom=AllCheck Guess=TCheck SCRF=Check GenChk RB3LYP/6-31G(2df,p) Fr
 eq
 ----------------------------------------------------------------------

 Structure from the checkpoint file:  "/scratch/puck/g09_d25e3f3b-7731-42f7-8629-8c30127ca92f/Gau-186259.chk"
 -----
 titel
 -----
 Charge =  0 Multiplicity = 1

                         Standard orientation:
 ---------------------------------------------------------------------
 Center     Atomic      Atomic             Coordinates (Angstroms)
 Number     Number       Type             X           Y           Z
 ---------------------------------------------------------------------
      1          6           0        0.699808    2.064173   -0.280671
      2          6           0        0.196019    0.650409   -0.187199
      3          6           0       -1.247446    0.243033   -0.703454
      4          6           0       -1.795855    0.422106    0.729536
      5          6           0       -0.386265   -0.053465    1.110040
      6          6           0       -0.100563   -1.329852    0.215292
      7          8           0       -1.111017   -1.190886   -0.792400
      8          6           0        1.082587   -0.578722   -0.448239
      9          8           0        2.249337   -0.463229    0.340537
     10          1           0        0.878518    2.349004   -1.324469
     11          1           0       -0.013400    2.781206    0.139860
     12          1           0        1.644712    2.164657    0.261561
     13          1           0       -1.716194    0.646545   -1.600218
     14          1           0       -1.944827    1.469819    1.002700
     15          1           0       -2.670343   -0.175809    0.997418
     16          1           0        0.060025    0.017640    2.097907
     17          1           0       -0.043105   -2.351800    0.589644
     18          1           0        1.304428   -0.863162   -1.486074
     19          1           0        2.703916   -1.311275    0.324750
 ---------------------------------------------------------------------

 SCF Done:  E(RB3LYP) =  -423.140300721     A.U. after    1 cycles

 The electronic state is 1-A.
 Alpha  occ. eigenvalues --  -19.14261 -19.13527 -10.23249 -10.22834 -10.22592
 Alpha  occ. eigenvalues --  -10.19428 -10.18821 -10.17963 -10.17571  -1.05364
 Alpha  occ. eigenvalues --   -1.02123  -0.84507  -0.75212  -0.72471  -0.65797
 Alpha  occ. eigenvalues --   -0.60260  -0.56716  -0.53699  -0.50205  -0.49817
 Alpha  occ. eigenvalues --   -0.47485  -0.44826  -0.42000  -0.40465  -0.38945
 Alpha  occ. eigenvalues --   -0.37977  -0.36239  -0.35310  -0.34344  -0.31790
 Alpha  occ. eigenvalues --   -0.29728  -0.28498  -0.26407  -0.23122
 Alpha virt. eigenvalues --    0.06612   0.10335   0.10691   0.11688   0.13600
 Alpha virt. eigenvalues --    0.14207   0.15065   0.15839   0.16499   0.16904
 Alpha virt. eigenvalues --    0.17643   0.19069   0.20407   0.20865   0.21823

 Mulliken charges:
               1
     1  C   -0.521334
     2  C    0.332663
     3  C    0.029786
     4  C   -0.253525
     5  C   -0.103251
     6  C    0.021263
     7  O   -0.272613
     8  C    0.052193
     9  O   -0.440387
    10  H    0.117735
    11  H    0.116185
    12  H    0.139152
    13  H    0.075642
    14  H    0.102394
    15  H    0.099510
    16  H    0.081392
    17  H    0.071209
    18  H    0.064563
    19  H    0.287423
 Sum of Mulliken charges =   0.00000

 Dipole moment (field-independent basis, Debye):
    X=              0.6023    Y=              0.0311    Z=              0.3723  Tot=              0.7088
 Quadrupole moment (field-independent basis, Debye-Ang):
   XX=            -53.1899   YY=            -50.5982   ZZ=            -53.3291
   XY=             -6.2056   XZ=             -1.4688   YZ=             -2.3867

  Exact polarizability:  78.864  -3.007  76.586  -1.310  -1.711  67.370
 Approx polarizability: 110.726  -3.073 111.182   1.852  -0.699 105.877

                      1                      2                      3
                      A                      A                      A
 Frequencies --    194.1681               211.3448               225.7238
 Red. masses --      3.5537                 1.1417                 2.4543
 Frc consts  --      0.0789                 0.0300                 0.0737
 IR Inten    --      0.0687                 1.1879                 2.4036

                      4                      5                      6
                      A                      A                      A
 Frequencies --    273.6241               308.8918               346.1281
 Red. masses --      2.2048                 1.3238                 2.6460
 Frc consts  --      0.0973                 0.0744                 0.1868
 IR Inten    --      6.8571                77.4376                23.9592

                      7                      8                      9
                      A                      A                      A
 Frequencies --    448.5230               512.4590               528.4412
 Red. masses --      2.1913                 3.3763                 7.3390
 Frc consts  --      0.2597                 0.5224                 1.2075
 IR Inten    --      4.0229                 7.9328                 2.5199

                     10                     11                     12
                      A                      A                      A
 Frequencies --    610.5571               662.6362               765.4511
 Red. masses --      3.8032                 3.8937                 3.5231
 Frc consts  --      0.8353                 1.0073                 1.2162
 IR Inten    --      3.8727                 0.0718                 1.7481

                     13                     14                     15
                      A                      A                      A
 Frequencies --    838.1052               843.1844               853.9501
 Red. masses --      2.4544                 2.4866                 2.2893
 Frc consts  --      1.0157                 1.0416                 0.9836
 IR Inten    --      1.5710                 0.8606                 1.2069

                     16                     17                     18
                      A                      A                      A
 Frequencies --    913.5188               917.8169               927.0311
 Red. masses --      2.1521                 2.0263                 2.3915
 Frc consts  --      1.0582                 1.0057                 1.2109
 IR Inten    --     14.9513                10.3298                25.1461

                     19                     20                     21
                      A                      A                      A
 Frequencies --    970.8993               980.0216              1002.7846
 Red. masses --      2.5036                 1.6791                 3.0017
 Frc consts  --      1.3905                 0.9502                 1.7784
 IR Inten    --     20.3669                 4.6212                 1.9668

                     22                     23                     24
                      A                      A                      A
 Frequencies --   1043.3455              1081.6712              1099.3274
 Red. masses --      2.7529                 1.7624                 1.6933
 Frc consts  --      1.7656                 1.2149                 1.2057
 IR Inten    --     38.6662                 5.9682                43.8211

                     25                     26                     27
                      A                      A                      A
 Frequencies --   1121.1512              1144.6522              1171.4840
 Red. masses --      2.3111                 1.6870                 1.6170
 Frc consts  --      1.7116                 1.3023                 1.3075
 IR Inten    --     31.8545                 0.3665                 4.5226

                     28                     29                     30
                      A                      A                      A
 Frequencies --   1172.7946              1207.3817              1225.1480
 Red. masses --      2.0253                 1.4906                 1.3658
 Frc consts  --      1.6413                 1.2803                 1.2078
 IR Inten    --      0.1950                 5.5951                 2.8356

                     31                     32                     33
                      A                      A                      A
 Frequencies --   1242.1823              1245.6331              1255.9370
 Red. masses --      1.9917                 1.6564                 1.4491
 Frc consts  --      1.8107                 1.5143                 1.3468
 IR Inten    --     41.4143                15.6114                 5.5735

                     34                     35                     36
                      A                      A                      A
 Frequencies --   1292.0313              1321.4362              1330.7116
 Red. masses --      1.8371                 1.5449                 1.8934
 Frc consts  --      1.8069                 1.5894                 1.9754
 IR Inten    --     16.7794                 6.7429                 8.5027

                     37                     38                     39
                      A                      A                      A
 Frequencies --   1410.1482              1422.3627              1480.4293
 Red. masses --      1.3228                 1.7800                 1.1164
 Frc consts  --      1.5498                 2.1217                 1.4416
 IR Inten    --      2.6193                 5.5358                 1.6464

                     40                     41                     42
                      A                      A                      A
 Frequencies --   1487.8331              1498.2294              3010.4007
 Red. masses --      1.0517                 1.0533                 1.0847
 Frc consts  --      1.3716                 1.3931                 5.7919
 IR Inten    --      4.0800                 6.8929                65.7849

                     43                     44                     45
                      A                      A                      A
 Frequencies --   3026.6458              3061.8179              3086.8305
 Red. masses --      1.0370                 1.0564                 1.0989
 Frc consts  --      5.5967                 5.8347                 6.1692
 IR Inten    --     30.8257                26.9923                24.5967

                     46                     47                     48
                      A                      A                      A
 Frequencies --   3108.0257              3121.2890              3122.3884
 Red. masses --      1.1003                 1.0905                 1.1090
 Frc consts  --      6.2622                 6.2598                 6.3700
 IR Inten    --     14.4812                56.1336                21.3228

                     49                     50                     51
                      A                      A                      A
 Frequencies --   3128.7764              3159.9105              3817.8189
 Red. masses --      1.0918                 1.0914                 1.0663
 Frc consts  --      6.2973                 6.4210                 9.1573
 IR Inten    --     36.4761                20.0244                25.2979

 - Thermochemistry -
 -------------------
 Temperature   298.150 Kelvin.  Pressure   1.00000 Atm.
 Atom     1 has atomic number  6 and mass  12.00000

 Molecular mass:   126.06808 amu.
 Principal axes and moments of inertia in atomic units:
                           1         2         3
     Eigenvalues --   699.10204 942.236851235.94873
           X            0.99903  -0.03746  -0.02301
           Y            0.03682   0.99894  -0.02756
           Z            0.02401   0.02669   0.99936
 This molecule is an asymmetric top.
 Rotational symmetry number  1.
 Warning -- assumption of classical behavior for rotation
           may cause significant error
 Rotational temperatures (Kelvin)      0.12389     0.09192     0.07008
 Rotational constants (GHZ):           2.58151     1.91538     1.46021
 Zero-point vibrational energy     420087.0 (Joules/Mol)
                                  100.40319 (Kcal/Mol)
 Warning -- explicit consideration of  10 degrees of freedom as
           vibrations may cause significant error
 Vibrational temperatures:    279.36   304.08   324.77   393.68   444.43
          (Kelvin)            498.00   645.32   737.31   760.31   878.45
                              953.38  1101.31  1205.85  1213.15  1228.64
                             1314.35  1320.53  1333.79  1396.91  1410.03
                             1442.78  1501.14  1556.28  1581.68  1613.08
                             1646.90  1685.50  1687.39  1737.15  1762.71
                             1787.22  1792.19  1807.01  1858.94  1901.25
                             1914.59  2028.89  2046.46  2130.00  2140.66
                             2155.62  4331.29  4354.66  4405.27  4441.26
                             4471.75  4490.83  4492.41  4501.61  4546.40
                             5492.98

 Zero-point correction=                           0.160003 (Hartree/Particle)
 Thermal correction to Energy=                    0.167520
 Thermal correction to Enthalpy=                  0.168464
 Thermal correction to Gibbs Free Energy=         0.128628
 Sum of electronic and zero-point Energies=           -422.980298
 Sum of electronic and thermal Energies=              -422.972781
 Sum of electronic and thermal Enthalpies=            -422.971837
 Sum of electronic and thermal Free Energies=         -423.011673

                     E (Thermal)             CV                S
                      KCal/Mol        Cal/Mol-Kelvin    Cal/Mol-Kelvin
 Total                  105.120             30.773             83.842
 Electronic               0.000              0.000              0.000
 Translational            0.889              2.981             40.409
 Rotational               0.889              2.981             28.189
 Vibrational            103.343             24.812             15.244
 Vibration     1          0.635              1.848              2.188
 Vibration     2          0.643              1.824              2.032
 Vibration     3          0.650              1.802              1.913
 Vibration     4          0.676              1.722              1.573
 Vibration     5          0.698              1.657              1.368
 Vibration     6          0.724              1.583              1.184
 Vibration     7          0.808              1.364              0.800
 Vibration     8          0.868              1.222              0.628
 Vibration     9          0.883              1.187              0.591
 Vibration    10          0.970              1.009              0.432

 Optimization completed.
    -- Stationary point found.
 Normal termination of Gaussian 09 at Tue Jan 28 00:38:27 2020.
