 Gaussian 09, Revision D.01,
 Gaussian 09:  ES64L-G09RevD.01 24-Apr-2013

 -----------------------------
 # b3lyp 6-31G(2df,p) opt Freq
 -----------------------------

 -----
 titel
 -----
 Symbolic Z-matrix:
 Charge =  0 Multiplicity = 1

 SCF Done:  E(RB3LYP) =  -423.173353425     A.U. after   13 cycles
 Optimization completed.
    -- Stationary point found.
 Normal termination of Gaussian 09 at Mon Jan 27 17:01:32 2020.

 ----------------------------------------------------------------------
 #N Geom=AllCheck Guess=TCheck SCRF=Check GenChk RB3LYP/6-31G(2df,p) Fr
 eq
 ----------------------------------------------------------------------

 Structure from the checkpoint file:  "/scratch/puck/g09_cb29bd44-7574-4a41-96de-f7c6141aab74/Gau-85147.chk"
 -----
 titel
 -----
 Charge =  0 Multiplicity = 1

                         Standard orientation:
 ---------------------------------------------------------------------
 Center     Atomic      Atomic             Coordinates (Angstroms)
 Number     Number       Type             X           Y           Z
 ---------------------------------------------------------------------
      1          6           0        2.344189   -0.000086    0.563830
      2          6           0        0.908934   -0.000078    0.110133
      3          6           0        0.327763    0.762196   -1.055493
      4          8           0       -0.865286    1.412174   -0.708755
      5          6           0       -1.041307    1.277816    0.703123
      6          6           0       -0.285068    0.000028    1.101419
      7          6           0       -1.041454   -1.277687    0.703164
      8          8           0       -0.865507   -1.412068   -0.708723
      9          6           0        0.327641   -0.762294   -1.055477
     10          1           0        2.573894    0.886950    1.165596
     11          1           0        2.572826   -0.885267    1.168724
     12          1           0        3.026178   -0.002031   -0.292375
     13          1           0        0.942093    1.305056   -1.767892
     14          1           0       -0.621931    2.153424    1.222542
     15          1           0       -2.115655    1.233362    0.907066
     16          1           0        0.020776    0.000026    2.150108
     17          1           0       -0.622133   -2.153334    1.222564
     18          1           0       -2.115788   -1.233129    0.907154
     19          1           0        0.941902   -1.305268   -1.767853
 ---------------------------------------------------------------------

 SCF Done:  E(RB3LYP) =  -423.173353425     A.U. after    1 cycles

 The electronic state is 1-A.
 Alpha  occ. eigenvalues --  -19.13888 -19.13888 -10.22890 -10.22889 -10.22775
 Alpha  occ. eigenvalues --  -10.22752 -10.19859 -10.19772 -10.18814  -1.05658
 Alpha  occ. eigenvalues --   -1.02248  -0.84565  -0.78262  -0.71437  -0.68474
 Alpha  occ. eigenvalues --   -0.60319  -0.57855  -0.56888  -0.51280  -0.46605
 Alpha  occ. eigenvalues --   -0.46267  -0.43655  -0.43569  -0.42922  -0.41555
 Alpha  occ. eigenvalues --   -0.40875  -0.40328  -0.34647  -0.34456  -0.33607
 Alpha  occ. eigenvalues --   -0.31789  -0.27512  -0.25177  -0.21988
 Alpha virt. eigenvalues --    0.08683   0.09466   0.11051   0.11058   0.12734
 Alpha virt. eigenvalues --    0.13508   0.14557   0.15306   0.15541   0.16748
 Alpha virt. eigenvalues --    0.17747   0.18404   0.19023   0.20854   0.21307

 Mulliken charges:
               1
     1  C   -0.503861
     2  C    0.227598
     3  C    0.020022
     4  O   -0.255496
     5  C   -0.073862
     6  C   -0.135298
     7  C   -0.073857
     8  O   -0.255490
     9  C    0.019998
    10  H    0.120872
    11  H    0.120860
    12  H    0.121997
    13  H    0.094162
    14  H    0.091021
    15  H    0.108576
    16  H    0.079001
    17  H    0.091021
    18  H    0.108578
    19  H    0.094160
 Sum of Mulliken charges =   0.00000

 Dipole moment (field-independent basis, Debye):
    X=              1.7004    Y=             -0.0002    Z=              2.0675  Tot=              2.6769
 Quadrupole moment (field-independent basis, Debye-Ang):
   XX=            -52.1489   YY=            -55.8103   ZZ=            -51.7168
   XY=             -0.0004   XZ=             -4.7341   YZ=              0.0004

  Exact polarizability:  76.740   0.001  71.548  -4.502   0.001  72.099
 Approx polarizability: 106.404   0.001 105.024  -3.039   0.001 110.467

                      1                      2                      3
                      A                      A                      A
 Frequencies --    139.4463               188.5236               225.7203
 Red. masses --      2.4361                 1.0322                 3.1008
 Frc consts  --      0.0279                 0.0216                 0.0931
 IR Inten    --      2.0687                 0.0728                 0.9970

                      4                      5                      6
                      A                      A                      A
 Frequencies --    241.2718               266.3995               383.5568
 Red. masses --      8.7563                 2.3282                 1.9499
 Frc consts  --      0.3003                 0.0974                 0.1690
 IR Inten    --      2.3721                 1.0114                 0.5360

                      7                      8                      9
                      A                      A                      A
 Frequencies --    559.3513               560.1398               592.9403
 Red. masses --      3.5910                 3.9318                 3.2413
 Frc consts  --      0.6620                 0.7268                 0.6714
 IR Inten    --      1.0929                 0.1409                 8.9015

                     10                     11                     12
                      A                      A                      A
 Frequencies --    722.0078               755.9430               766.1105
 Red. masses --      7.1506                 4.6166                 3.6351
 Frc consts  --      2.1962                 1.5544                 1.2570
 IR Inten    --     12.4096                18.5211                10.0002

                     13                     14                     15
                      A                      A                      A
 Frequencies --    835.1447               872.5003               896.1249
 Red. masses --      2.7709                 2.0159                 3.4352
 Frc consts  --      1.1387                 0.9042                 1.6253
 IR Inten    --      3.3726                 1.1127                20.0450

                     16                     17                     18
                      A                      A                      A
 Frequencies --    950.3526               952.0448               976.2665
 Red. masses --      2.5928                 2.0009                 1.7276
 Frc consts  --      1.3797                 1.0685                 0.9701
 IR Inten    --      0.2237                 0.4441                 2.3585

                     19                     20                     21
                      A                      A                      A
 Frequencies --   1006.5065              1020.6194              1031.8318
 Red. masses --      1.8156                 2.1584                 2.0138
 Frc consts  --      1.0837                 1.3246                 1.2632
 IR Inten    --      3.1401                42.1986                 7.9878

                     22                     23                     24
                      A                      A                      A
 Frequencies --   1069.6874              1088.7874              1114.7944
 Red. masses --      1.5758                 1.6741                 3.8740
 Frc consts  --      1.0623                 1.1693                 2.8366
 IR Inten    --      1.1005                10.2368                26.0145

                     25                     26                     27
                      A                      A                      A
 Frequencies --   1146.5741              1155.2370              1186.9247
 Red. masses --      2.3326                 3.1491                 1.9470
 Frc consts  --      1.8067                 2.4761                 1.6161
 IR Inten    --      5.5376                43.4098                79.6519

                     28                     29                     30
                      A                      A                      A
 Frequencies --   1222.8420              1233.6586              1257.1343
 Red. masses --      1.1483                 1.9565                 1.3642
 Frc consts  --      1.0116                 1.7544                 1.2703
 IR Inten    --      0.8847                 8.7695                 0.0347

                     31                     32                     33
                      A                      A                      A
 Frequencies --   1273.4869              1305.7181              1318.6852
 Red. masses --      1.7119                 1.2356                 1.7551
 Frc consts  --      1.6357                 1.2411                 1.7982
 IR Inten    --     10.1576                 7.5732                 0.7764

                     34                     35                     36
                      A                      A                      A
 Frequencies --   1380.7233              1384.3527              1417.5772
 Red. masses --      1.3482                 1.4616                 1.2493
 Frc consts  --      1.5144                 1.6504                 1.4792
 IR Inten    --      5.4806                 3.2687                 0.0837

                     37                     38                     39
                      A                      A                      A
 Frequencies --   1451.7520              1490.0955              1498.1055
 Red. masses --      2.8417                 1.0450                 1.0633
 Frc consts  --      3.5287                 1.3671                 1.4060
 IR Inten    --      4.8609                 4.4466                 4.3153

                     40                     41                     42
                      A                      A                      A
 Frequencies --   1506.7917              1521.4294              2982.6926
 Red. masses --      1.0961                 1.1017                 1.0695
 Frc consts  --      1.4662                 1.5025                 5.6058
 IR Inten    --      1.0491                 0.0447                93.1575

                     43                     44                     45
                      A                      A                      A
 Frequencies --   2982.7997              3021.9418              3076.5359
 Red. masses --      1.0706                 1.0360                 1.0941
 Frc consts  --      5.6121                 5.5741                 6.1015
 IR Inten    --     50.2486                36.9788                 0.0367

                     46                     47                     48
                      A                      A                      A
 Frequencies --   3081.9950              3083.0540              3091.2604
 Red. masses --      1.1013                 1.0939                 1.0880
 Frc consts  --      6.1633                 6.1263                 6.1256
 IR Inten    --     24.1862                65.8871                18.4502

                     49                     50                     51
                      A                      A                      A
 Frequencies --   3098.1717              3148.2025              3157.9353
 Red. masses --      1.0992                 1.0887                 1.0931
 Frc consts  --      6.2165                 6.3575                 6.4229
 IR Inten    --     25.6685                 7.5731                38.4876

 - Thermochemistry -
 -------------------
 Temperature   298.150 Kelvin.  Pressure   1.00000 Atm.
 Atom     1 has atomic number  6 and mass  12.00000

 Molecular mass:   126.06808 amu.
 Principal axes and moments of inertia in atomic units:
                           1         2         3
     Eigenvalues --   805.84041 910.128261063.81107
           X            0.99895  -0.00003  -0.04591
           Y            0.00003   1.00000   0.00001
           Z            0.04591  -0.00001   0.99895
 This molecule is an asymmetric top.
 Rotational symmetry number  1.
 Warning -- assumption of classical behavior for rotation
           may cause significant error
 Rotational temperatures (Kelvin)      0.10748     0.09517     0.08142
 Rotational constants (GHZ):           2.23958     1.98295     1.69649
 Zero-point vibrational energy     422830.6 (Joules/Mol)
                                  101.05893 (Kcal/Mol)
 Warning -- explicit consideration of   9 degrees of freedom as
           vibrations may cause significant error
 Vibrational temperatures:    200.63   271.24   324.76   347.14   383.29
          (Kelvin)            551.85   804.78   805.92   853.11  1038.81
                             1087.63  1102.26  1201.59  1255.33  1289.32
                             1367.34  1369.78  1404.63  1448.14  1468.44
                             1484.57  1539.04  1566.52  1603.94  1649.66
                             1662.13  1707.72  1759.39  1774.96  1808.73
                             1832.26  1878.63  1897.29  1986.55  1991.77
                             2039.57  2088.74  2143.91  2155.44  2167.93
                             2188.99  4291.42  4291.58  4347.89  4426.44
                             4434.30  4435.82  4447.63  4457.57  4529.56
                             4543.56

 Zero-point correction=                           0.161048 (Hartree/Particle)
 Thermal correction to Energy=                    0.168424
 Thermal correction to Enthalpy=                  0.169368
 Thermal correction to Gibbs Free Energy=         0.129482
 Sum of electronic and zero-point Energies=           -423.012306
 Sum of electronic and thermal Energies=              -423.004930
 Sum of electronic and thermal Enthalpies=            -423.003986
 Sum of electronic and thermal Free Energies=         -423.043872

                     E (Thermal)             CV                S
                      KCal/Mol        Cal/Mol-Kelvin    Cal/Mol-Kelvin
 Total                  105.687             29.292             83.947
 Electronic               0.000              0.000              0.000
 Translational            0.889              2.981             40.409
 Rotational               0.889              2.981             28.147
 Vibrational            103.910             23.330             15.392
 Vibration     1          0.615              1.914              2.811
 Vibration     2          0.633              1.856              2.242
 Vibration     3          0.650              1.802              1.913
 Vibration     4          0.658              1.777              1.793
 Vibration     5          0.672              1.735              1.619
 Vibration     6          0.753              1.505              1.025
 Vibration     7          0.915              1.119              0.525
 Vibration     8          0.916              1.118              0.524
 Vibration     9          0.950              1.047              0.462

 Normal termination of Gaussian 09 at Mon Jan 27 17:47:54 2020.
