 Gaussian 09, Revision D.01,
 Gaussian 09:  ES64L-G09RevD.01 24-Apr-2013

 -----------------------------
 # b3lyp 6-31G(2df,p) opt Freq
 -----------------------------

 -----
 titel
 -----
 Symbolic Z-matrix:
 Charge =  0 Multiplicity = 1

 SCF Done:  E(RB3LYP) =  -423.127303244     A.U. after   14 cycles
 Optimization completed.
    -- Stationary point found.
 Normal termination of Gaussian 09 at Tue Jan 28 13:26:50 2020.

 ----------------------------------------------------------------------
 #N Geom=AllCheck Guess=TCheck SCRF=Check GenChk RB3LYP/6-31G(2df,p) Fr
 eq
 ----------------------------------------------------------------------

 Structure from the checkpoint file:  "/scratch/puck/g09_2b21ac52-3714-4a5e-b992-de06cbb9ebe8/Gau-108949.chk"
 -----
 titel
 -----
 Charge =  0 Multiplicity = 1

                         Standard orientation:
 ---------------------------------------------------------------------
 Center     Atomic      Atomic             Coordinates (Angstroms)
 Number     Number       Type             X           Y           Z
 ---------------------------------------------------------------------
      1          6           0        0.463781    1.368213    1.171611
      2          6           0        0.267304    0.564577   -0.093478
      3          6           0        1.547190    0.316804   -0.898424
      4          6           0        2.516105   -0.513435   -0.192825
      5          6           0        3.300594   -1.201568    0.403498
      6          8           0       -0.842934    0.937789   -0.921352
      7          6           0       -0.853475   -0.367963   -0.305570
      8          6           0       -1.990590   -0.625834    0.651168
      9          8           0       -3.211425   -0.783088   -0.053990
     10          1           0       -0.478414    1.553865    1.687367
     11          1           0        1.145812    0.847379    1.849712
     12          1           0        0.910314    2.338217    0.926158
     13          1           0        1.272973   -0.147322   -1.852069
     14          1           0        1.998518    1.287550   -1.143574
     15          1           0        3.999734   -1.810296    0.921406
     16          1           0       -0.697038   -1.181401   -1.017033
     17          1           0       -1.818926   -1.568406    1.182325
     18          1           0       -2.062597    0.174795    1.398789
     19          1           0       -3.340958    0.023248   -0.566225
 ---------------------------------------------------------------------

 SCF Done:  E(RB3LYP) =  -423.127303244     A.U. after    1 cycles

 The electronic state is 1-A.
 Alpha  occ. eigenvalues --  -19.15485 -19.13726 -10.25603 -10.23807 -10.23380
 Alpha  occ. eigenvalues --  -10.21633 -10.18894 -10.18756 -10.17790  -1.07596
 Alpha  occ. eigenvalues --   -1.01777  -0.80648  -0.74458  -0.72902  -0.70533
 Alpha  occ. eigenvalues --   -0.62420  -0.57511  -0.53610  -0.51958  -0.48963
 Alpha  occ. eigenvalues --   -0.47435  -0.46250  -0.44508  -0.42801  -0.41634
 Alpha  occ. eigenvalues --   -0.40106  -0.37812  -0.36860  -0.34108  -0.30689
 Alpha  occ. eigenvalues --   -0.28841  -0.27188  -0.26790  -0.26192
 Alpha virt. eigenvalues --    0.04238   0.05043   0.07617   0.09506   0.10600
 Alpha virt. eigenvalues --    0.11044   0.12449   0.12902   0.13794   0.15292
 Alpha virt. eigenvalues --    0.16193   0.17562   0.19036   0.20721   0.22336

 Mulliken charges:
               1
     1  C   -0.466217
     2  C    0.383920
     3  C   -0.418352
     4  C    0.312300
     5  C   -0.458728
     6  O   -0.310297
     7  C   -0.008846
     8  C   -0.093476
     9  O   -0.416772
    10  H    0.129823
    11  H    0.142036
    12  H    0.127299
    13  H    0.141938
    14  H    0.135704
    15  H    0.200122
    16  H    0.095651
    17  H    0.117057
    18  H    0.093534
    19  H    0.293306
 Sum of Mulliken charges =   0.00000

 Dipole moment (field-independent basis, Debye):
    X=              1.3685    Y=              0.4486    Z=              0.8065  Tot=              1.6506
 Quadrupole moment (field-independent basis, Debye-Ang):
   XX=            -56.7728   YY=            -52.9801   ZZ=            -51.9631
   XY=             -3.9567   XZ=              1.0897   YZ=             -0.1681

  Exact polarizability:  92.703  -5.022  71.972   6.932  -3.711  66.741
 Approx polarizability: 122.176 -12.452 113.065  18.129 -14.060 102.675

                      1                      2                      3
                      A                      A                      A
 Frequencies --     44.3076                78.2070               114.3975
 Red. masses --      4.4568                 3.1707                 3.1627
 Frc consts  --      0.0052                 0.0114                 0.0244
 IR Inten    --      0.9954                 4.3017                 0.4951

                      4                      5                      6
                      A                      A                      A
 Frequencies --    156.6338               186.5681               227.1683
 Red. masses --      1.5123                 1.9980                 2.6103
 Frc consts  --      0.0219                 0.0410                 0.0794
 IR Inten    --      0.2232                 0.8481                 0.5403

                      7                      8                      9
                      A                      A                      A
 Frequencies --    309.7019               349.1988               358.3656
 Red. masses --      3.5319                 3.7485                 2.2718
 Frc consts  --      0.1996                 0.2693                 0.1719
 IR Inten    --      4.2250                14.8216                 4.0644

                     10                     11                     12
                      A                      A                      A
 Frequencies --    396.2822               409.4402               463.5821
 Red. masses --      1.5910                 2.2576                 2.7067
 Frc consts  --      0.1472                 0.2230                 0.3427
 IR Inten    --     71.7690                32.6513                 3.3828

                     13                     14                     15
                      A                      A                      A
 Frequencies --    531.6673               539.8105               627.0270
 Red. masses --      4.0884                 4.2629                 1.2114
 Frc consts  --      0.6809                 0.7319                 0.2806
 IR Inten    --      4.7011                12.2367                42.5373

                     16                     17                     18
                      A                      A                      A
 Frequencies --    650.7405               738.7132               811.8753
 Red. masses --      1.2378                 3.9436                 2.8531
 Frc consts  --      0.3088                 1.2679                 1.1080
 IR Inten    --     43.5012                 7.6106                 9.7734

                     19                     20                     21
                      A                      A                      A
 Frequencies --    894.0266               927.2414               950.7508
 Red. masses --      2.4690                 2.0918                 2.2294
 Frc consts  --      1.1627                 1.0596                 1.1873
 IR Inten    --     27.2256                27.3696                 3.6201

                     22                     23                     24
                      A                      A                      A
 Frequencies --    978.3360              1025.5658              1059.1470
 Red. masses --      2.5356                 1.8424                 4.6706
 Frc consts  --      1.4299                 1.1417                 3.0870
 IR Inten    --      1.6466                22.8820                91.3186

                     25                     26                     27
                      A                      A                      A
 Frequencies --   1105.4218              1113.2742              1120.9323
 Red. masses --      2.1972                 2.0005                 1.5786
 Frc consts  --      1.5819                 1.4608                 1.1687
 IR Inten    --     13.2360                 9.1101                 1.2103

                     28                     29                     30
                      A                      A                      A
 Frequencies --   1197.2046              1222.1558              1259.5501
 Red. masses --      1.3690                 1.2478                 1.9377
 Frc consts  --      1.1561                 1.0981                 1.8112
 IR Inten    --      4.5963                21.5265                13.7916

                     31                     32                     33
                      A                      A                      A
 Frequencies --   1324.4229              1345.6777              1380.4455
 Red. masses --      1.4799                 1.2861                 1.3562
 Frc consts  --      1.5294                 1.3721                 1.5227
 IR Inten    --      5.3601                 1.7074                18.8314

                     34                     35                     36
                      A                      A                      A
 Frequencies --   1415.7261              1421.7008              1464.2076
 Red. masses --      1.2869                 1.2932                 1.2231
 Frc consts  --      1.5196                 1.5400                 1.5449
 IR Inten    --     14.0904                44.9636                12.4090

                     37                     38                     39
                      A                      A                      A
 Frequencies --   1469.9691              1492.1036              1494.1465
 Red. masses --      1.2165                 1.0685                 1.1422
 Frc consts  --      1.5487                 1.4016                 1.5024
 IR Inten    --      7.6208                 7.5957                 3.8019

                     40                     41                     42
                      A                      A                      A
 Frequencies --   1513.9367              2239.0960              3016.6576
 Red. masses --      1.6915                 5.9255                 1.0633
 Frc consts  --      2.2842                17.5033                 5.7010
 IR Inten    --      8.9257                 1.6209                35.1543

                     43                     44                     45
                      A                      A                      A
 Frequencies --   3021.9976              3044.9253              3069.8721
 Red. masses --      1.0633                 1.0410                 1.0967
 Frc consts  --      5.7213                 5.6864                 6.0895
 IR Inten    --     11.9197                18.9261                 7.3704

                     46                     47                     48
                      A                      A                      A
 Frequencies --   3074.4055              3095.7067              3109.1750
 Red. masses --      1.0956                 1.0903                 1.0972
 Frc consts  --      6.1014                 6.1565                 6.2494
 IR Inten    --     12.1507                38.9188                11.4793

                     49                     50                     51
                      A                      A                      A
 Frequencies --   3150.9111              3505.7270              3801.3736
 Red. masses --      1.0994                 1.1624                 1.0660
 Frc consts  --      6.4308                 8.4168                 9.0755
 IR Inten    --     17.4833                67.1477                22.0677

 - Thermochemistry -
 -------------------
 Temperature   298.150 Kelvin.  Pressure   1.00000 Atm.
 Atom     1 has atomic number  6 and mass  12.00000

 Molecular mass:   126.06808 amu.
 Principal axes and moments of inertia in atomic units:
                           1         2         3
     Eigenvalues --   577.458922073.551372182.14120
           X            0.99999   0.00208  -0.00248
           Y           -0.00182   0.99482   0.10167
           Z            0.00268  -0.10167   0.99481
 This molecule is an asymmetric top.
 Rotational symmetry number  1.
 Warning -- assumption of classical behavior for rotation
           may cause significant error
 Rotational temperatures (Kelvin)      0.14999     0.04177     0.03969
 Rotational constants (GHZ):           3.12532     0.87036     0.82705
 Zero-point vibrational energy     408521.6 (Joules/Mol)
                                   97.63900 (Kcal/Mol)
 Warning -- explicit consideration of  14 degrees of freedom as
           vibrations may cause significant error
 Vibrational temperatures:     63.75   112.52   164.59   225.36   268.43
          (Kelvin)            326.84   445.59   502.42   515.61   570.16
                              589.09   666.99   764.95   776.67   902.15
                              936.27  1062.84  1168.11  1286.30  1334.09
                             1367.92  1407.61  1475.56  1523.87  1590.45
                             1601.75  1612.77  1722.51  1758.41  1812.21
                             1905.55  1936.13  1986.15  2036.91  2045.51
                             2106.67  2114.95  2146.80  2149.74  2178.21
                             3221.56  4340.29  4347.98  4380.96  4416.86
                             4423.38  4454.03  4473.40  4533.45  5043.95
                             5469.32

 Zero-point correction=                           0.155598 (Hartree/Particle)
 Thermal correction to Energy=                    0.165769
 Thermal correction to Enthalpy=                  0.166713
 Thermal correction to Gibbs Free Energy=         0.119914
 Sum of electronic and zero-point Energies=           -422.971706
 Sum of electronic and thermal Energies=              -422.961534
 Sum of electronic and thermal Enthalpies=            -422.960590
 Sum of electronic and thermal Free Energies=         -423.007390

                     E (Thermal)             CV                S
                      KCal/Mol        Cal/Mol-Kelvin    Cal/Mol-Kelvin
 Total                  104.022             36.899             98.498
 Electronic               0.000              0.000              0.000
 Translational            0.889              2.981             40.409
 Rotational               0.889              2.981             29.348
 Vibrational            102.244             30.937             28.742
 Vibration     1          0.595              1.980              5.057
 Vibration     2          0.600              1.964              3.935
 Vibration     3          0.607              1.937              3.193
 Vibration     4          0.620              1.895              2.590
 Vibration     5          0.632              1.858              2.262
 Vibration     6          0.651              1.800              1.901
 Vibration     7          0.699              1.655              1.364
 Vibration     8          0.726              1.577              1.170
 Vibration     9          0.733              1.558              1.129
 Vibration    10          0.763              1.478              0.976
 Vibration    11          0.774              1.450              0.929
 Vibration    12          0.821              1.331              0.756
 Vibration    13          0.887              1.180              0.583
 Vibration    14          0.895              1.162              0.566

 Optimization completed.
    -- Stationary point found.
 Normal termination of Gaussian 09 at Tue Jan 28 14:05:09 2020.
