 Gaussian 09, Revision D.01,
 Gaussian 09:  ES64L-G09RevD.01 24-Apr-2013

 -----------------------------
 # b3lyp 6-31G(2df,p) opt Freq
 -----------------------------

 -----
 titel
 -----
 Symbolic Z-matrix:
 Charge =  0 Multiplicity = 1

 SCF Done:  E(RB3LYP) =  -423.156997883     A.U. after   14 cycles
 Optimization completed.
    -- Stationary point found.
 Normal termination of Gaussian 09 at Mon Jan 27 12:18:26 2020.

 ----------------------------------------------------------------------
 #N Geom=AllCheck Guess=TCheck SCRF=Check GenChk RB3LYP/6-31G(2df,p) Fr
 eq
 ----------------------------------------------------------------------

 Structure from the checkpoint file:  "/scratch/puck/g09_dda62626-0d91-4b4c-ba23-804d2740caae/Gau-35496.chk"
 -----
 titel
 -----
 Charge =  0 Multiplicity = 1

                         Standard orientation:
 ---------------------------------------------------------------------
 Center     Atomic      Atomic             Coordinates (Angstroms)
 Number     Number       Type             X           Y           Z
 ---------------------------------------------------------------------
      1          6           0        2.166121    0.816939   -0.169252
      2          8           0        2.197412   -0.614416    0.072459
      3          6           0        0.808346   -0.614554    0.500655
      4          6           0       -0.091974   -1.638583   -0.213475
      5          8           0       -1.361366   -1.117632   -0.572913
      6          6           0       -1.983837   -0.269978    0.381324
      7          6           0       -1.793561    1.211658    0.023695
      8          6           0       -0.355623    1.625914   -0.150020
      9          6           0        0.674852    0.826786    0.071152
     10          1           0        2.775639    1.363543    0.564403
     11          1           0        2.507841    1.076415   -1.178976
     12          1           0        0.767180   -0.754195    1.590860
     13          1           0        0.397359   -1.930115   -1.147461
     14          1           0       -0.210086   -2.539320    0.408545
     15          1           0       -3.054138   -0.506542    0.372243
     16          1           0       -1.620046   -0.475764    1.397437
     17          1           0       -2.324099    1.408992   -0.918122
     18          1           0       -2.293206    1.833631    0.781222
     19          1           0       -0.180758    2.630638   -0.530987
 ---------------------------------------------------------------------

 SCF Done:  E(RB3LYP) =  -423.156997883     A.U. after    1 cycles

 The electronic state is 1-A.
 Alpha  occ. eigenvalues --  -19.13736 -19.13474 -10.23476 -10.23421 -10.23208
 Alpha  occ. eigenvalues --  -10.22731 -10.19125 -10.19030 -10.18714  -1.04093
 Alpha  occ. eigenvalues --   -1.02612  -0.80478  -0.76144  -0.72043  -0.66883
 Alpha  occ. eigenvalues --   -0.64317  -0.58206  -0.53219  -0.50333  -0.49658
 Alpha  occ. eigenvalues --   -0.46834  -0.45285  -0.43905  -0.42527  -0.41219
 Alpha  occ. eigenvalues --   -0.40439  -0.38950  -0.35953  -0.32073  -0.31409
 Alpha  occ. eigenvalues --   -0.31033  -0.27100  -0.25107  -0.23381
 Alpha virt. eigenvalues --    0.01222   0.06210   0.09899   0.10425   0.12706
 Alpha virt. eigenvalues --    0.13887   0.14144   0.14790   0.15594   0.16782
 Alpha virt. eigenvalues --    0.16995   0.18854   0.19451   0.21143   0.22122

 Mulliken charges:
               1
     1  C   -0.171368
     2  O   -0.305548
     3  C    0.011727
     4  C   -0.090494
     5  O   -0.248585
     6  C   -0.090480
     7  C   -0.244606
     8  C   -0.206674
     9  C    0.295094
    10  H    0.109567
    11  H    0.118952
    12  H    0.090689
    13  H    0.122996
    14  H    0.089913
    15  H    0.105558
    16  H    0.100910
    17  H    0.119591
    18  H    0.103975
    19  H    0.088783
 Sum of Mulliken charges =   0.00000

 Dipole moment (field-independent basis, Debye):
    X=             -0.8974    Y=              1.5560    Z=              0.9375  Tot=              2.0262
 Quadrupole moment (field-independent basis, Debye-Ang):
   XX=            -54.8058   YY=            -51.8309   ZZ=            -52.9361
   XY=              1.2521   XZ=             -2.3657   YZ=             -1.9756

  Exact polarizability:  93.008  -4.613  80.212  -1.763  -4.166  60.073
 Approx polarizability: 128.615 -13.832 114.567   0.450  -6.173  94.431

                      1                      2                      3
                      A                      A                      A
 Frequencies --     88.7505               128.5185               249.4757
 Red. masses --      2.6982                 2.9861                 2.2773
 Frc consts  --      0.0125                 0.0291                 0.0835
 IR Inten    --      3.9403                 1.6739                 3.5810

                      4                      5                      6
                      A                      A                      A
 Frequencies --    267.9892               313.5100               351.0640
 Red. masses --      3.1073                 2.5421                 4.8004
 Frc consts  --      0.1315                 0.1472                 0.3486
 IR Inten    --      2.8594                 0.3163                 4.3304

                      7                      8                      9
                      A                      A                      A
 Frequencies --    388.4089               433.3583               577.2124
 Red. masses --      3.2320                 3.5269                 2.5773
 Frc consts  --      0.2873                 0.3902                 0.5059
 IR Inten    --      1.1264                 0.2468                 2.5178

                     10                     11                     12
                      A                      A                      A
 Frequencies --    628.9679               745.7396               787.2489
 Red. masses --      3.0917                 2.6453                 3.4308
 Frc consts  --      0.7206                 0.8668                 1.2528
 IR Inten    --      9.1858                 1.7850                 3.6694

                     13                     14                     15
                      A                      A                      A
 Frequencies --    829.5683               857.2344               907.2988
 Red. masses --      1.7559                 2.1786                 2.1776
 Frc consts  --      0.7120                 0.9432                 1.0562
 IR Inten    --      5.8285                15.1574                12.0377

                     16                     17                     18
                      A                      A                      A
 Frequencies --    949.9330               958.8102               996.6684
 Red. masses --      2.7439                 2.6488                 7.2752
 Frc consts  --      1.4588                 1.4347                 4.2579
 IR Inten    --     20.1301                 4.6758                87.2142

                     19                     20                     21
                      A                      A                      A
 Frequencies --   1017.1262              1044.8391              1074.0766
 Red. masses --      1.7754                 1.8985                 2.3374
 Frc consts  --      1.0822                 1.2211                 1.5887
 IR Inten    --     14.5315                 8.6651                 9.1350

                     22                     23                     24
                      A                      A                      A
 Frequencies --   1082.3787              1092.4639              1133.3319
 Red. masses --      2.0461                 2.4792                 3.5613
 Frc consts  --      1.4123                 1.7433                 2.6951
 IR Inten    --     31.3436                 4.5457                25.9289

                     25                     26                     27
                      A                      A                      A
 Frequencies --   1139.6326              1169.0460              1236.6970
 Red. masses --      1.1475                 4.2106                 1.1660
 Frc consts  --      0.8781                 3.3905                 1.0507
 IR Inten    --      0.8642                54.6398                 3.9904

                     28                     29                     30
                      A                      A                      A
 Frequencies --   1250.5990              1274.7862              1301.9448
 Red. masses --      1.2677                 1.3240                 1.3265
 Frc consts  --      1.1682                 1.2677                 1.3248
 IR Inten    --      6.9190                 1.9266                 2.9009

                     31                     32                     33
                      A                      A                      A
 Frequencies --   1315.0702              1348.8902              1376.8291
 Red. masses --      1.3637                 1.3292                 1.4367
 Frc consts  --      1.3896                 1.4249                 1.6046
 IR Inten    --      4.6185                 5.2593                 4.3568

                     34                     35                     36
                      A                      A                      A
 Frequencies --   1382.3541              1400.9351              1412.9006
 Red. masses --      1.4750                 1.3486                 1.2998
 Frc consts  --      1.6607                 1.5594                 1.5287
 IR Inten    --      9.0227                 4.2487                 7.3982

                     37                     38                     39
                      A                      A                      A
 Frequencies --   1466.0932              1504.3930              1510.0704
 Red. masses --      1.0867                 1.0795                 1.0893
 Frc consts  --      1.3762                 1.4395                 1.4635
 IR Inten    --      1.8588                 1.2223                 2.6290

                     40                     41                     42
                      A                      A                      A
 Frequencies --   1510.5867              1805.4771              2974.0219
 Red. masses --      1.1041                 9.1100                 1.0761
 Frc consts  --      1.4844                17.4965                 5.6078
 IR Inten    --      0.5007                 1.0222                27.0590

                     43                     44                     45
                      A                      A                      A
 Frequencies --   2988.9328              2998.7217              3001.0888
 Red. masses --      1.0722                 1.0620                 1.0626
 Frc consts  --      5.6436                 5.6264                 5.6389
 IR Inten    --     79.0268                58.7216                40.3910

                     46                     47                     48
                      A                      A                      A
 Frequencies --   3011.1224              3033.2571              3045.2632
 Red. masses --      1.0666                 1.0935                 1.1038
 Frc consts  --      5.6976                 5.9278                 6.0310
 IR Inten    --     45.4775                38.7567                33.7225

                     49                     50                     51
                      A                      A                      A
 Frequencies --   3061.3119              3089.0795              3141.6417
 Red. masses --      1.1034                 1.0938                 1.0891
 Frc consts  --      6.0923                 6.1495                 6.3336
 IR Inten    --     49.1374                20.9221                18.1129

 - Thermochemistry -
 -------------------
 Temperature   298.150 Kelvin.  Pressure   1.00000 Atm.
 Atom     1 has atomic number  6 and mass  12.00000

 Molecular mass:   126.06808 amu.
 Principal axes and moments of inertia in atomic units:
                           1         2         3
     Eigenvalues --   631.210261151.501651633.95871
           X            0.99991  -0.00060  -0.01308
           Y            0.00035   0.99982  -0.01916
           Z            0.01309   0.01915   0.99973
 This molecule is an asymmetric top.
 Rotational symmetry number  1.
 Warning -- assumption of classical behavior for rotation
           may cause significant error
 Rotational temperatures (Kelvin)      0.13722     0.07522     0.05301
 Rotational constants (GHZ):           2.85918     1.56729     1.10452
 Zero-point vibrational energy     422609.1 (Joules/Mol)
                                  101.00599 (Kcal/Mol)
 Warning -- explicit consideration of   9 degrees of freedom as
           vibrations may cause significant error
 Vibrational temperatures:    127.69   184.91   358.94   385.58   451.07
          (Kelvin)            505.10   558.83   623.51   830.48   904.94
                             1072.95  1132.67  1193.56  1233.37  1305.40
                             1366.74  1379.51  1433.98  1463.42  1503.29
                             1545.35  1557.30  1571.81  1630.61  1639.68
                             1681.99  1779.33  1799.33  1834.13  1873.21
                             1892.09  1940.75  1980.95  1988.90  2015.63
                             2032.85  2109.38  2164.48  2172.65  2173.39
                             2597.68  4278.95  4300.40  4314.49  4317.89
                             4332.33  4364.18  4381.45  4404.54  4444.49
                             4520.12

 Zero-point correction=                           0.160963 (Hartree/Particle)
 Thermal correction to Energy=                    0.168683
 Thermal correction to Enthalpy=                  0.169627
 Thermal correction to Gibbs Free Energy=         0.128612
 Sum of electronic and zero-point Energies=           -422.996035
 Sum of electronic and thermal Energies=              -422.988315
 Sum of electronic and thermal Enthalpies=            -422.987371
 Sum of electronic and thermal Free Energies=         -423.028386

                     E (Thermal)             CV                S
                      KCal/Mol        Cal/Mol-Kelvin    Cal/Mol-Kelvin
 Total                  105.850             29.810             86.323
 Electronic               0.000              0.000              0.000
 Translational            0.889              2.981             40.409
 Rotational               0.889              2.981             28.564
 Vibrational            104.073             23.848             17.350
 Vibration     1          0.602              1.957              3.687
 Vibration     2          0.611              1.925              2.968
 Vibration     3          0.662              1.764              1.734
 Vibration     4          0.673              1.732              1.609
 Vibration     5          0.701              1.648              1.344
 Vibration     6          0.728              1.573              1.161
 Vibration     7          0.757              1.495              1.006
 Vibration     8          0.794              1.398              0.848
 Vibration     9          0.934              1.081              0.491

 Normal termination of Gaussian 09 at Mon Jan 27 13:02:51 2020.
