 Gaussian 09, Revision D.01,
 Gaussian 09:  ES64L-G09RevD.01 24-Apr-2013

 -----------------------------
 # b3lyp 6-31G(2df,p) opt Freq
 -----------------------------

 -----
 titel
 -----
 Symbolic Z-matrix:
 Charge =  0 Multiplicity = 1

 SCF Done:  E(RB3LYP) =  -423.145226927     A.U. after   14 cycles
 Optimization completed.
    -- Stationary point found.
 Normal termination of Gaussian 09 at Mon Jan 27 23:09:28 2020.

 ----------------------------------------------------------------------
 #N Geom=AllCheck Guess=TCheck SCRF=Check GenChk RB3LYP/6-31G(2df,p) Fr
 eq
 ----------------------------------------------------------------------

 Structure from the checkpoint file:  "/scratch/puck/g09_9808af46-26e5-4bea-a688-70693c6aee83/Gau-179850.chk"
 -----
 titel
 -----
 Charge =  0 Multiplicity = 1

                         Standard orientation:
 ---------------------------------------------------------------------
 Center     Atomic      Atomic             Coordinates (Angstroms)
 Number     Number       Type             X           Y           Z
 ---------------------------------------------------------------------
      1          6           0       -2.611900   -0.133897   -0.247028
      2          6           0       -1.201196    0.359409   -0.549627
      3          6           0       -0.442343    1.063251    0.604920
      4          6           0        0.854714    1.536787   -0.109666
      5          6           0        1.164915    0.044106   -0.180444
      6          8           0        2.430985   -0.402129   -0.502996
      7          6           0        0.377814   -0.210437    1.133397
      8          8           0       -0.220102   -1.410938    0.627484
      9          6           0       -0.133502   -0.748455   -0.671774
     10          1           0       -2.612000   -0.806951    0.612691
     11          1           0       -3.276300    0.709202   -0.029858
     12          1           0       -3.030722   -0.675235   -1.102781
     13          1           0       -1.208447    0.998009   -1.439833
     14          1           0       -0.997117    1.715122    1.275980
     15          1           0        0.749071    2.114916   -1.031447
     16          1           0        1.558060    2.033089    0.564999
     17          1           0        2.458028   -1.355737   -0.358975
     18          1           0        0.759333   -0.255427    2.152192
     19          1           0       -0.137980   -1.437033   -1.517548
 ---------------------------------------------------------------------

 SCF Done:  E(RB3LYP) =  -423.145226927     A.U. after    1 cycles

 The electronic state is 1-A.
 Alpha  occ. eigenvalues --  -19.15076 -19.13772 -10.24146 -10.23370 -10.23074
 Alpha  occ. eigenvalues --  -10.19317 -10.18995 -10.18463 -10.16956  -1.06243
 Alpha  occ. eigenvalues --   -1.02681  -0.85612  -0.76007  -0.68430  -0.65008
 Alpha  occ. eigenvalues --   -0.64402  -0.56113  -0.54442  -0.53191  -0.49400
 Alpha  occ. eigenvalues --   -0.46260  -0.44905  -0.41046  -0.40255  -0.39269
 Alpha  occ. eigenvalues --   -0.37245  -0.36715  -0.35579  -0.34340  -0.33181
 Alpha  occ. eigenvalues --   -0.31459  -0.29678  -0.25437  -0.24008
 Alpha virt. eigenvalues --    0.07835   0.08437   0.10378   0.12323   0.13205
 Alpha virt. eigenvalues --    0.14027   0.14502   0.15650   0.16158   0.16974
 Alpha virt. eigenvalues --    0.17518   0.18523   0.19199   0.20242   0.21826

 Mulliken charges:
               1
     1  C   -0.424497
     2  C    0.054369
     3  C   -0.104112
     4  C   -0.299321
     5  C    0.415476
     6  O   -0.481242
     7  C    0.019592
     8  O   -0.296692
     9  C   -0.039127
    10  H    0.136491
    11  H    0.109653
    12  H    0.110187
    13  H    0.071911
    14  H    0.070964
    15  H    0.099640
    16  H    0.107030
    17  H    0.289665
    18  H    0.085541
    19  H    0.074471
 Sum of Mulliken charges =   0.00000

 Dipole moment (field-independent basis, Debye):
    X=             -0.3033    Y=              0.4628    Z=             -0.1637  Tot=              0.5771
 Quadrupole moment (field-independent basis, Debye-Ang):
   XX=            -56.0098   YY=            -52.6835   ZZ=            -51.4965
   XY=             -3.5398   XZ=              2.3926   YZ=              2.3991

  Exact polarizability:  81.230  -0.015  72.460   2.232   1.950  68.130
 Approx polarizability: 109.002  -0.456 111.903   1.250   0.622 107.610

                      1                      2                      3
                      A                      A                      A
 Frequencies --    188.1653               207.5353               242.4246
 Red. masses --      3.4708                 1.0400                 3.0549
 Frc consts  --      0.0724                 0.0264                 0.1058
 IR Inten    --      1.3755                 0.1804                 1.1696

                      4                      5                      6
                      A                      A                      A
 Frequencies --    301.9000               337.2019               367.2411
 Red. masses --      2.3781                 2.2465                 1.5477
 Frc consts  --      0.1277                 0.1505                 0.1230
 IR Inten    --     22.3245                16.8969                62.3906

                      7                      8                      9
                      A                      A                      A
 Frequencies --    447.8353               488.9748               538.8772
 Red. masses --      2.3375                 3.4780                 4.6525
 Frc consts  --      0.2762                 0.4899                 0.7960
 IR Inten    --      5.7515                 4.5177                 0.7091

                     10                     11                     12
                      A                      A                      A
 Frequencies --    663.4512               705.2883               715.7247
 Red. masses --      3.6825                 3.6877                 4.0297
 Frc consts  --      0.9550                 1.0808                 1.2162
 IR Inten    --      4.5450                 6.2609                 0.7696

                     13                     14                     15
                      A                      A                      A
 Frequencies --    787.1844               818.5969               854.0795
 Red. masses --      2.4224                 2.8422                 2.7829
 Frc consts  --      0.8844                 1.1221                 1.1960
 IR Inten    --      0.7910                 3.1639                16.5500

                     16                     17                     18
                      A                      A                      A
 Frequencies --    898.4899               927.4458               934.5958
 Red. masses --      2.1411                 2.6634                 3.4261
 Frc consts  --      1.0184                 1.3498                 1.7632
 IR Inten    --      9.5483                13.2470                23.2387

                     19                     20                     21
                      A                      A                      A
 Frequencies --    954.7323              1004.9353              1017.9151
 Red. masses --      2.2073                 2.0665                 1.4718
 Frc consts  --      1.1854                 1.2296                 0.8985
 IR Inten    --     19.3878                10.1269                 8.6437

                     22                     23                     24
                      A                      A                      A
 Frequencies --   1032.7502              1056.2451              1081.8014
 Red. masses --      1.7728                 1.7763                 1.9035
 Frc consts  --      1.1140                 1.1676                 1.3125
 IR Inten    --      6.4183                25.7569                 5.5207

                     25                     26                     27
                      A                      A                      A
 Frequencies --   1093.1827              1118.0079              1155.6390
 Red. masses --      1.7962                 1.5974                 1.8563
 Frc consts  --      1.2647                 1.1764                 1.4606
 IR Inten    --      6.5407                 4.1777                 6.4741

                     28                     29                     30
                      A                      A                      A
 Frequencies --   1165.5002              1189.1851              1212.6398
 Red. masses --      1.6212                 1.9425                 1.4640
 Frc consts  --      1.2975                 1.6185                 1.2684
 IR Inten    --      4.5700                24.1459                 3.0470

                     31                     32                     33
                      A                      A                      A
 Frequencies --   1233.6689              1240.7157              1277.7791
 Red. masses --      1.8803                 1.3965                 1.5851
 Frc consts  --      1.6861                 1.2666                 1.5248
 IR Inten    --     24.7278                 2.3130                 4.3337

                     34                     35                     36
                      A                      A                      A
 Frequencies --   1321.1927              1348.0975              1381.1804
 Red. masses --      1.6607                 2.2063                 1.4995
 Frc consts  --      1.7079                 2.3625                 1.6854
 IR Inten    --     47.3672               151.4700                 2.3380

                     37                     38                     39
                      A                      A                      A
 Frequencies --   1400.7293              1404.9123              1492.4297
 Red. masses --      1.9197                 1.3714                 1.0480
 Frc consts  --      2.2192                 1.5949                 1.3753
 IR Inten    --      6.3536                 3.8240                 3.9720

                     40                     41                     42
                      A                      A                      A
 Frequencies --   1504.4913              1506.4017              3033.5798
 Red. masses --      1.1227                 1.0921                 1.0405
 Frc consts  --      1.4972                 1.4601                 5.6419
 IR Inten    --      9.6463                 0.1004                30.7092

                     43                     44                     45
                      A                      A                      A
 Frequencies --   3046.2163              3056.7899              3093.0632
 Red. masses --      1.0805                 1.0576                 1.1008
 Frc consts  --      5.9072                 5.8224                 6.2047
 IR Inten    --     17.6337                38.9149                21.8844

                     46                     47                     48
                      A                      A                      A
 Frequencies --   3112.4163              3117.0161              3133.0735
 Red. masses --      1.1087                 1.0906                 1.0982
 Frc consts  --      6.3279                 6.2427                 6.3512
 IR Inten    --     20.1816                43.2725                22.0677

                     49                     50                     51
                      A                      A                      A
 Frequencies --   3135.1827              3145.5578              3789.4136
 Red. masses --      1.0912                 1.0924                 1.0653
 Frc consts  --      6.3195                 6.3686                 9.0132
 IR Inten    --     14.0597                30.6737                26.2472

 - Thermochemistry -
 -------------------
 Temperature   298.150 Kelvin.  Pressure   1.00000 Atm.
 Atom     1 has atomic number  6 and mass  12.00000

 Molecular mass:   126.06808 amu.
 Principal axes and moments of inertia in atomic units:
                           1         2         3
     Eigenvalues --   563.568041131.642151308.37503
           X            0.99987   0.00036   0.01624
           Y           -0.00103   0.99916   0.04102
           Z           -0.01621  -0.04103   0.99903
 This molecule is an asymmetric top.
 Rotational symmetry number  1.
 Warning -- assumption of classical behavior for rotation
           may cause significant error
 Rotational temperatures (Kelvin)      0.15369     0.07654     0.06620
 Rotational constants (GHZ):           3.20235     1.59480     1.37938
 Zero-point vibrational energy     420376.4 (Joules/Mol)
                                  100.47238 (Kcal/Mol)
 Warning -- explicit consideration of   9 degrees of freedom as
           vibrations may cause significant error
 Vibrational temperatures:    270.73   298.60   348.79   434.37   485.16
          (Kelvin)            528.38   644.33   703.52   775.32   954.56
                             1014.75  1029.77  1132.58  1177.78  1228.83
                             1292.72  1334.39  1344.67  1373.65  1445.88
                             1464.55  1485.90  1519.70  1556.47  1572.84
                             1608.56  1662.70  1676.89  1710.97  1744.72
                             1774.97  1785.11  1838.44  1900.90  1939.61
                             1987.21  2015.33  2021.35  2147.27  2164.62
                             2167.37  4364.64  4382.82  4398.03  4450.22
                             4478.07  4484.69  4507.79  4510.82  4525.75
                             5452.11

 Zero-point correction=                           0.160113 (Hartree/Particle)
 Thermal correction to Energy=                    0.167540
 Thermal correction to Enthalpy=                  0.168484
 Thermal correction to Gibbs Free Energy=         0.128831
 Sum of electronic and zero-point Energies=           -422.985114
 Sum of electronic and thermal Energies=              -422.977687
 Sum of electronic and thermal Enthalpies=            -422.976743
 Sum of electronic and thermal Free Energies=         -423.016396

                     E (Thermal)             CV                S
                      KCal/Mol        Cal/Mol-Kelvin    Cal/Mol-Kelvin
 Total                  105.133             30.711             83.458
 Electronic               0.000              0.000              0.000
 Translational            0.889              2.981             40.409
 Rotational               0.889              2.981             28.214
 Vibrational            103.356             24.750             14.836
 Vibration     1          0.633              1.856              2.246
 Vibration     2          0.641              1.829              2.065
 Vibration     3          0.659              1.775              1.785
 Vibration     4          0.694              1.670              1.406
 Vibration     5          0.718              1.601              1.225
 Vibration     6          0.740              1.540              1.091
 Vibration     7          0.807              1.366              0.802
 Vibration     8          0.845              1.274              0.686
 Vibration     9          0.894              1.164              0.568

 Normal termination of Gaussian 09 at Mon Jan 27 23:58:35 2020.
