 Gaussian 09, Revision D.01,
 Gaussian 09:  ES64L-G09RevD.01 24-Apr-2013

 -----------------------------
 # b3lyp 6-31G(2df,p) opt Freq
 -----------------------------

 -----
 titel
 -----
 Symbolic Z-matrix:
 Charge =  0 Multiplicity = 1

 SCF Done:  E(RB3LYP) =  -423.230885800     A.U. after   14 cycles
 Optimization completed.
    -- Stationary point found.
 Normal termination of Gaussian 09 at Tue Jan 28 08:13:23 2020.

 ----------------------------------------------------------------------
 #N Geom=AllCheck Guess=TCheck SCRF=Check GenChk RB3LYP/6-31G(2df,p) Fr
 eq
 ----------------------------------------------------------------------

 Structure from the checkpoint file:  "/scratch/puck/g09_83f5d549-8a20-4a38-8585-28ac6eac5c03/Gau-14149.chk"
 -----
 titel
 -----
 Charge =  0 Multiplicity = 1

                         Standard orientation:
 ---------------------------------------------------------------------
 Center     Atomic      Atomic             Coordinates (Angstroms)
 Number     Number       Type             X           Y           Z
 ---------------------------------------------------------------------
      1          6           0       -2.786796   -0.525744    0.601074
      2          6           0       -1.625788   -0.059634   -0.298250
      3          6           0       -0.979773    1.220709    0.241771
      4          6           0        0.308847    1.603211   -0.480019
      5          8           0        1.470932    1.014105    0.109114
      6          6           0        1.676260   -0.323972    0.121502
      7          8           0        2.722064   -0.737307    0.557674
      8          6           0        0.658027   -1.277641   -0.398335
      9          6           0       -0.668645   -1.191022   -0.546493
     10          1           0       -3.525707    0.272979    0.718951
     11          1           0       -3.295539   -1.396410    0.176180
     12          1           0       -2.421360   -0.800554    1.595838
     13          1           0       -2.062474    0.178229   -1.282336
     14          1           0       -1.702157    2.040357    0.154815
     15          1           0       -0.751496    1.118860    1.309677
     16          1           0        0.257965    1.349044   -1.546580
     17          1           0        0.494852    2.676333   -0.399066
     18          1           0        1.130786   -2.232353   -0.607394
     19          1           0       -1.161630   -2.096305   -0.901892
 ---------------------------------------------------------------------

 SCF Done:  E(RB3LYP) =  -423.230885800     A.U. after    1 cycles

 The electronic state is 1-A.
 Alpha  occ. eigenvalues --  -19.17332 -19.10971 -10.30027 -10.24792 -10.21361
 Alpha  occ. eigenvalues --  -10.21271 -10.19943 -10.19901 -10.19285  -1.08909
 Alpha  occ. eigenvalues --   -1.00624  -0.84126  -0.78032  -0.74394  -0.66958
 Alpha  occ. eigenvalues --   -0.65526  -0.58313  -0.54853  -0.51274  -0.49259
 Alpha  occ. eigenvalues --   -0.46211  -0.45594  -0.43257  -0.42032  -0.41578
 Alpha  occ. eigenvalues --   -0.40188  -0.39424  -0.36998  -0.36046  -0.34064
 Alpha  occ. eigenvalues --   -0.32207  -0.29157  -0.27362  -0.25893
 Alpha virt. eigenvalues --   -0.03907   0.06406   0.08556   0.10398   0.11011
 Alpha virt. eigenvalues --    0.11768   0.12376   0.14412   0.15613   0.16156
 Alpha virt. eigenvalues --    0.17151   0.18080   0.19073   0.20232   0.22482

 Mulliken charges:
               1
     1  C   -0.400619
     2  C   -0.037215
     3  C   -0.223203
     4  C   -0.090565
     5  O   -0.225845
     6  C    0.390153
     7  O   -0.336056
     8  C   -0.195812
     9  C   -0.040310
    10  H    0.120407
    11  H    0.120161
    12  H    0.130106
    13  H    0.095841
    14  H    0.106548
    15  H    0.121226
    16  H    0.113624
    17  H    0.124722
    18  H    0.121831
    19  H    0.105006
 Sum of Mulliken charges =   0.00000

 Dipole moment (field-independent basis, Debye):
    X=             -4.8079    Y=              0.7695    Z=             -1.5884  Tot=              5.1216
 Quadrupole moment (field-independent basis, Debye-Ang):
   XX=            -62.9789   YY=            -50.0959   ZZ=            -53.0936
   XY=              1.2922   XZ=             -2.9633   YZ=              0.6719

  Exact polarizability: 101.812  -3.869  78.326   4.015   1.149  58.184
 Approx polarizability: 155.107  -9.758 110.770  15.151   0.247  91.775

                      1                      2                      3
                      A                      A                      A
 Frequencies --     64.9529               117.7177               230.4652
 Red. masses --      4.0551                 3.8336                 1.5087
 Frc consts  --      0.0101                 0.0313                 0.0472
 IR Inten    --      2.5400                 0.1784                 1.5482

                      4                      5                      6
                      A                      A                      A
 Frequencies --    255.4914               269.8334               310.5569
 Red. masses --      1.7922                 1.9507                 2.7465
 Frc consts  --      0.0689                 0.0837                 0.1561
 IR Inten    --      2.1713                 0.5730                 0.5822

                      7                      8                      9
                      A                      A                      A
 Frequencies --    344.2934               390.0357               489.4476
 Red. masses --      5.1968                 3.6940                 3.0182
 Frc consts  --      0.3629                 0.3311                 0.4260
 IR Inten    --      1.9270                 3.8899                 1.5011

                     10                     11                     12
                      A                      A                      A
 Frequencies --    511.7579               586.9773               677.0725
 Red. masses --      3.0868                 2.8728                 2.8014
 Frc consts  --      0.4763                 0.5832                 0.7566
 IR Inten    --      2.1575                 5.3138                 1.8704

                     13                     14                     15
                      A                      A                      A
 Frequencies --    723.5168               773.6324               826.9629
 Red. masses --      4.0375                 3.3333                 2.7934
 Frc consts  --      1.2453                 1.1754                 1.1255
 IR Inten    --      1.1639                 2.0070                15.1519

                     16                     17                     18
                      A                      A                      A
 Frequencies --    859.9248               890.5289               941.9482
 Red. masses --      2.5127                 1.8169                 1.7659
 Frc consts  --      1.0947                 0.8489                 0.9231
 IR Inten    --     37.1918                 8.0080                 5.0051

                     19                     20                     21
                      A                      A                      A
 Frequencies --    999.3776              1017.2455              1036.1808
 Red. masses --      1.6233                 1.6462                 1.3708
 Frc consts  --      0.9552                 1.0037                 0.8671
 IR Inten    --      2.0008                 4.4070                 1.9010

                     22                     23                     24
                      A                      A                      A
 Frequencies --   1055.4991              1106.8684              1117.9589
 Red. masses --      2.6053                 3.7588                 2.3293
 Frc consts  --      1.7101                 2.7133                 1.7152
 IR Inten    --      1.8989                41.1851                20.5008

                     25                     26                     27
                      A                      A                      A
 Frequencies --   1179.5679              1206.1251              1240.6215
 Red. masses --      1.7669                 1.6013                 1.7478
 Frc consts  --      1.4485                 1.3725                 1.5850
 IR Inten    --     21.9064               102.8106                44.8862

                     28                     29                     30
                      A                      A                      A
 Frequencies --   1292.1066              1302.3202              1321.2322
 Red. masses --      1.1636                 1.2656                 1.3051
 Frc consts  --      1.1446                 1.2647                 1.3423
 IR Inten    --     10.7277                20.7547                43.7060

                     31                     32                     33
                      A                      A                      A
 Frequencies --   1369.5718              1390.4186              1405.6489
 Red. masses --      1.4871                 1.6014                 1.2524
 Frc consts  --      1.6434                 1.8241                 1.4580
 IR Inten    --     24.7776                 0.4308                 5.3011

                     34                     35                     36
                      A                      A                      A
 Frequencies --   1422.3464              1432.0802              1476.7876
 Red. masses --      1.2948                 1.4979                 1.0927
 Frc consts  --      1.5433                 1.8099                 1.4041
 IR Inten    --      8.6890                23.3990                 2.9937

                     37                     38                     39
                      A                      A                      A
 Frequencies --   1496.7091              1500.7435              1506.0192
 Red. masses --      1.0449                 1.0650                 1.0995
 Frc consts  --      1.3792                 1.4133                 1.4693
 IR Inten    --      6.4912                 6.2669                 6.5700

                     40                     41                     42
                      A                      A                      A
 Frequencies --   1702.8733              1803.1956              2968.0669
 Red. masses --      7.9597                11.7444                 1.0807
 Frc consts  --     13.5991                22.4991                 5.6094
 IR Inten    --     10.5975               348.6706                15.3480

                     43                     44                     45
                      A                      A                      A
 Frequencies --   3027.7927              3033.1437              3036.7738
 Red. masses --      1.0674                 1.0503                 1.0439
 Frc consts  --      5.7652                 5.6931                 5.6721
 IR Inten    --     24.9958                 8.3736                38.1446

                     46                     47                     48
                      A                      A                      A
 Frequencies --   3075.7055              3106.2207              3108.6591
 Red. masses --      1.1029                 1.0978                 1.1020
 Frc consts  --      6.1474                 6.2407                 6.2745
 IR Inten    --     20.8594                22.4654                28.2419

                     49                     50                     51
                      A                      A                      A
 Frequencies --   3109.5375              3123.2687              3182.2386
 Red. masses --      1.1019                 1.0862                 1.0904
 Frc consts  --      6.2775                 6.2429                 6.5056
 IR Inten    --     20.8564                18.2150                 5.3877

 - Thermochemistry -
 -------------------
 Temperature   298.150 Kelvin.  Pressure   1.00000 Atm.
 Atom     1 has atomic number  6 and mass  12.00000

 Molecular mass:   126.06808 amu.
 Principal axes and moments of inertia in atomic units:
                           1         2         3
     Eigenvalues --   612.930121441.951861841.39247
           X            0.99981   0.01016  -0.01651
           Y           -0.01012   0.99995   0.00239
           Z            0.01654  -0.00223   0.99986
 This molecule is an asymmetric top.
 Rotational symmetry number  1.
 Warning -- assumption of classical behavior for rotation
           may cause significant error
 Rotational temperatures (Kelvin)      0.14131     0.06007     0.04704
 Rotational constants (GHZ):           2.94445     1.25160     0.98010
 Zero-point vibrational energy     421193.3 (Joules/Mol)
                                  100.66761 (Kcal/Mol)
 Warning -- explicit consideration of  11 degrees of freedom as
           vibrations may cause significant error
 Vibrational temperatures:     93.45   169.37   331.59   367.59   388.23
          (Kelvin)            446.82   495.36   561.17   704.21   736.30
                              844.53   974.16  1040.98  1113.08  1189.81
                             1237.24  1281.27  1355.25  1437.88  1463.59
                             1490.83  1518.63  1592.53  1608.49  1697.13
                             1735.34  1784.98  1859.05  1873.75  1900.96
                             1970.51  2000.50  2022.41  2046.44  2060.44
                             2124.77  2153.43  2159.23  2166.82  2450.05
                             2594.39  4270.38  4356.31  4364.01  4369.23
                             4425.25  4469.15  4472.66  4473.93  4493.68
                             4578.53

 Zero-point correction=                           0.160424 (Hartree/Particle)
 Thermal correction to Energy=                    0.168794
 Thermal correction to Enthalpy=                  0.169738
 Thermal correction to Gibbs Free Energy=         0.127220
 Sum of electronic and zero-point Energies=           -423.070462
 Sum of electronic and thermal Energies=              -423.062092
 Sum of electronic and thermal Enthalpies=            -423.061148
 Sum of electronic and thermal Free Energies=         -423.103665

                     E (Thermal)             CV                S
                      KCal/Mol        Cal/Mol-Kelvin    Cal/Mol-Kelvin
 Total                  105.920             31.772             89.486
 Electronic               0.000              0.000              0.000
 Translational            0.889              2.981             40.409
 Rotational               0.889              2.981             28.878
 Vibrational            104.142             25.810             20.200
 Vibration     1          0.597              1.971              4.301
 Vibration     2          0.608              1.935              3.138
 Vibration     3          0.652              1.794              1.875
 Vibration     4          0.666              1.754              1.692
 Vibration     5          0.674              1.729              1.597
 Vibration     6          0.699              1.654              1.359
 Vibration     7          0.723              1.587              1.192
 Vibration     8          0.758              1.491              1.000
 Vibration     9          0.845              1.273              0.685
 Vibration    10          0.867              1.224              0.629
 Vibration    11          0.944              1.060              0.473

 Optimization completed.
    -- Stationary point found.
 Normal termination of Gaussian 09 at Tue Jan 28 08:55:11 2020.
