 Gaussian 09, Revision D.01,
 Gaussian 09:  ES64L-G09RevD.01 24-Apr-2013

 -----------------------------
 # b3lyp 6-31G(2df,p) opt Freq
 -----------------------------

 -----
 titel
 -----
 Symbolic Z-matrix:
 Charge =  0 Multiplicity = 1

 SCF Done:  E(RB3LYP) =  -423.208223469     A.U. after   14 cycles
 Optimization completed.
    -- Stationary point found.
 Normal termination of Gaussian 09 at Tue Jan 28 08:13:37 2020.

 ----------------------------------------------------------------------
 #N Geom=AllCheck Guess=TCheck SCRF=Check GenChk RB3LYP/6-31G(2df,p) Fr
 eq
 ----------------------------------------------------------------------

 Structure from the checkpoint file:  "/scratch/puck/g09_cf90d56a-0045-45d6-8258-e2ea090b9d33/Gau-14121.chk"
 -----
 titel
 -----
 Charge =  0 Multiplicity = 1

                         Standard orientation:
 ---------------------------------------------------------------------
 Center     Atomic      Atomic             Coordinates (Angstroms)
 Number     Number       Type             X           Y           Z
 ---------------------------------------------------------------------
      1          6           0        2.281012   -0.996674    0.267706
      2          6           0        0.909148   -0.593098   -0.271119
      3          8           0       -0.072748   -1.337538    0.425580
      4          6           0       -1.313671   -1.459093   -0.238864
      5          6           0       -2.123964   -0.195637   -0.318116
      6          6           0       -1.770125    1.010207    0.124117
      7          6           0       -0.444705    1.376046    0.764132
      8          6           0        0.717026    0.928829   -0.118589
      9          8           0        1.457679    1.700109   -0.677715
     10          1           0        2.457472   -2.059015    0.083842
     11          1           0        3.056563   -0.405858   -0.223306
     12          1           0        2.332369   -0.821472    1.346702
     13          1           0        0.862734   -0.815562   -1.349754
     14          1           0       -1.164320   -1.865357   -1.256513
     15          1           0       -1.875125   -2.221185    0.316764
     16          1           0       -3.099965   -0.319722   -0.784277
     17          1           0       -2.466516    1.832710   -0.010974
     18          1           0       -0.364047    2.456354    0.894841
     19          1           0       -0.346939    0.895059    1.744160
 ---------------------------------------------------------------------

 SCF Done:  E(RB3LYP) =  -423.208223469     A.U. after    1 cycles

 The electronic state is 1-A.
 Alpha  occ. eigenvalues --  -19.15136 -19.13102 -10.26751 -10.24260 -10.24234
 Alpha  occ. eigenvalues --  -10.19650 -10.19384 -10.19123 -10.18217  -1.05151
 Alpha  occ. eigenvalues --   -1.03791  -0.80954  -0.78650  -0.72829  -0.66743
 Alpha  occ. eigenvalues --   -0.64336  -0.55830  -0.54122  -0.49467  -0.48719
 Alpha  occ. eigenvalues --   -0.47620  -0.44637  -0.43634  -0.42455  -0.40883
 Alpha  occ. eigenvalues --   -0.39134  -0.38984  -0.37408  -0.36064  -0.34421
 Alpha  occ. eigenvalues --   -0.32347  -0.28659  -0.26280  -0.23064
 Alpha virt. eigenvalues --   -0.01542   0.01230   0.08104   0.10790   0.11973
 Alpha virt. eigenvalues --    0.13208   0.14895   0.15113   0.16241   0.17018
 Alpha virt. eigenvalues --    0.17563   0.18225   0.19573   0.21247   0.22279

 Mulliken charges:
               1
     1  C   -0.398793
     2  C    0.024731
     3  O   -0.246038
     4  C   -0.136759
     5  C   -0.037518
     6  C   -0.088525
     7  C   -0.344294
     8  C    0.368136
     9  O   -0.310650
    10  H    0.124060
    11  H    0.143043
    12  H    0.127081
    13  H    0.096360
    14  H    0.101745
    15  H    0.122807
    16  H    0.093720
    17  H    0.103217
    18  H    0.120263
    19  H    0.137414
 Sum of Mulliken charges =   0.00000

 Dipole moment (field-independent basis, Debye):
    X=             -1.7052    Y=             -1.3894    Z=              0.2529  Tot=              2.2141
 Quadrupole moment (field-independent basis, Debye-Ang):
   XX=            -51.7702   YY=            -55.3343   ZZ=            -53.5521
   XY=             -3.3128   XZ=              2.5157   YZ=              4.3723

  Exact polarizability:  87.299   3.210  85.161   1.746   4.943  60.192
 Approx polarizability: 116.522  13.234 129.213   0.192   5.707  97.580

                      1                      2                      3
                      A                      A                      A
 Frequencies --     48.1690               127.9924               222.4880
 Red. masses --      3.7993                 2.9465                 1.2449
 Frc consts  --      0.0052                 0.0284                 0.0363
 IR Inten    --      2.7469                 0.5477                 0.3352

                      4                      5                      6
                      A                      A                      A
 Frequencies --    238.2464               268.2914               313.8690
 Red. masses --      1.9759                 3.2969                 3.4468
 Frc consts  --      0.0661                 0.1398                 0.2001
 IR Inten    --      2.7284                 6.4751                 3.0591

                      7                      8                      9
                      A                      A                      A
 Frequencies --    333.6533               407.3126               467.6510
 Red. masses --      4.0675                 2.5811                 3.1716
 Frc consts  --      0.2668                 0.2523                 0.4087
 IR Inten    --      2.0518                 0.4815                 1.9863

                     10                     11                     12
                      A                      A                      A
 Frequencies --    482.6821               534.2155               666.7815
 Red. masses --      4.0876                 3.8487                 1.4912
 Frc consts  --      0.5611                 0.6471                 0.3906
 IR Inten    --     12.6864                 2.3455                24.8826

                     13                     14                     15
                      A                      A                      A
 Frequencies --    714.6531               728.6012               828.2908
 Red. masses --      3.5651                 2.5495                 3.3177
 Frc consts  --      1.0728                 0.7974                 1.3411
 IR Inten    --      2.4676                 2.6356                10.1164

                     16                     17                     18
                      A                      A                      A
 Frequencies --    862.4249               897.4651               942.3968
 Red. masses --      3.1291                 2.3062                 1.9676
 Frc consts  --      1.3712                 1.0944                 1.0296
 IR Inten    --      6.9326                 3.4432                 5.8230

                     19                     20                     21
                      A                      A                      A
 Frequencies --    976.3144               994.6171              1024.5988
 Red. masses --      2.3970                 1.1812                 2.0124
 Frc consts  --      1.3462                 0.6885                 1.2447
 IR Inten    --      2.9203                 1.3436                10.9801

                     22                     23                     24
                      A                      A                      A
 Frequencies --   1039.7752              1095.3060              1127.9166
 Red. masses --      1.8319                 2.2977                 2.4594
 Frc consts  --      1.1669                 1.6241                 1.8435
 IR Inten    --      5.7006                 7.7201                21.0796

                     25                     26                     27
                      A                      A                      A
 Frequencies --   1146.4141              1185.9468              1235.4242
 Red. masses --      2.2423                 2.2366                 1.4246
 Frc consts  --      1.7363                 1.8534                 1.2811
 IR Inten    --     29.5367                83.9199                49.2095

                     28                     29                     30
                      A                      A                      A
 Frequencies --   1245.1363              1291.2200              1308.0341
 Red. masses --      1.3555                 1.2053                 1.4201
 Frc consts  --      1.2382                 1.1840                 1.4316
 IR Inten    --     15.0415                27.5033                 0.2904

                     31                     32                     33
                      A                      A                      A
 Frequencies --   1314.7716              1355.0258              1396.0976
 Red. masses --      1.5897                 1.2165                 1.2445
 Frc consts  --      1.6191                 1.3161                 1.4291
 IR Inten    --      6.0649                 9.5813                 9.6876

                     34                     35                     36
                      A                      A                      A
 Frequencies --   1403.7756              1411.8566              1461.4886
 Red. masses --      1.2886                 1.5410                 1.0978
 Frc consts  --      1.4962                 1.8098                 1.3816
 IR Inten    --      9.7803                 7.8677                 5.4160

                     37                     38                     39
                      A                      A                      A
 Frequencies --   1479.9782              1487.2661              1498.5941
 Red. masses --      1.0873                 1.0481                 1.0586
 Frc consts  --      1.4032                 1.3659                 1.4007
 IR Inten    --      5.5118                 7.5920                 1.8906

                     40                     41                     42
                      A                      A                      A
 Frequencies --   1726.8849              1818.2546              2935.8704
 Red. masses --      6.8475                11.6180                 1.0720
 Frc consts  --     12.0312                22.6303                 5.4439
 IR Inten    --      6.1495               167.0122                55.5936

                     43                     44                     45
                      A                      A                      A
 Frequencies --   2975.4801              3040.0439              3043.9627
 Red. masses --      1.0818                 1.0869                 1.0633
 Frc consts  --      5.6432                 5.9185                 5.8047
 IR Inten    --     21.9083                26.2185                 7.1413

                     46                     47                     48
                      A                      A                      A
 Frequencies --   3049.8997              3120.4643              3122.9334
 Red. masses --      1.0350                 1.0980                 1.1015
 Frc consts  --      5.6726                 6.2995                 6.3293
 IR Inten    --     16.0631                 8.8858                17.1204

                     49                     50                     51
                      A                      A                      A
 Frequencies --   3141.1719              3146.8284              3173.3385
 Red. masses --      1.0853                 1.1024                 1.0942
 Frc consts  --      6.3093                 6.4320                 6.4921
 IR Inten    --      9.5114                 7.9933                21.2675

 - Thermochemistry -
 -------------------
 Temperature   298.150 Kelvin.  Pressure   1.00000 Atm.
 Atom     1 has atomic number  6 and mass  12.00000

 Molecular mass:   126.06808 amu.
 Principal axes and moments of inertia in atomic units:
                           1         2         3
     Eigenvalues --   776.062221077.486091632.85208
           X            0.99605  -0.08753   0.01507
           Y            0.08697   0.99562   0.03435
           Z           -0.01801  -0.03290   0.99930
 This molecule is an asymmetric top.
 Rotational symmetry number  1.
 Warning -- assumption of classical behavior for rotation
           may cause significant error
 Rotational temperatures (Kelvin)      0.11161     0.08039     0.05304
 Rotational constants (GHZ):           2.32551     1.67496     1.10527
 Zero-point vibrational energy     417854.8 (Joules/Mol)
                                   99.86970 (Kcal/Mol)
 Warning -- explicit consideration of  11 degrees of freedom as
           vibrations may cause significant error
 Vibrational temperatures:     69.30   184.15   320.11   342.78   386.01
          (Kelvin)            451.59   480.05   586.03   672.84   694.47
                              768.62   959.35  1028.23  1048.29  1191.72
                             1240.84  1291.25  1355.90  1404.70  1431.03
                             1474.17  1496.00  1575.90  1622.82  1649.43
                             1706.31  1777.50  1791.47  1857.78  1881.97
                             1891.66  1949.58  2008.67  2019.72  2031.34
                             2102.75  2129.36  2139.84  2156.14  2484.60
                             2616.06  4224.06  4281.05  4373.94  4379.58
                             4388.12  4489.65  4493.20  4519.44  4527.58
                             4565.72

 Zero-point correction=                           0.159153 (Hartree/Particle)
 Thermal correction to Energy=                    0.167683
 Thermal correction to Enthalpy=                  0.168627
 Thermal correction to Gibbs Free Energy=         0.125740
 Sum of electronic and zero-point Energies=           -423.049071
 Sum of electronic and thermal Energies=              -423.040540
 Sum of electronic and thermal Enthalpies=            -423.039596
 Sum of electronic and thermal Free Energies=         -423.082484

                     E (Thermal)             CV                S
                      KCal/Mol        Cal/Mol-Kelvin    Cal/Mol-Kelvin
 Total                  105.223             32.341             90.265
 Electronic               0.000              0.000              0.000
 Translational            0.889              2.981             40.409
 Rotational               0.889              2.981             28.703
 Vibrational            103.445             26.380             21.153
 Vibration     1          0.595              1.978              4.891
 Vibration     2          0.611              1.925              2.976
 Vibration     3          0.648              1.807              1.939
 Vibration     4          0.656              1.782              1.816
 Vibration     5          0.673              1.731              1.607
 Vibration     6          0.702              1.647              1.342
 Vibration     7          0.715              1.608              1.242
 Vibration     8          0.772              1.454              0.936
 Vibration     9          0.825              1.322              0.744
 Vibration    10          0.839              1.288              0.703
 Vibration    11          0.889              1.174              0.578

 Optimization completed.
    -- Stationary point found.
 Normal termination of Gaussian 09 at Tue Jan 28 08:56:54 2020.
