 Gaussian 09, Revision D.01,
 Gaussian 09:  ES64L-G09RevD.01 24-Apr-2013

 -----------------------------
 # b3lyp 6-31G(2df,p) opt Freq
 -----------------------------

 -----
 titel
 -----
 Symbolic Z-matrix:
 Charge =  0 Multiplicity = 1

 SCF Done:  E(RB3LYP) =  -423.103999067     A.U. after   14 cycles
 Optimization completed.
    -- Stationary point found.
 Normal termination of Gaussian 09 at Mon Jan 27 23:03:01 2020.

 ----------------------------------------------------------------------
 #N Geom=AllCheck Guess=TCheck SCRF=Check GenChk RB3LYP/6-31G(2df,p) Fr
 eq
 ----------------------------------------------------------------------

 Structure from the checkpoint file:  "/scratch/puck/g09_537d12df-d951-4953-a72d-8504132f1dfd/Gau-128730.chk"
 -----
 titel
 -----
 Charge =  0 Multiplicity = 1

                         Standard orientation:
 ---------------------------------------------------------------------
 Center     Atomic      Atomic             Coordinates (Angstroms)
 Number     Number       Type             X           Y           Z
 ---------------------------------------------------------------------
      1          8           0       -1.454781    1.809527   -0.097464
      2          6           0       -1.394600    0.503811   -0.556354
      3          6           0       -1.704419   -0.648538    0.437356
      4          6           0       -0.906542   -1.619821   -0.446466
      5          6           0       -0.080939   -0.317013   -0.304537
      6          8           0       -0.444231   -0.297822    1.154726
      7          6           0        1.325497   -0.023535   -0.671129
      8          6           0        2.135684    0.941603    0.160184
      9          6           0        2.453880   -0.530885    0.194371
     10          1           0       -1.054365    1.782599    0.783857
     11          1           0       -1.841931    0.456620   -1.551921
     12          1           0       -2.585512   -0.826021    1.053467
     13          1           0       -0.490940   -2.479080    0.079097
     14          1           0       -1.306384   -1.870724   -1.432553
     15          1           0        1.493738   -0.008886   -1.744338
     16          1           0        2.813309    1.611984   -0.355857
     17          1           0        1.659064    1.364233    1.036574
     18          1           0        3.354461   -0.881575   -0.296775
     19          1           0        2.179293   -1.076521    1.089800
 ---------------------------------------------------------------------

 SCF Done:  E(RB3LYP) =  -423.103999067     A.U. after    1 cycles

 The electronic state is 1-A.
 Alpha  occ. eigenvalues --  -19.14052 -19.13751 -10.24933 -10.24510 -10.23931
 Alpha  occ. eigenvalues --  -10.19705 -10.19364 -10.18741 -10.18667  -1.06693
 Alpha  occ. eigenvalues --   -1.01198  -0.85933  -0.79254  -0.67790  -0.66326
 Alpha  occ. eigenvalues --   -0.60026  -0.59064  -0.56679  -0.51432  -0.48802
 Alpha  occ. eigenvalues --   -0.48220  -0.45823  -0.41669  -0.40385  -0.40119
 Alpha  occ. eigenvalues --   -0.38638  -0.36483  -0.35698  -0.33307  -0.32367
 Alpha  occ. eigenvalues --   -0.30411  -0.28844  -0.25209  -0.24546
 Alpha virt. eigenvalues --    0.07306   0.09278   0.11450   0.11808   0.12272
 Alpha virt. eigenvalues --    0.13045   0.13200   0.14238   0.14881   0.15812
 Alpha virt. eigenvalues --    0.17299   0.17893   0.18452   0.20142   0.22482

 Mulliken charges:
               1
     1  O   -0.444543
     2  C    0.155467
     3  C   -0.011069
     4  C   -0.268015
     5  C    0.367729
     6  O   -0.375255
     7  C   -0.148657
     8  C   -0.262067
     9  C   -0.269401
    10  H    0.286510
    11  H    0.087073
    12  H    0.098020
    13  H    0.114475
    14  H    0.097803
    15  H    0.092435
    16  H    0.114337
    17  H    0.123694
    18  H    0.112083
    19  H    0.129381
 Sum of Mulliken charges =   0.00000

 Dipole moment (field-independent basis, Debye):
    X=              0.3508    Y=             -1.2943    Z=             -0.8886  Tot=              1.6087
 Quadrupole moment (field-independent basis, Debye-Ang):
   XX=            -51.0257   YY=            -55.2482   ZZ=            -52.3570
   XY=              3.5240   XZ=             -1.6028   YZ=              2.2981

  Exact polarizability:  84.743   2.168  75.207   0.473   1.317  66.548
 Approx polarizability: 112.791   1.083 110.814   2.633   2.042 109.519

                      1                      2                      3
                      A                      A                      A
 Frequencies --     62.0871               135.8316               181.8176
 Red. masses --      2.9177                 3.3153                 3.6427
 Frc consts  --      0.0066                 0.0360                 0.0709
 IR Inten    --      0.2569                 0.3580                 1.0149

                      4                      5                      6
                      A                      A                      A
 Frequencies --    286.7840               308.6849               397.7947
 Red. masses --      3.9764                 3.7486                 3.3379
 Frc consts  --      0.1927                 0.2105                 0.3112
 IR Inten    --      9.1453                 2.3417                 1.5611

                      7                      8                      9
                      A                      A                      A
 Frequencies --    470.5926               518.5194               575.6817
 Red. masses --      2.5339                 2.3179                 1.2898
 Frc consts  --      0.3306                 0.3672                 0.2518
 IR Inten    --      3.6110                 4.7974                72.0266

                     10                     11                     12
                      A                      A                      A
 Frequencies --    602.0619               705.6546               755.9078
 Red. masses --      3.0162                 3.5623                 2.8892
 Frc consts  --      0.6442                 1.0451                 0.9727
 IR Inten    --     18.8646                 7.1174                34.4187

                     13                     14                     15
                      A                      A                      A
 Frequencies --    775.4528               793.9154               827.1234
 Red. masses --      2.2230                 1.2362                 1.4269
 Frc consts  --      0.7876                 0.4591                 0.5751
 IR Inten    --      0.0842                 8.8381                 7.6597

                     16                     17                     18
                      A                      A                      A
 Frequencies --    884.6032               891.0352               913.0644
 Red. masses --      2.7592                 2.3846                 4.5511
 Frc consts  --      1.2721                 1.1155                 2.2355
 IR Inten    --      7.4261                23.9529                11.6005

                     19                     20                     21
                      A                      A                      A
 Frequencies --    916.8132               975.4389               984.5218
 Red. masses --      4.0056                 2.1492                 2.8096
 Frc consts  --      1.9837                 1.2048                 1.6045
 IR Inten    --      1.1302                26.6816                 2.7735

                     22                     23                     24
                      A                      A                      A
 Frequencies --   1024.2952              1064.5355              1079.3526
 Red. masses --      1.6225                 1.3340                 1.3447
 Frc consts  --      1.0030                 0.8907                 0.9230
 IR Inten    --      8.1786                 4.8426                 8.4734

                     25                     26                     27
                      A                      A                      A
 Frequencies --   1088.4771              1121.6671              1126.2151
 Red. masses --      1.3996                 1.2837                 1.3274
 Frc consts  --      0.9770                 0.9516                 0.9920
 IR Inten    --      2.7466                 2.4917                 1.9364

                     28                     29                     30
                      A                      A                      A
 Frequencies --   1143.0418              1159.9198              1192.6798
 Red. masses --      1.6664                 1.8899                 1.7682
 Frc consts  --      1.2828                 1.4981                 1.4819
 IR Inten    --     45.4023                93.3909                11.8153

                     31                     32                     33
                      A                      A                      A
 Frequencies --   1202.6038              1215.5000              1223.1084
 Red. masses --      1.3817                 2.1058                 1.7063
 Frc consts  --      1.1774                 1.8331                 1.5040
 IR Inten    --      0.8451                 2.3312                 1.1766

                     34                     35                     36
                      A                      A                      A
 Frequencies --   1240.3600              1285.3460              1309.9841
 Red. masses --      1.5477                 1.8402                 1.8275
 Frc consts  --      1.4029                 1.7912                 1.8477
 IR Inten    --     18.6313                29.8609                 2.2651

                     37                     38                     39
                      A                      A                      A
 Frequencies --   1429.9931              1447.0361              1460.7046
 Red. masses --      1.8070                 1.3102                 1.0886
 Frc consts  --      2.1771                 1.6164                 1.3684
 IR Inten    --     24.3697                53.8047                 1.4239

                     40                     41                     42
                      A                      A                      A
 Frequencies --   1495.3162              1505.7549              3066.0625
 Red. masses --      1.2624                 1.6541                 1.0589
 Frc consts  --      1.6630                 2.2096                 5.8647
 IR Inten    --     18.4413                16.4797                21.4260

                     43                     44                     45
                      A                      A                      A
 Frequencies --   3096.4140              3126.9861              3139.3020
 Red. masses --      1.0855                 1.0943                 1.0518
 Frc consts  --      6.1321                 6.3044                 6.1072
 IR Inten    --     38.8326                50.7291                14.1123

                     46                     47                     48
                      A                      A                      A
 Frequencies --   3143.7562              3150.2232              3155.7508
 Red. masses --      1.0590                 1.0852                 1.1079
 Frc consts  --      6.1668                 6.3454                 6.5005
 IR Inten    --     11.8231                 5.0398                17.5959

                     49                     50                     51
                      A                      A                      A
 Frequencies --   3222.8675              3237.5507              3738.7234
 Red. masses --      1.1182                 1.1160                 1.0634
 Frc consts  --      6.8432                 6.8917                 8.7581
 IR Inten    --      0.3674                12.6313                21.4619

 - Thermochemistry -
 -------------------
 Temperature   298.150 Kelvin.  Pressure   1.00000 Atm.
 Atom     1 has atomic number  8 and mass  15.99491

 Molecular mass:   126.06808 amu.
 Principal axes and moments of inertia in atomic units:
                           1         2         3
     Eigenvalues --   634.480601230.067731515.41524
           X            0.99964   0.02656   0.00287
           Y           -0.02663   0.99925   0.02824
           Z           -0.00212  -0.02831   0.99960
 This molecule is an asymmetric top.
 Rotational symmetry number  1.
 Warning -- assumption of classical behavior for rotation
           may cause significant error
 Rotational temperatures (Kelvin)      0.13651     0.07041     0.05716
 Rotational constants (GHZ):           2.84444     1.46719     1.19092
 Zero-point vibrational energy     417837.1 (Joules/Mol)
                                   99.86547 (Kcal/Mol)
 Warning -- explicit consideration of  10 degrees of freedom as
           vibrations may cause significant error
 Vibrational temperatures:     89.33   195.43   261.59   412.62   444.13
          (Kelvin)            572.34   677.08   746.03   828.28   866.23
                             1015.28  1087.58  1115.70  1142.27  1190.04
                             1272.75  1282.00  1313.69  1319.09  1403.44
                             1416.51  1473.73  1531.63  1552.95  1566.07
                             1613.83  1620.37  1644.58  1668.86  1716.00
                             1730.28  1748.83  1759.78  1784.60  1849.32
                             1884.77  2057.44  2081.96  2101.63  2151.42
                             2166.44  4411.37  4455.04  4499.03  4516.75
                             4523.16  4532.46  4540.42  4636.98  4658.11
                             5379.18

 Zero-point correction=                           0.159146 (Hartree/Particle)
 Thermal correction to Energy=                    0.167060
 Thermal correction to Enthalpy=                  0.168004
 Thermal correction to Gibbs Free Energy=         0.126475
 Sum of electronic and zero-point Energies=           -422.944853
 Sum of electronic and thermal Energies=              -422.936939
 Sum of electronic and thermal Enthalpies=            -422.935995
 Sum of electronic and thermal Free Energies=         -422.977524

                     E (Thermal)             CV                S
                      KCal/Mol        Cal/Mol-Kelvin    Cal/Mol-Kelvin
 Total                  104.832             31.427             87.406
 Electronic               0.000              0.000              0.000
 Translational            0.889              2.981             40.409
 Rotational               0.889              2.981             28.560
 Vibrational            103.054             25.466             18.437
 Vibration     1          0.597              1.972              4.390
 Vibration     2          0.614              1.918              2.862
 Vibration     3          0.630              1.864              2.310
 Vibration     4          0.684              1.698              1.493
 Vibration     5          0.698              1.657              1.369
 Vibration     6          0.764              1.475              0.971
 Vibration     7          0.828              1.315              0.736
 Vibration     8          0.874              1.209              0.613
 Vibration     9          0.932              1.084              0.493
 Vibration    10          0.960              1.027              0.446

 Optimization completed.
    -- Stationary point found.
 Normal termination of Gaussian 09 at Mon Jan 27 23:44:20 2020.
