 Gaussian 09, Revision D.01,
 Gaussian 09:  ES64L-G09RevD.01 24-Apr-2013

 -----------------------------
 # b3lyp 6-31G(2df,p) opt Freq
 -----------------------------

 -----
 titel
 -----
 Symbolic Z-matrix:
 Charge =  0 Multiplicity = 1

 SCF Done:  E(RB3LYP) =  -423.197819854     A.U. after   14 cycles
 Optimization completed.
    -- Stationary point found.
 Normal termination of Gaussian 09 at Tue Jan 28 13:27:04 2020.

 ----------------------------------------------------------------------
 #N Geom=AllCheck Guess=TCheck SCRF=Check GenChk RB3LYP/6-31G(2df,p) Fr
 eq
 ----------------------------------------------------------------------

 Structure from the checkpoint file:  "/scratch/puck/g09_55a318d1-553d-4ae9-b776-728eb323b6a5/Gau-30994.chk"
 -----
 titel
 -----
 Charge =  0 Multiplicity = 1

                         Standard orientation:
 ---------------------------------------------------------------------
 Center     Atomic      Atomic             Coordinates (Angstroms)
 Number     Number       Type             X           Y           Z
 ---------------------------------------------------------------------
      1          8           0       -2.784711   -1.178372    0.047778
      2          6           0       -2.052654   -0.187507   -0.656659
      3          6           0       -1.193315    0.566033    0.361322
      4          6           0       -0.100508   -0.325497    1.021789
      5          6           0        1.282452    0.221555    0.553789
      6          6           0        1.988887   -0.732965   -0.396575
      7          8           0        3.148466   -1.045175   -0.332622
      8          6           0        0.919143    1.501336   -0.172820
      9          6           0       -0.396354    1.678775   -0.273792
     10          1           0       -3.281406   -1.699498   -0.589650
     11          1           0       -1.402319   -0.637658   -1.424583
     12          1           0       -2.725582    0.518883   -1.168964
     13          1           0       -1.885333    0.957456    1.118071
     14          1           0       -0.162428   -0.274412    2.110556
     15          1           0       -0.245026   -1.376481    0.753926
     16          1           0        1.971540    0.404480    1.384860
     17          1           0        1.326291   -1.129778   -1.203342
     18          1           0        1.678211    2.169297   -0.564451
     19          1           0       -0.869894    2.525704   -0.759988
 ---------------------------------------------------------------------

 SCF Done:  E(RB3LYP) =  -423.197819854     A.U. after    1 cycles

 The electronic state is 1-A.
 Alpha  occ. eigenvalues --  -19.14187 -19.13721 -10.26722 -10.23408 -10.19836
 Alpha  occ. eigenvalues --  -10.19627 -10.19385 -10.19190 -10.18945  -1.04435
 Alpha  occ. eigenvalues --   -1.02282  -0.85715  -0.75581  -0.72530  -0.66414
 Alpha  occ. eigenvalues --   -0.59779  -0.56516  -0.54557  -0.52090  -0.49851
 Alpha  occ. eigenvalues --   -0.47393  -0.44762  -0.43609  -0.41537  -0.40445
 Alpha  occ. eigenvalues --   -0.38435  -0.36341  -0.35495  -0.35175  -0.33996
 Alpha  occ. eigenvalues --   -0.33268  -0.27552  -0.26917  -0.23930
 Alpha virt. eigenvalues --   -0.02726   0.02305   0.07046   0.08914   0.10546
 Alpha virt. eigenvalues --    0.12855   0.13667   0.14725   0.15988   0.16282
 Alpha virt. eigenvalues --    0.17333   0.18678   0.19602   0.20732   0.22128

 Mulliken charges:
               1
     1  O   -0.418979
     2  C   -0.085186
     3  C   -0.011500
     4  C   -0.267236
     5  C   -0.105314
     6  C    0.157106
     7  O   -0.249255
     8  C   -0.095746
     9  C   -0.087024
    10  H    0.289346
    11  H    0.086645
    12  H    0.086893
    13  H    0.089909
    14  H    0.116678
    15  H    0.118051
    16  H    0.095903
    17  H    0.069151
    18  H    0.109904
    19  H    0.100655
 Sum of Mulliken charges =   0.00000

 Dipole moment (field-independent basis, Debye):
    X=             -2.8738    Y=              1.0738    Z=             -0.9880  Tot=              3.2230
 Quadrupole moment (field-independent basis, Debye-Ang):
   XX=            -61.5356   YY=            -51.7555   ZZ=            -51.7063
   XY=              5.3000   XZ=              5.4372   YZ=              1.0572

  Exact polarizability:  99.387  -2.763  72.248   2.539  -1.589  63.231
 Approx polarizability: 148.113  -8.549 104.278   3.467  -2.211  95.906

                      1                      2                      3
                      A                      A                      A
 Frequencies --     30.7926                66.3074               115.5625
 Red. masses --      3.9567                 4.4244                 3.2914
 Frc consts  --      0.0022                 0.0115                 0.0259
 IR Inten    --      1.1275                 6.0000                 2.5909

                      4                      5                      6
                      A                      A                      A
 Frequencies --    165.5679               250.3707               276.1266
 Red. masses --      3.3399                 1.9723                 1.3654
 Frc consts  --      0.0539                 0.0728                 0.0613
 IR Inten    --      1.4207                37.9746                65.5353

                      7                      8                      9
                      A                      A                      A
 Frequencies --    311.1114               345.0981               441.7645
 Red. masses --      2.0992                 2.3938                 3.2094
 Frc consts  --      0.1197                 0.1680                 0.3690
 IR Inten    --      2.6228                 1.8386                 8.8018

                     10                     11                     12
                      A                      A                      A
 Frequencies --    445.4447               517.0013               710.4833
 Red. masses --      5.3853                 3.0519                 2.5786
 Frc consts  --      0.6296                 0.4806                 0.7669
 IR Inten    --      9.6629                 3.1015                23.9111

                     13                     14                     15
                      A                      A                      A
 Frequencies --    780.8404               796.0778               810.8391
 Red. masses --      2.0657                 4.3729                 1.7847
 Frc consts  --      0.7421                 1.6328                 0.6913
 IR Inten    --     30.4836                 8.5643                 2.4301

                     16                     17                     18
                      A                      A                      A
 Frequencies --    874.1724               935.1303               957.3262
 Red. masses --      1.9226                 2.1583                 2.3266
 Frc consts  --      0.8656                 1.1120                 1.2563
 IR Inten    --      4.5247                10.1197                 5.7561

                     19                     20                     21
                      A                      A                      A
 Frequencies --    985.2969              1013.3141              1015.7925
 Red. masses --      1.3571                 2.3927                 1.8823
 Frc consts  --      0.7762                 1.4475                 1.1443
 IR Inten    --      0.3841                 4.9235                13.5258

                     22                     23                     24
                      A                      A                      A
 Frequencies --   1058.7513              1077.5392              1090.9376
 Red. masses --      2.0197                 5.3693                 2.0373
 Frc consts  --      1.3339                 3.6731                 1.4286
 IR Inten    --     11.5257                66.0365                 9.7161

                     25                     26                     27
                      A                      A                      A
 Frequencies --   1133.9011              1141.1154              1206.4386
 Red. masses --      1.9572                 1.2548                 1.1975
 Frc consts  --      1.4826                 0.9627                 1.0269
 IR Inten    --     12.9680                 3.0086                10.0909

                     28                     29                     30
                      A                      A                      A
 Frequencies --   1225.3721              1252.3156              1265.4160
 Red. masses --      1.2266                 1.3567                 1.2570
 Frc consts  --      1.0851                 1.2536                 1.1859
 IR Inten    --     15.4139                 8.9319                 2.4332

                     31                     32                     33
                      A                      A                      A
 Frequencies --   1287.5249              1306.5929              1311.0928
 Red. masses --      1.3924                 1.3670                 1.3629
 Frc consts  --      1.3600                 1.3750                 1.3803
 IR Inten    --      8.6842                14.3227                 4.3503

                     34                     35                     36
                      A                      A                      A
 Frequencies --   1353.4542              1379.3102              1422.0212
 Red. masses --      1.3217                 1.6698                 1.1774
 Frc consts  --      1.4265                 1.8717                 1.4028
 IR Inten    --      0.5729                 0.8060                 2.3891

                     37                     38                     39
                      A                      A                      A
 Frequencies --   1452.7126              1491.7128              1519.5704
 Red. masses --      1.4392                 1.0810                 1.0852
 Frc consts  --      1.7895                 1.4172                 1.4763
 IR Inten    --      5.9274                 2.7769                 4.7471

                     40                     41                     42
                      A                      A                      A
 Frequencies --   1683.4924              1833.1901              2841.0579
 Red. masses --      6.6651                10.4839                 1.0817
 Frc consts  --     11.1295                20.7581                 5.1441
 IR Inten    --      1.6178               234.0130                92.6478

                     43                     44                     45
                      A                      A                      A
 Frequencies --   2960.6039              2989.9948              3025.2104
 Red. masses --      1.0547                 1.1035                 1.0860
 Frc consts  --      5.4470                 5.8127                 5.8559
 IR Inten    --     51.8603                43.6723                43.7300

                     46                     47                     48
                      A                      A                      A
 Frequencies --   3055.1797              3066.7296              3109.9035
 Red. masses --      1.0825                 1.0657                 1.1017
 Frc consts  --      5.9533                 5.9054                 6.2778
 IR Inten    --     15.3763                17.5078                17.7291

                     49                     50                     51
                      A                      A                      A
 Frequencies --   3178.8085              3206.5394              3832.1652
 Red. masses --      1.0849                 1.1030                 1.0664
 Frc consts  --      6.4589                 6.6817                 9.2271
 IR Inten    --      4.3789                16.7379                26.6207

 - Thermochemistry -
 -------------------
 Temperature   298.150 Kelvin.  Pressure   1.00000 Atm.
 Atom     1 has atomic number  8 and mass  15.99491

 Molecular mass:   126.06808 amu.
 Principal axes and moments of inertia in atomic units:
                           1         2         3
     Eigenvalues --   622.795141803.272752124.51319
           X            0.99984   0.01302   0.01256
           Y           -0.01296   0.99991  -0.00457
           Z           -0.01261   0.00441   0.99991
 This molecule is an asymmetric top.
 Rotational symmetry number  1.
 Warning -- assumption of classical behavior for rotation
           may cause significant error
 Rotational temperatures (Kelvin)      0.13907     0.04803     0.04077
 Rotational constants (GHZ):           2.89781     1.00081     0.84948
 Zero-point vibrational energy     416318.8 (Joules/Mol)
                                   99.50259 (Kcal/Mol)
 Warning -- explicit consideration of  11 degrees of freedom as
           vibrations may cause significant error
 Vibrational temperatures:     44.30    95.40   166.27   238.21   360.23
          (Kelvin)            397.28   447.62   496.52   635.60   640.89
                              743.85  1022.23  1123.45  1145.38  1166.62
                             1257.74  1345.44  1377.38  1417.62  1457.93
                             1461.50  1523.31  1550.34  1569.61  1631.43
                             1641.81  1735.79  1763.03  1801.80  1820.65
                             1852.46  1879.89  1886.37  1947.32  1984.52
                             2045.97  2090.13  2146.24  2186.32  2422.17
                             2637.55  4087.64  4259.64  4301.93  4352.60
                             4395.72  4412.33  4474.45  4573.59  4613.49
                             5513.62

 Zero-point correction=                           0.158567 (Hartree/Particle)
 Thermal correction to Energy=                    0.167725
 Thermal correction to Enthalpy=                  0.168670
 Thermal correction to Gibbs Free Energy=         0.123213
 Sum of electronic and zero-point Energies=           -423.039252
 Sum of electronic and thermal Energies=              -423.030094
 Sum of electronic and thermal Enthalpies=            -423.029150
 Sum of electronic and thermal Free Energies=         -423.074607

                     E (Thermal)             CV                S
                      KCal/Mol        Cal/Mol-Kelvin    Cal/Mol-Kelvin
 Total                  105.249             32.940             95.671
 Electronic               0.000              0.000              0.000
 Translational            0.889              2.981             40.409
 Rotational               0.889              2.981             29.258
 Vibrational            103.472             26.978             26.005
 Vibration     1          0.594              1.984              5.778
 Vibration     2          0.598              1.970              4.260
 Vibration     3          0.608              1.936              3.173
 Vibration     4          0.624              1.885              2.485
 Vibration     5          0.663              1.762              1.728
 Vibration     6          0.678              1.718              1.558
 Vibration     7          0.700              1.653              1.356
 Vibration     8          0.723              1.585              1.188
 Vibration     9          0.802              1.379              0.821
 Vibration    10          0.805              1.371              0.810
 Vibration    11          0.872              1.212              0.617

 Optimization completed.
    -- Stationary point found.
 Normal termination of Gaussian 09 at Tue Jan 28 14:07:17 2020.
