 Gaussian 09, Revision D.01,
 Gaussian 09:  ES64L-G09RevD.01 24-Apr-2013

 -----------------------------
 # b3lyp 6-31G(2df,p) opt Freq
 -----------------------------

 -----
 titel
 -----
 Symbolic Z-matrix:
 Charge =  0 Multiplicity = 1

 SCF Done:  E(RB3LYP) =  -423.206926990     A.U. after   14 cycles
 Optimization completed.
    -- Stationary point found.
 Normal termination of Gaussian 09 at Tue Jan 28 14:05:56 2020.

 ----------------------------------------------------------------------
 #N Geom=AllCheck Guess=TCheck SCRF=Check GenChk RB3LYP/6-31G(2df,p) Fr
 eq
 ----------------------------------------------------------------------

 Structure from the checkpoint file:  "/scratch/puck/g09_290eb064-e3b6-4d39-a89e-2adb34425168/Gau-122784.chk"
 -----
 titel
 -----
 Charge =  0 Multiplicity = 1

                         Standard orientation:
 ---------------------------------------------------------------------
 Center     Atomic      Atomic             Coordinates (Angstroms)
 Number     Number       Type             X           Y           Z
 ---------------------------------------------------------------------
      1          6           0        2.945301   -0.934066   -0.029178
      2          6           0        2.119917    0.349537   -0.180232
      3          6           0        0.647078    0.061661   -0.451131
      4          6           0       -0.376811    1.228645   -0.450997
      5          6           0       -0.419213    1.155526    1.089347
      6          6           0       -0.269903   -0.372023    0.766174
      7          6           0       -1.568024   -0.571722   -0.002584
      8          8           0       -2.399087   -1.427582    0.013397
      9          8           0       -1.611225    0.537987   -0.819848
     10          1           0        4.002310   -0.703373    0.131942
     11          1           0        2.601363   -1.532309    0.820921
     12          1           0        2.871585   -1.559038   -0.925409
     13          1           0        2.248539    0.971962    0.711434
     14          1           0        2.512589    0.937128   -1.020474
     15          1           0        0.558299   -0.581019   -1.334013
     16          1       0       -0.284933    2.141639   -1.035893
     17          1           0        0.451917    1.581581    1.584721
     18          1           0       -1.339370    1.488510    1.573693
     19          1           0       -0.009877   -1.133657    1.496299
 ---------------------------------------------------------------------

 SCF Done:  E(RB3LYP) =  -423.206926990     A.U. after    1 cycles

 The electronic state is 1-A.
 Alpha  occ. eigenvalues --  -19.17299 -19.12386 -10.29942 -10.25805 -10.21633
 Alpha  occ. eigenvalues --  -10.21364 -10.20861 -10.20083 -10.18772  -1.09898
 Alpha  occ. eigenvalues --   -1.02316  -0.86603  -0.77952  -0.70595  -0.68667
 Alpha  occ. eigenvalues --   -0.63284  -0.57469  -0.54904  -0.51846  -0.50177
 Alpha  occ. eigenvalues --   -0.46812  -0.45143  -0.42968  -0.41617  -0.40318
 Alpha  occ. eigenvalues --   -0.39015  -0.37872  -0.37288  -0.36301  -0.35213
 Alpha  occ. eigenvalues --   -0.33531  -0.32605  -0.28247  -0.25931
 Alpha virt. eigenvalues --    0.01572   0.07931   0.08896   0.10295   0.11319
 Alpha virt. eigenvalues --    0.12077   0.13161   0.14020   0.14324   0.16034
 Alpha virt. eigenvalues --    0.16164   0.18309   0.19990   0.20225   0.21943

 Mulliken charges:
               1
     1  C   -0.378379
     2  C   -0.234765
     3  C    0.038111
     4  C    0.073188
     5  C   -0.253341
     6  C   -0.199969
     7  C    0.452081
     8  O   -0.351936
     9  O   -0.247618
    10  H    0.119246
    11  H    0.123334
    12  H    0.123312
    13  H    0.103133
    14  H    0.107017
    15  H    0.092733
    16  H    0.095401
    17  H    0.118877
    18  H    0.122000
    19  H    0.097576
 Sum of Mulliken charges =   0.00000

 Dipole moment (field-independent basis, Debye):
    X=              3.9967    Y=              2.1226    Z=              0.9064  Tot=              4.6153
 Quadrupole moment (field-independent basis, Debye-Ang):
   XX=            -61.3363   YY=            -54.1755   ZZ=            -52.1082
   XY=             -4.4213   XZ=             -2.2573   YZ=              0.3299

  Exact polarizability:  85.987   3.728  73.891  -1.383  -0.485  65.237
 Approx polarizability: 115.274  11.811 115.053  -0.453  -3.092 101.958

                      1                      2                      3
                      A                      A                      A
 Frequencies --     77.3664               125.9610               187.8294
 Red. masses --      2.1603                 4.5837                 1.8478
 Frc consts  --      0.0076                 0.0428                 0.0384
 IR Inten    --      0.2103                 1.8926                 0.9215

                      4                      5                      6
                      A                      A                      A
 Frequencies --    228.1544               314.9575               368.7506
 Red. masses --      1.7525                 2.4354                 3.4019
 Frc consts  --      0.0537                 0.1423                 0.2725
 IR Inten    --      0.0607                 0.5847                 0.1225

                      7                      8                      9
                      A                      A                      A
 Frequencies --    450.8283               493.7294               530.8888
 Red. masses --      4.7314                 2.4699                 3.3027
 Frc consts  --      0.5666                 0.3547                 0.5484
 IR Inten    --      4.3668                 1.9560                 1.3709

                     10                     11                     12
                      A                      A                      A
 Frequencies --    645.3122               720.5758               781.6935
 Red. masses --      4.8127                 2.7099                 1.8457
 Frc consts  --      1.1808                 0.8290                 0.6645
 IR Inten    --      3.5038                 5.9233                 0.6518

                     13                     14                     15
                      A                      A                      A
 Frequencies --    797.6603               863.7962               867.3644
 Red. masses --      3.5470                 2.4987                 3.0060
 Frc consts  --      1.3297                 1.0985                 1.3324
 IR Inten    --      3.5465                 4.5729                17.6907

                     16                     17                     18
                      A                      A                      A
 Frequencies --    880.8203               925.0651               931.8635
 Red. masses --      1.9599                 2.4752                 3.2223
 Frc consts  --      0.8959                 1.2480                 1.6486
 IR Inten    --     12.2630                28.3000                34.5260

                     19                     20                     21
                      A                      A                      A
 Frequencies --    963.9670              1013.7076              1022.7921
 Red. masses --      2.6332                 1.6350                 3.5406
 Frc consts  --      1.4417                 0.9899                 2.1822
 IR Inten    --     12.2901                 5.6223                23.1333

                     22                     23                     24
                      A                      A                      A
 Frequencies --   1064.6832              1087.5210              1094.4905
 Red. masses --      1.3688                 1.5806                 1.9452
 Frc consts  --      0.9142                 1.1014                 1.3729
 IR Inten    --      9.6193                22.1841                 3.9019

                     25                     26                     27
                      A                      A                      A
 Frequencies --   1124.5924              1134.1532              1159.6286
 Red. masses --      1.5309                 2.0438                 2.0586
 Frc consts  --      1.1407                 1.5489                 1.6310
 IR Inten    --      9.4427                 7.8160                14.7709

                     28                     29                     30
                      A                      A                      A
 Frequencies --   1211.5035              1237.7373              1255.3982
 Red. masses --      1.5651                 1.5266                 1.6068
 Frc consts  --      1.3535                 1.3780                 1.4920
 IR Inten    --      9.2101                 5.6219                 0.3943

                     31                     32                     33
                      A                      A                      A
 Frequencies --   1265.0543              1295.9238              1317.9328
 Red. masses --      1.6931                 1.3171                 1.4208
 Frc consts  --      1.5965                 1.3033                 1.4540
 IR Inten    --      0.1166                 5.5381                32.8697

                     34                     35                     36
                      A                      A                      A
 Frequencies --   1351.3898              1407.8156              1414.4492
 Red. masses --      1.4257                 1.3695                 1.2988
 Frc consts  --      1.5341                 1.5992                 1.5310
 IR Inten    --      7.2957                 3.1038                 0.7559

                     37                     38                     39
                      A                      A                      A
 Frequencies --   1482.5097              1498.6352              1500.8903
 Red. masses --      1.0766                 1.0422                 1.0774
 Frc consts  --      1.3941                 1.3791                 1.4300
 IR Inten    --      0.5544                 4.3089                 5.1779

                     40                     41                     42
                      A                      A                      A
 Frequencies --   1511.7804              1912.2478              3024.7698
 Red. masses --      1.0949                12.6319                 1.0651
 Frc consts  --      1.4744                27.2150                 5.7413
 IR Inten    --      5.5548               422.6997                21.8014

                     43                     44                     45
                      A                      A                      A
 Frequencies --   3036.3872              3047.2049              3069.7086
 Red. masses --      1.0358                 1.0848                 1.0935
 Frc consts  --      5.6263                 5.9345                 6.0710
 IR Inten    --     20.8308                11.1567                12.7303

                     46                     47                     48
                      A                      A                      A
 Frequencies --   3087.1822              3105.9943              3111.0140
 Red. masses --      1.0615                 1.1019                 1.1012
 Frc consts  --      5.9607                 6.2632                 6.2795
 IR Inten    --     25.2232                42.8807                29.2502

                     49                     50                     51
                      A                      A                      A
 Frequencies --   3145.9500              3155.8652              3162.8909
 Red. masses --      1.0927                 1.1061                 1.0919
 Frc consts  --      6.3716                 6.4903                 6.4360
 IR Inten    --     30.2651                18.5010                12.3830

 - Thermochemistry -
 -------------------
 Temperature   298.150 Kelvin.  Pressure   1.00000 Atm.
 Atom     1 has atomic number  6 and mass  12.00000

 Molecular mass:   126.06808 amu.
 Principal axes and moments of inertia in atomic units:
                           1         2         3
     Eigenvalues --   561.868611518.875201720.05860
           X            0.99945  -0.03214  -0.00871
           Y            0.03238   0.99906   0.02867
           Z            0.00778  -0.02894   0.99955
 This molecule is an asymmetric top.
 Rotational symmetry number  1.
 Warning -- assumption of classical behavior for rotation
           may cause significant error
 Rotational temperatures (Kelvin)      0.15415     0.05702     0.05036
 Rotational constants (GHZ):           3.21203     1.18821     1.04923
 Zero-point vibrational energy     421494.6 (Joules/Mol)
                                  100.73962 (Kcal/Mol)
 Warning -- explicit consideration of   9 degrees of freedom as
           vibrations may cause significant error
 Vibrational temperatures:    111.31   181.23   270.24   328.26   453.15
          (Kelvin)            530.55   648.64   710.37   763.83   928.46
                             1036.75  1124.68  1147.65  1242.81  1247.94
                             1267.30  1330.96  1340.74  1386.93  1458.50
                             1471.57  1531.84  1564.70  1574.73  1618.04
                             1631.79  1668.44  1743.08  1780.83  1806.24
                             1820.13  1864.54  1896.21  1944.35  2025.53
                             2035.07  2133.00  2156.20  2159.44  2175.11
                             2751.29  4351.96  4368.68  4384.24  4416.62
                             4441.76  4468.83  4476.05  4526.31  4540.58
                             4550.69

 Zero-point correction=                           0.160539 (Hartree/Particle)
 Thermal correction to Energy=                    0.168431
 Thermal correction to Enthalpy=                  0.169376
 Thermal correction to Gibbs Free Energy=         0.127793
 Sum of electronic and zero-point Energies=           -423.046388
 Sum of electronic and thermal Energies=              -423.038496
 Sum of electronic and thermal Enthalpies=            -423.037551
 Sum of electronic and thermal Free Energies=         -423.079134

                     E (Thermal)             CV                S
                      KCal/Mol        Cal/Mol-Kelvin    Cal/Mol-Kelvin
 Total                  105.692             30.526             87.517
 Electronic               0.000              0.000              0.000
 Translational            0.889              2.981             40.409
 Rotational               0.889              2.981             28.775
 Vibrational            103.915             24.564             18.333
 Vibration     1          0.599              1.964              3.957
 Vibration     2          0.611              1.927              3.007
 Vibration     3          0.633              1.857              2.249
 Vibration     4          0.651              1.798              1.893
 Vibration     5          0.702              1.645              1.336
 Vibration     6          0.741              1.536              1.085
 Vibration     7          0.810              1.359              0.793
 Vibration     8          0.849              1.264              0.674
 Vibration     9          0.886              1.182              0.585

 Optimization completed.
    -- Stationary point found.
 Normal termination of Gaussian 09 at Tue Jan 28 14:58:55 2020.
