 Gaussian 09, Revision D.01,
 Gaussian 09:  ES64L-G09RevD.01 24-Apr-2013

 -----------------------------
 # b3lyp 6-31G(2df,p) opt Freq
 -----------------------------

 -----
 titel
 -----
 Symbolic Z-matrix:
 Charge =  0 Multiplicity = 1

 SCF Done:  E(RB3LYP) =  -423.090202080     A.U. after   14 cycles
 Optimization completed.
    -- Stationary point found.
 Normal termination of Gaussian 09 at Tue Jan 28 09:18:33 2020.

 ----------------------------------------------------------------------
 #N Geom=AllCheck Guess=TCheck SCRF=Check GenChk RB3LYP/6-31G(2df,p) Fr
 eq
 ----------------------------------------------------------------------

 Structure from the checkpoint file:  "/scratch/puck/g09_3257996c-6d27-4357-9771-566e43118bb7/Gau-46294.chk"
 -----
 titel
 -----
 Charge =  0 Multiplicity = 1

                         Standard orientation:
 ---------------------------------------------------------------------
 Center     Atomic      Atomic             Coordinates (Angstroms)
 Number     Number       Type             X           Y           Z
 ---------------------------------------------------------------------
      1          6           0        2.779037   -0.124234   -0.006289
      2          8           0        1.605167    0.462815   -0.550549
      3          6           0        0.445001   -0.029934   -0.003941
      4          6           0       -0.089801    0.352509    1.353954
      5          6           0       -0.892323    0.670540    0.102743
      6          6           0       -1.309931    2.047225   -0.321173
      7          6           0       -1.568816   -0.636394   -0.444817
      8          8           0       -1.247120   -1.760934    0.391128
      9          6           0       -0.281084   -1.306847   -0.566255
     10          1           0        2.804263   -1.209783   -0.174823
     11          1           0        3.629157    0.335052   -0.515275
     12          1           0        2.854384    0.062967    1.073140
     13          1           0       -0.425069   -0.389415    2.068051
     14          1           0        0.401594    1.224972    1.775537
     15          1           0       -1.484019    2.096729   -1.402259
     16          1           0       -2.234092    2.357593    0.180773
     17          1           0       -0.533256    2.778610   -0.078988
     18          1           0       -2.471262   -0.695765   -1.042319
     19          1           0        0.101414   -2.013198   -1.293805
 ---------------------------------------------------------------------

 SCF Done:  E(RB3LYP) =  -423.090202080     A.U. after    1 cycles

 The electronic state is 1-A.
 Alpha  occ. eigenvalues --  -19.15345 -19.15322 -10.23746 -10.23659 -10.23557
 Alpha  occ. eigenvalues --  -10.22801 -10.19825 -10.18264 -10.18244  -1.07891
 Alpha  occ. eigenvalues --   -1.04483  -0.86697  -0.72300  -0.69743  -0.69130
 Alpha  occ. eigenvalues --   -0.62765  -0.56757  -0.53845  -0.51111  -0.49076
 Alpha  occ. eigenvalues --   -0.46079  -0.45108  -0.44220  -0.41644  -0.40290
 Alpha  occ. eigenvalues --   -0.39291  -0.38748  -0.36808  -0.34672  -0.33103
 Alpha  occ. eigenvalues --   -0.31132  -0.26609  -0.24533  -0.22548
 Alpha virt. eigenvalues --    0.06630   0.09484   0.10207   0.10790   0.11980
 Alpha virt. eigenvalues --    0.14248   0.14555   0.14990   0.15378   0.16926
 Alpha virt. eigenvalues --    0.17095   0.17694   0.18675   0.19250   0.20393

 Mulliken charges:
               1
     1  C   -0.256823
     2  O   -0.281343
     3  C    0.364962
     4  C   -0.397340
     5  C    0.198914
     6  C   -0.494737
     7  C   -0.026978
     8  O   -0.237377
     9  C   -0.059795
    10  H    0.113563
    11  H    0.127811
    12  H    0.116760
    13  H    0.131397
    14  H    0.112748
    15  H    0.120780
    16  H    0.122159
    17  H    0.129945
    18  H    0.105678
    19  H    0.109675
 Sum of Mulliken charges =   0.00000

 Dipole moment (field-independent basis, Debye):
    X=              0.7386    Y=              0.6412    Z=             -0.5188  Tot=              1.1072
 Quadrupole moment (field-independent basis, Debye-Ang):
   XX=            -49.0884   YY=            -54.9316   ZZ=            -53.0301
   XY=             -3.6071   XZ=              3.0541   YZ=              3.2108

  Exact polarizability:  85.276  -3.494  74.884   2.258   2.697  66.134
 Approx polarizability: 117.849  -3.897 107.666   0.001  -0.077 102.747

                      1                      2                      3
                      A                      A                      A
 Frequencies --     91.8325               131.3323               176.3976
 Red. masses --      2.7995                 2.8253                 1.0982
 Frc consts  --      0.0139                 0.0287                 0.0201
 IR Inten    --      2.2620                 2.0884                 0.2275

                      4                      5                      6
                      A                      A                      A
 Frequencies --    188.9446               223.5738               267.7875
 Red. masses --      1.0794                 2.9208                 2.6758
 Frc consts  --      0.0227                 0.0860                 0.1131
 IR Inten    --      0.2112                 1.9531                 0.9579

                      7                      8                      9
                      A                      A                      A
 Frequencies --    352.4884               365.5772               435.0769
 Red. masses --      4.1202                 4.0278                 3.0712
 Frc consts  --      0.3016                 0.3172                 0.3425
 IR Inten    --      8.0323                 5.9123                 1.0611

                     10                     11                     12
                      A                      A                      A
 Frequencies --    523.4687               543.9865               578.2436
 Red. masses --      3.9551                 3.6529                 3.0583
 Frc consts  --      0.6385                 0.6369                 0.6025
 IR Inten    --      3.7125                 3.8809                 6.9153

                     13                     14                     15
                      A                      A                      A
 Frequencies --    744.8370               781.6951               806.7181
 Red. masses --      3.7220                 2.7856                 5.1908
 Frc consts  --      1.2166                 1.0029                 1.9903
 IR Inten    --      1.6642                21.4442                 4.8933

                     16                     17                     18
                      A                      A                      A
 Frequencies --    837.8374               875.0446               887.3634
 Red. masses --      2.1261                 2.4374                 2.3580
 Frc consts  --      0.8793                 1.0996                 1.0940
 IR Inten    --      4.7470                 2.1362                22.0982

                     19                     20                     21
                      A                      A                      A
 Frequencies --    955.3522               973.4840               975.8266
 Red. masses --      1.9315                 2.5123                 1.6867
 Frc consts  --      1.0386                 1.4028                 0.9463
 IR Inten    --     11.6960                20.9987                 8.2056

                     22                     23                     24
                      A                      A                      A
 Frequencies --   1033.9021              1056.0231              1074.5420
 Red. masses --      1.3911                 3.1919                 1.3011
 Frc consts  --      0.8761                 2.0972                 0.8851
 IR Inten    --      4.8788                40.7975                 0.0174

                     25                     26                     27
                      A                      A                      A
 Frequencies --   1104.8294              1136.5311              1179.8116
 Red. masses --      1.8618                 2.2516                 1.3195
 Frc consts  --      1.3390                 1.7136                 1.0822
 IR Inten    --     23.6762                 8.5077                 3.8503

                     28                     29                     30
                      A                      A                      A
 Frequencies --   1182.7204              1196.1049              1220.1088
 Red. masses --      1.7703                 1.4227                 1.4425
 Frc consts  --      1.4590                 1.1992                 1.2652
 IR Inten    --     36.2602                 2.9609                 3.2483

                     31                     32                     33
                      A                      A                      A
 Frequencies --   1256.4348              1323.4394              1360.5135
 Red. masses --      2.4498                 2.9997                 4.5567
 Frc consts  --      2.2785                 3.0955                 4.9695
 IR Inten    --      0.7723                96.3807                40.5712

                     34                     35                     36
                      A                      A                      A
 Frequencies --   1397.2492              1418.3280              1467.9271
 Red. masses --      1.6713                 1.3808                 1.2770
 Frc consts  --      1.9224                 1.6366                 1.6213
 IR Inten    --     11.4008                 3.8949                 7.9463

                     37                     38                     39
                      A                      A                      A
 Frequencies --   1484.9956              1487.0025              1495.0141
 Red. masses --      1.0556                 1.0542                 1.1719
 Frc consts  --      1.3715                 1.3733                 1.5432
 IR Inten    --      2.3436                 3.3061                 6.4898

                     40                     41                     42
                      A                      A                      A
 Frequencies --   1503.2582              1507.6479              2997.5457
 Red. masses --      1.1720                 1.3462                 1.0344
 Frc consts  --      1.5605                 1.8028                 5.4759
 IR Inten    --     24.3380                 2.3533                53.8335

                     43                     44                     45
                      A                      A                      A
 Frequencies --   3022.7761              3054.0846              3079.1707
 Red. masses --      1.0364                 1.1038                 1.1009
 Frc consts  --      5.5793                 6.0662                 6.1499
 IR Inten    --     39.4086                38.9065                23.2883

                     46                     47                     48
                      A                      A                      A
 Frequencies --   3105.4763              3124.4140              3130.9691
 Red. masses --      1.0991                 1.0994                 1.0538
 Frc consts  --      6.2450                 6.3231                 6.0866
 IR Inten    --     14.2527                28.2393                11.5893

                     49                     50                     51
                      A                      A                      A
 Frequencies --   3177.0263              3192.4792              3226.3493
 Red. masses --      1.0871                 1.1024                 1.1153
 Frc consts  --      6.4648                 6.6196                 6.8404
 IR Inten    --     14.9167                16.9579                 3.5898

 - Thermochemistry -
 -------------------
 Temperature   298.150 Kelvin.  Pressure   1.00000 Atm.
 Atom     1 has atomic number  6 and mass  12.00000

 Molecular mass:   126.06808 amu.
 Principal axes and moments of inertia in atomic units:
                           1         2         3
     Eigenvalues --   753.121571131.070691523.55594
           X            0.99564  -0.09087   0.02098
           Y            0.09052   0.99575   0.01691
           Z           -0.02243  -0.01493   0.99964
 This molecule is an asymmetric top.
 Rotational symmetry number  1.
 Warning -- assumption of classical behavior for rotation
           may cause significant error
 Rotational temperatures (Kelvin)      0.11501     0.07658     0.05685
 Rotational constants (GHZ):           2.39635     1.59560     1.18456
 Zero-point vibrational energy     410998.3 (Joules/Mol)
                                   98.23094 (Kcal/Mol)
 Warning -- explicit consideration of  12 degrees of freedom as
           vibrations may cause significant error
 Vibrational temperatures:    132.13   188.96   253.80   271.85   321.67
          (Kelvin)            385.29   507.15   525.98   625.98   753.15
                              782.67   831.96  1071.65  1124.68  1160.69
                             1205.46  1258.99  1276.72  1374.54  1400.62
                             1404.00  1487.55  1519.38  1546.02  1589.60
                             1635.21  1697.48  1701.67  1720.93  1755.46
                             1807.73  1904.13  1957.47  2010.33  2040.66
                             2112.02  2136.57  2139.46  2150.99  2162.85
                             2169.17  4312.79  4349.10  4394.14  4430.23
                             4468.08  4495.33  4504.76  4571.03  4593.26
                             4641.99

 Zero-point correction=                           0.156541 (Hartree/Particle)
 Thermal correction to Energy=                    0.165364
 Thermal correction to Enthalpy=                  0.166308
 Thermal correction to Gibbs Free Energy=         0.123226
 Sum of electronic and zero-point Energies=           -422.933661
 Sum of electronic and thermal Energies=              -422.924838
 Sum of electronic and thermal Enthalpies=            -422.923894
 Sum of electronic and thermal Free Energies=         -422.966976

                     E (Thermal)             CV                S
                      KCal/Mol        Cal/Mol-Kelvin    Cal/Mol-Kelvin
 Total                  103.767             33.414             90.673
 Electronic               0.000              0.000              0.000
 Translational            0.889              2.981             40.409
 Rotational               0.889              2.981             28.653
 Vibrational            101.990             27.452             21.612
 Vibration     1          0.602              1.955              3.621
 Vibration     2          0.612              1.922              2.926
 Vibration     3          0.628              1.871              2.366
 Vibration     4          0.633              1.855              2.238
 Vibration     5          0.649              1.805              1.930
 Vibration     6          0.673              1.732              1.610
 Vibration     7          0.729              1.570              1.155
 Vibration     8          0.739              1.543              1.098
 Vibration     9          0.796              1.394              0.842
 Vibration    10          0.878              1.198              0.602
 Vibration    11          0.899              1.153              0.557
 Vibration    12          0.935              1.078              0.489

 Normal termination of Gaussian 09 at Tue Jan 28 10:04:55 2020.
