 Gaussian 09, Revision D.01,
 Gaussian 09:  ES64L-G09RevD.01 24-Apr-2013

 -----------------------------
 # b3lyp 6-31G(2df,p) opt Freq
 -----------------------------

 -----
 titel
 -----
 Symbolic Z-matrix:
 Charge =  0 Multiplicity = 1

 SCF Done:  E(RB3LYP) =  -423.191739170     A.U. after   14 cycles
 Optimization completed.
    -- Stationary point found.
 Normal termination of Gaussian 09 at Mon Jan 27 17:58:17 2020.

 ----------------------------------------------------------------------
 #N Geom=AllCheck Guess=TCheck SCRF=Check GenChk RB3LYP/6-31G(2df,p) Fr
 eq
 ----------------------------------------------------------------------

 Structure from the checkpoint file:  "/scratch/puck/g09_83a16c20-49f3-47b1-994f-22ff2d8736a4/Gau-180640.chk"
 -----
 titel
 -----
 Charge =  0 Multiplicity = 1

                         Standard orientation:
 ---------------------------------------------------------------------
 Center     Atomic      Atomic             Coordinates (Angstroms)
 Number     Number       Type             X           Y           Z
 ---------------------------------------------------------------------
      1          6           0        2.464040   -0.896180   -0.340492
      2          6           0        1.112315   -0.323683    0.025940
      3          6           0        0.988567    0.551032    1.270428
      4          6           0        0.850624    1.148220   -0.109917
      5          8           0       -0.366326    1.596261   -0.645076
      6          6           0       -1.523451    0.958224   -0.151674
      7          6           0       -1.430139   -0.565848   -0.023753
      8          8           0       -2.398584   -1.207263    0.305716
      9          6           0       -0.081566   -1.199276   -0.331236
     10          1           0        2.520913   -1.125784   -1.410993
     11          1           0        3.268412   -0.191705   -0.106479
     12          1           0        2.664511   -1.822522    0.211116
     13          1           0        0.113419    0.434592    1.900421
     14          1           0        1.892272    0.783196    1.824060
     15          1           0        1.646599    1.793186   -0.466487
     16          1           0       -1.820441    1.354193    0.832312
     17          1           0       -2.334185    1.192777   -0.848158
     18          1           0       -0.046662   -2.177693    0.159468
     19          1           0       -0.067894   -1.387155   -1.416149
 ---------------------------------------------------------------------

 SCF Done:  E(RB3LYP) =  -423.191739170     A.U. after    1 cycles

 The electronic state is 1-A.
 Alpha  occ. eigenvalues --  -19.15594 -19.13357 -10.27454 -10.24285 -10.24088
 Alpha  occ. eigenvalues --  -10.20732 -10.19878 -10.19221 -10.18762  -1.05623
 Alpha  occ. eigenvalues --   -1.04123  -0.87168  -0.76772  -0.72008  -0.71002
 Alpha  occ. eigenvalues --   -0.60864  -0.57884  -0.53551  -0.51869  -0.48998
 Alpha  occ. eigenvalues --   -0.47047  -0.44100  -0.43359  -0.42585  -0.41361
 Alpha  occ. eigenvalues --   -0.40171  -0.38575  -0.37861  -0.36694  -0.35787
 Alpha  occ. eigenvalues --   -0.33801  -0.28101  -0.25755  -0.22993
 Alpha virt. eigenvalues --   -0.02183   0.08212   0.09216   0.11320   0.11550
 Alpha virt. eigenvalues --    0.12172   0.13997   0.14719   0.16100   0.17422
 Alpha virt. eigenvalues --    0.17883   0.18172   0.19728   0.20222   0.23132

 Mulliken charges:
               1
     1  C   -0.464278
     2  C    0.271043
     3  C   -0.388342
     4  C    0.101957
     5  O   -0.252284
     6  C   -0.178363
     7  C    0.328274
     8  O   -0.301809
     9  C   -0.351254
    10  H    0.119590
    11  H    0.116635
    12  H    0.121081
    13  H    0.124706
    14  H    0.116665
    15  H    0.103755
    16  H    0.127700
    17  H    0.144737
    18  H    0.127746
    19  H    0.132442
 Sum of Mulliken charges =   0.00000

 Dipole moment (field-independent basis, Debye):
    X=              2.3524    Y=              0.4094    Z=             -0.0586  Tot=              2.3885
 Quadrupole moment (field-independent basis, Debye-Ang):
   XX=            -56.1826   YY=            -56.5372   ZZ=            -52.3775
   XY=             -4.1641   XZ=              1.5502   YZ=              2.5038

  Exact polarizability:  86.494  -0.875  73.448  -0.893   1.561  64.763
 Approx polarizability: 116.591   3.999 109.009  -3.382  -1.921 102.555

                      1                      2                      3
                      A                      A                      A
 Frequencies --     74.6042               164.1419               214.8861
 Red. masses --      3.6720                 2.3221                 1.1374
 Frc consts  --      0.0120                 0.0369                 0.0309
 IR Inten    --      4.3062                 2.5328                 1.2476

                      4                      5                      6
                      A                      A                      A
 Frequencies --    242.7397               293.5099               335.9922
 Red. masses --      2.6095                 2.8081                 2.2908
 Frc consts  --      0.0906                 0.1425                 0.1524
 IR Inten    --      2.0061                 5.1291                 2.5549

                      7                      8                      9
                      A                      A                      A
 Frequencies --    370.8909               462.8344               471.9695
 Red. masses --      3.3030                 4.2356                 2.5922
 Frc consts  --      0.2677                 0.5346                 0.3402
 IR Inten    --      1.9812                10.0011                 3.6710

                     10                     11                     12
                      A                      A                      A
 Frequencies --    487.2590               541.3850               607.5738
 Red. masses --      3.8753                 3.0960                 3.7467
 Frc consts  --      0.5421                 0.5346                 0.8149
 IR Inten    --      0.5444                 3.5129                 3.4000

                     13                     14                     15
                      A                      A                      A
 Frequencies --    721.8312               772.7375               806.1111
 Red. masses --      2.5816                 2.6286                 2.4021
 Frc consts  --      0.7925                 0.9248                 0.9197
 IR Inten    --      9.6510                 5.1593                 9.4475

                     16                     17                     18
                      A                      A                      A
 Frequencies --    869.9316               885.0425               928.0660
 Red. masses --      2.0122                 2.2242                 1.4689
 Frc consts  --      0.8972                 1.0265                 0.7454
 IR Inten    --      9.3125                 6.8446                 0.7171

                     19                     20                     21
                      A                      A                      A
 Frequencies --    973.4839              1005.1085              1037.5152
 Red. masses --      1.7260                 1.9345                 1.4230
 Frc consts  --      0.9637                 1.1515                 0.9025
 IR Inten    --      7.2049                 2.7667                 1.1814

                     22                     23                     24
                      A                      A                      A
 Frequencies --   1047.1277              1064.0461              1111.1121
 Red. masses --      2.2182                 2.1938                 1.5106
 Frc consts  --      1.4330                 1.4634                 1.0988
 IR Inten    --     12.4392                21.5012                 3.6457

                     25                     26                     27
                      A                      A                      A
 Frequencies --   1124.1229              1184.6819              1200.0375
 Red. masses --      1.7953                 4.5520                 1.9747
 Frc consts  --      1.3366                 3.7640                 1.6755
 IR Inten    --      5.3408                23.3295                66.4321

                     28                     29                     30
                      A                      A                      A
 Frequencies --   1227.6494              1250.1355              1271.1677
 Red. masses --      1.8242                 1.6929                 1.4433
 Frc consts  --      1.6198                 1.5588                 1.3741
 IR Inten    --      5.0933                56.5667                55.9953

                     31                     32                     33
                      A                      A                      A
 Frequencies --   1330.6374              1333.9914              1363.9570
 Red. masses --      2.1164                 1.7157                 1.4376
 Frc consts  --      2.2079                 1.7988                 1.5758
 IR Inten    --      5.8141                 1.2530                 3.8844

                     34                     35                     36
                      A                      A                      A
 Frequencies --   1414.6355              1418.9991              1452.4676
 Red. masses --      1.2757                 1.4496                 1.0854
 Frc consts  --      1.5041                 1.7198                 1.3491
 IR Inten    --      1.6799                 1.9082                 2.5770

                     37                     38                     39
                      A                      A                      A
 Frequencies --   1466.0218              1489.7080              1492.8376
 Red. masses --      1.1104                 1.0520                 1.1759
 Frc consts  --      1.4060                 1.3755                 1.5440
 IR Inten    --     10.4851                 2.0867                16.7867

                     40                     41                     42
                      A                      A                      A
 Frequencies --   1505.6559              1821.1056              2986.6740
 Red. masses --      1.2680                12.2155                 1.0702
 Frc consts  --      1.6937                23.8689                 5.6247
 IR Inten    --      7.8365               163.0286                28.8557

                     43                     44                     45
                      A                      A                      A
 Frequencies --   3000.6107              3020.7080              3074.8004
 Red. masses --      1.0661                 1.0359                 1.0935
 Frc consts  --      5.6553                 5.5691                 6.0911
 IR Inten    --     13.1066                34.3294                10.2863

                     46                     47                     48
                      A                      A                      A
 Frequencies --   3081.2560              3088.2735              3098.4497
 Red. masses --      1.1009                 1.0904                 1.1005
 Frc consts  --      6.1582                 6.1274                 6.2249
 IR Inten    --     26.7608                 9.8254                22.0359

                     49                     50                     51
                      A                      A                      A
 Frequencies --   3134.2344              3169.7968              3216.3048
 Red. masses --      1.0551                 1.0909                 1.1153
 Frc consts  --      6.1065                 6.4581                 6.7976
 IR Inten    --      7.1602                14.5463                 9.2024

 - Thermochemistry -
 -------------------
 Temperature   298.150 Kelvin.  Pressure   1.00000 Atm.
 Atom     1 has atomic number  6 and mass  12.00000

 Molecular mass:   126.06808 amu.
 Principal axes and moments of inertia in atomic units:
                           1         2         3
     Eigenvalues --   671.801041205.403261568.51999
           X            0.99823  -0.05952  -0.00091
           Y            0.05950   0.99733   0.04245
           Z           -0.00161  -0.04243   0.99910
 This molecule is an asymmetric top.
 Rotational symmetry number  1.
 Warning -- assumption of classical behavior for rotation
           may cause significant error
 Rotational temperatures (Kelvin)      0.12893     0.07185     0.05522
 Rotational constants (GHZ):           2.68642     1.49721     1.15060
 Zero-point vibrational energy     416951.3 (Joules/Mol)
                                   99.65376 (Kcal/Mol)
 Warning -- explicit consideration of  12 degrees of freedom as
           vibrations may cause significant error
 Vibrational temperatures:    107.34   236.16   309.17   349.25   422.29
          (Kelvin)            483.42   533.63   665.91   679.06   701.06
                              778.93   874.16  1038.55  1111.80  1159.81
                             1251.64  1273.38  1335.28  1400.62  1446.13
                             1492.75  1506.58  1530.92  1598.64  1617.36
                             1704.49  1726.58  1766.31  1798.66  1828.92
                             1914.49  1919.31  1962.43  2035.34  2041.62
                             2089.77  2109.28  2143.35  2147.86  2166.30
                             2620.16  4297.15  4317.20  4346.12  4423.95
                             4433.23  4443.33  4457.97  4509.46  4560.62
                             4627.54

 Zero-point correction=                           0.158808 (Hartree/Particle)
 Thermal correction to Energy=                    0.167101
 Thermal correction to Enthalpy=                  0.168045
 Thermal correction to Gibbs Free Energy=         0.126074
 Sum of electronic and zero-point Energies=           -423.032931
 Sum of electronic and thermal Energies=              -423.024638
 Sum of electronic and thermal Enthalpies=            -423.023694
 Sum of electronic and thermal Free Energies=         -423.065666

                     E (Thermal)             CV                S
                      KCal/Mol        Cal/Mol-Kelvin    Cal/Mol-Kelvin
 Total                  104.857             32.221             88.337
 Electronic               0.000              0.000              0.000
 Translational            0.889              2.981             40.409
 Rotational               0.889              2.981             28.631
 Vibrational            103.080             26.259             19.297
 Vibration     1          0.599              1.966              4.028
 Vibration     2          0.623              1.886              2.502
 Vibration     3          0.645              1.818              2.002
 Vibration     4          0.659              1.775              1.783
 Vibration     5          0.688              1.686              1.454
 Vibration     6          0.717              1.604              1.231
 Vibration     7          0.743              1.532              1.076
 Vibration     8          0.820              1.332              0.758
 Vibration     9          0.829              1.312              0.732
 Vibration    10          0.843              1.278              0.691
 Vibration    11          0.896              1.159              0.562
 Vibration    12          0.966              1.016              0.437

 Optimization completed.
    -- Stationary point found.
 Normal termination of Gaussian 09 at Mon Jan 27 18:41:34 2020.
