 Gaussian 09, Revision D.01,
 Gaussian 09:  ES64L-G09RevD.01 24-Apr-2013

 -----------------------------
 # b3lyp 6-31G(2df,p) opt Freq
 -----------------------------

 -----
 titel
 -----
 Symbolic Z-matrix:
 Charge =  0 Multiplicity = 1

 SCF Done:  E(RB3LYP) =  -423.151278409     A.U. after   15 cycles
 SCF Done:  E(RB3LYP) =  -423.151278109     A.U. after    8 cycles
 SCF Done:  E(RB3LYP) =  -423.151277892     A.U. after    7 cycles
 SCF Done:  E(RB3LYP) =  -423.151278354     A.U. after    7 cycles
 SCF Done:  E(RB3LYP) =  -423.151278292     A.U. after    7 cycles
 SCF Done:  E(RB3LYP) =  -423.151278452     A.U. after    7 cycles
 Optimization completed.
    -- Stationary point found.
 Normal termination of Gaussian 09 at Tue Jan 28 08:43:07 2020.

 ----------------------------------------------------------------------
 #N Geom=AllCheck Guess=TCheck SCRF=Check GenChk RB3LYP/6-31G(2df,p) Fr
 eq
 ----------------------------------------------------------------------

 Structure from the checkpoint file:  "/scratch/puck/g09_d01687c4-8d09-4d3f-a991-ee7060fed9e5/Gau-79700.chk"
 -----
 titel
 -----
 Charge =  0 Multiplicity = 1

                         Standard orientation:
 ---------------------------------------------------------------------
 Center     Atomic      Atomic             Coordinates (Angstroms)
 Number     Number       Type             X           Y           Z
 ---------------------------------------------------------------------
      1          6           0       -2.447103   -0.056903    1.219912
      2          8           0       -1.965224   -0.535913   -0.021011
      3          6           0       -0.568454   -0.563857   -0.139292
      4          6           0       -0.226787   -1.433679   -1.354942
      5          6           0        0.028691    0.842588   -0.301450
      6          8           0       -0.654888    1.827891   -0.415987
      7          6           0        1.569006    0.977474   -0.368253
      8          6           0        2.343483    0.013452    0.398622
      9          6           0        2.987469   -0.776030    1.036701
     10          1           0       -2.211609    1.002413    1.370686
     11          1           0       -3.532382   -0.180796    1.204441
     12          1           0       -2.037255   -0.640771    2.059088
     13          1           0       -0.107844   -1.009457    0.758833
     14          1           0        0.852857   -1.561180   -1.460995
     15          1           0       -0.682898   -2.417564   -1.224771
     16          1           0       -0.631299   -0.985105   -2.266835
     17          1           0        1.837441    0.907159   -1.432069
     18          1           0        1.799868    2.002903   -0.063009
     19          1           0        3.556189   -1.471696    1.602836
 ---------------------------------------------------------------------

 SCF Done:  E(RB3LYP) =  -423.151278452     A.U. after    1 cycles

 The electronic state is 1-A.
 Alpha  occ. eigenvalues --  -19.14161 -19.14099 -10.27873 -10.24399 -10.22427
 Alpha  occ. eigenvalues --  -10.21961 -10.19710 -10.18701 -10.18573  -1.05902
 Alpha  occ. eigenvalues --   -1.02984  -0.81150  -0.77265  -0.72201  -0.67698
 Alpha  occ. eigenvalues --   -0.64279  -0.55768  -0.53290  -0.50322  -0.49371
 Alpha  occ. eigenvalues --   -0.47315  -0.45800  -0.44377  -0.43560  -0.41933
 Alpha  occ. eigenvalues --   -0.39595  -0.38288  -0.37597  -0.35776  -0.31886
 Alpha  occ. eigenvalues --   -0.29277  -0.28121  -0.27387  -0.23573
 Alpha virt. eigenvalues --   -0.02341   0.03843   0.04403   0.08662   0.10764
 Alpha virt. eigenvalues --    0.11813   0.13304   0.14620   0.15610   0.16348
 Alpha virt. eigenvalues --    0.17044   0.17492   0.17904   0.18676   0.20587

 Mulliken charges:
               1
     1  C   -0.244326
     2  O   -0.228118
     3  C    0.029209
     4  C   -0.415457
     5  C    0.368514
     6  O   -0.293778
     7  C   -0.453811
     8  C    0.305997
     9  C   -0.452531
    10  H    0.129821
    11  H    0.128329
    12  H    0.099811
    13  H    0.094261
    14  H    0.131405
    15  H    0.136028
    16  H    0.135995
    17  H    0.161951
    18  H    0.162163
    19  H    0.204536
 Sum of Mulliken charges =   0.00000

 Dipole moment (field-independent basis, Debye):
    X=              1.7194    Y=             -1.4847    Z=              0.7027  Tot=              2.3780
 Quadrupole moment (field-independent basis, Debye-Ang):
   XX=            -53.1177   YY=            -55.2624   ZZ=            -50.1930
   XY=              0.2801   XZ=             -2.3073   YZ=             -0.6486

  Exact polarizability:  88.845  -9.262  76.622   3.853  -5.702  68.189
 Approx polarizability: 119.003 -23.350 121.785  12.706 -16.333 102.542

                      1                      2                      3
                      A                      A                      A
 Frequencies --     43.5435                58.6668               116.9006
 Red. masses --      3.0647                 3.9786                 2.5492
 Frc consts  --      0.0034                 0.0081                 0.0205
 IR Inten    --      1.6507                 1.6716                 1.7492

                      4                      5                      6
                      A                      A                      A
 Frequencies --    129.7947               186.3881               202.0693
 Red. masses --      2.1211                 1.8309                 1.2907
 Frc consts  --      0.0211                 0.0375                 0.0311
 IR Inten    --      1.6809                 4.0620                 0.3683

                      7                      8                      9
                      A                      A                      A
 Frequencies --    221.8257               264.2580               312.9821
 Red. masses --      1.8840                 3.3173                 3.8027
 Frc consts  --      0.0546                 0.1365                 0.2195
 IR Inten    --      1.3515                 1.6100                 2.3903

                     10                     11                     12
                      A                      A                      A
 Frequencies --    332.9346               384.0327               455.2253
 Red. masses --      2.7457                 4.6480                 3.2749
 Frc consts  --      0.1793                 0.4039                 0.3998
 IR Inten    --      4.3600                 3.9315                 1.1806

                     13                     14                     15
                      A                      A                      A
 Frequencies --    488.8799               567.2330               630.1929
 Red. masses --      6.7762                 3.3555                 1.2165
 Frc consts  --      0.9542                 0.6361                 0.2846
 IR Inten    --      0.7828                10.6587                43.0258

                     16                     17                     18
                      A                      A                      A
 Frequencies --    640.0265               658.8513               754.9669
 Red. masses --      2.0858                 1.6538                 3.2455
 Frc consts  --      0.5034                 0.4230                 1.0899
 IR Inten    --      2.4925                65.1498                 6.7213

                     19                     20                     21
                      A                      A                      A
 Frequencies --    882.8911               896.5062               986.6958
 Red. masses --      2.0580                 1.9665                 3.2236
 Frc consts  --      0.9452                 0.9312                 1.8491
 IR Inten    --      6.0805                 4.5815                 0.3493

                     22                     23                     24
                      A                      A                      A
 Frequencies --   1028.9775              1067.2751              1099.9421
 Red. masses --      2.2975                 2.6326                 2.6552
 Frc consts  --      1.4332                 1.7668                 1.8927
 IR Inten    --     11.7664                53.5367                64.3934

                     25                     26                     27
                      A                      A                      A
 Frequencies --   1142.6885              1174.8081              1183.3767
 Red. masses --      2.7795                 1.6923                 1.6714
 Frc consts  --      2.1384                 1.3761                 1.3790
 IR Inten    --     82.4410                29.6610                24.9634

                     28                     29                     30
                      A                      A                      A
 Frequencies --   1207.6916              1246.7153              1293.2382
 Red. masses --      1.1897                 1.8906                 1.4420
 Frc consts  --      1.0223                 1.7314                 1.4209
 IR Inten    --     16.4982                34.6439                 5.6438

                     31                     32                     33
                      A                      A                      A
 Frequencies --   1316.4771              1373.3903              1400.4038
 Red. masses --      1.4665                 1.3010                 1.2543
 Frc consts  --      1.4974                 1.4459                 1.4493
 IR Inten    --      2.1321                 5.9788                 9.3431

                     34                     35                     36
                      A                      A                      A
 Frequencies --   1439.0568              1478.2349              1484.9083
 Red. masses --      1.0851                 1.1354                 1.0516
 Frc consts  --      1.3240                 1.4618                 1.3661
 IR Inten    --     11.9544                 1.0405                 1.5531

                     37                     38                     39
                      A                      A                      A
 Frequencies --   1487.8534              1500.9343              1513.0750
 Red. masses --      1.0659                 1.0657                 1.0467
 Frc consts  --      1.3902                 1.4146                 1.4118
 IR Inten    --      5.6246                 2.1124                 5.8162

                     40                     41                     42
                      A                      A                      A
 Frequencies --   1819.2995              2237.1432              2966.8651
 Red. masses --     12.1334                 5.9372                 1.0790
 Frc consts  --     23.6614                17.5074                 5.5961
 IR Inten    --    176.9835                 1.6979                18.0276

                     43                     44                     45
                      A                      A                      A
 Frequencies --   2983.5447              3018.6549              3051.5647
 Red. masses --      1.0476                 1.0663                 1.0342
 Frc consts  --      5.4943                 5.7246                 5.6739
 IR Inten    --     61.1791                 6.6201                12.1786

                     46                     47                     48
                      A                      A                      A
 Frequencies --   3068.6143              3082.7432              3121.5805
 Red. masses --      1.0879                 1.0925                 1.1011
 Frc consts  --      6.0354                 6.1169                 6.3213
 IR Inten    --     32.9701                 1.9749                26.3429

                     49                     50                     51
                      A                      A                      A
 Frequencies --   3128.7972              3138.2520              3504.0838
 Red. masses --      1.1025                 1.1023                 1.1621
 Frc consts  --      6.3587                 6.3962                 8.4069
 IR Inten    --     12.0960                14.7616                71.2816

 - Thermochemistry -
 -------------------
 Temperature   298.150 Kelvin.  Pressure   1.00000 Atm.
 Atom     1 has atomic number  6 and mass  12.00000

 Molecular mass:   126.06808 amu.
 Principal axes and moments of inertia in atomic units:
                           1         2         3
     Eigenvalues --   765.731771686.381271867.89431
           X            0.99969   0.00484  -0.02422
           Y           -0.00354   0.99858   0.05312
           Z            0.02445  -0.05301   0.99829
 This molecule is an asymmetric top.
 Rotational symmetry number  1.
 Warning -- assumption of classical behavior for rotation
           may cause significant error
 Rotational temperatures (Kelvin)      0.11311     0.05136     0.04637
 Rotational constants (GHZ):           2.35688     1.07019     0.96619
 Zero-point vibrational energy     405384.9 (Joules/Mol)
                                   96.88930 (Kcal/Mol)
 Warning -- explicit consideration of  14 degrees of freedom as
           vibrations may cause significant error
 Vibrational temperatures:     62.65    84.41   168.19   186.75   268.17
          (Kelvin)            290.73   319.16   380.21   450.31   479.02
                              552.54   654.97   703.39   816.12   906.71
                              920.85   947.94  1086.23  1270.28  1289.87
                             1419.63  1480.47  1535.57  1582.57  1644.07
                             1690.28  1702.61  1737.60  1793.74  1860.68
                             1894.11  1976.00  2014.87  2070.48  2126.85
                             2136.45  2140.69  2159.51  2176.97  2617.56
                             3218.75  4268.65  4292.65  4343.17  4390.52
                             4415.05  4435.37  4491.25  4501.64  4515.24
                             5041.59

 Zero-point correction=                           0.154403 (Hartree/Particle)
 Thermal correction to Energy=                    0.165099
 Thermal correction to Enthalpy=                  0.166044
 Thermal correction to Gibbs Free Energy=         0.117911
 Sum of electronic and zero-point Energies=           -422.996876
 Sum of electronic and thermal Energies=              -422.986179
 Sum of electronic and thermal Enthalpies=            -422.985235
 Sum of electronic and thermal Free Energies=         -423.033367

                     E (Thermal)             CV                S
                      KCal/Mol        Cal/Mol-Kelvin    Cal/Mol-Kelvin
 Total                  103.601             37.495            101.303
 Electronic               0.000              0.000              0.000
 Translational            0.889              2.981             40.409
 Rotational               0.889              2.981             29.268
 Vibrational            101.824             31.534             31.626
 Vibration     1          0.595              1.980              5.091
 Vibration     2          0.596              1.974              4.502
 Vibration     3          0.608              1.935              3.151
 Vibration     4          0.612              1.923              2.949
 Vibration     5          0.632              1.858              2.263
 Vibration     6          0.639              1.837              2.114
 Vibration     7          0.648              1.808              1.944
 Vibration     8          0.671              1.738              1.633
 Vibration     9          0.701              1.649              1.347
 Vibration    10          0.715              1.610              1.246
 Vibration    11          0.753              1.504              1.023
 Vibration    12          0.814              1.349              0.780
 Vibration    13          0.845              1.275              0.687
 Vibration    14          0.923              1.102              0.510

 Optimization completed.
    -- Stationary point found.
 Normal termination of Gaussian 09 at Tue Jan 28 09:28:47 2020.
