 Gaussian 09, Revision D.01,
 Gaussian 09:  ES64L-G09RevD.01 24-Apr-2013

 -----------------------------
 # b3lyp 6-31G(2df,p) opt Freq
 -----------------------------

 -----
 titel
 -----
 Symbolic Z-matrix:
 Charge =  0 Multiplicity = 1

 SCF Done:  E(RB3LYP) =  -423.137986006     A.U. after   13 cycles
 Optimization completed.
    -- Stationary point found.
 Normal termination of Gaussian 09 at Mon Jan 27 22:05:05 2020.

 ----------------------------------------------------------------------
 #N Geom=AllCheck Guess=TCheck SCRF=Check GenChk RB3LYP/6-31G(2df,p) Fr
 eq
 ----------------------------------------------------------------------

 Structure from the checkpoint file:  "/scratch/puck/g09_16b593b8-822c-4b01-9e13-dd89595ea97c/Gau-15064.chk"
 -----
 titel
 -----
 Charge =  0 Multiplicity = 1

                         Standard orientation:
 ---------------------------------------------------------------------
 Center     Atomic      Atomic             Coordinates (Angstroms)
 Number     Number       Type             X           Y           Z
 ---------------------------------------------------------------------
      1          6           0        2.550890   -0.028169   -0.390598
      2          6           0        1.073247   -0.141457   -0.158662
      3          6           0        0.455850   -1.173863    0.803849
      4          6           0       -0.938984   -0.687784    1.208133
      5          6           0       -1.046830   -0.154315   -0.241849
      6          8           0       -2.255025    0.090429   -0.861537
      7          6           0        0.102742   -1.186040   -0.663911
      8          6           0        0.028154    0.958391   -0.332637
      9          8           0       -0.006467    2.072559    0.524134
     10          1           0        3.016099    0.643355    0.339952
     11          1           0        3.042804   -1.003051   -0.306128
     12          1           0        2.765698    0.368830   -1.388985
     13          1           0        1.085005   -1.878131    1.332804
     14          1           0       -1.614117   -1.535607    1.369677
     15          1           0       -1.061787    0.029391    2.030318
     16          1           0       -2.858694   -0.632835   -0.661567
     17          1           0        0.199309   -1.933890   -1.437157
     18          1           0        0.048977    1.356027   -1.352099
     19          1           0        0.118229    1.761427    1.426452
 ---------------------------------------------------------------------

 SCF Done:  E(RB3LYP) =  -423.137986006     A.U. after    1 cycles

 The electronic state is 1-A.
 Alpha  occ. eigenvalues --  -19.14742 -19.13139 -10.24050 -10.22469 -10.19585
 Alpha  occ. eigenvalues --  -10.19561 -10.18857 -10.18626 -10.18059  -1.03717
 Alpha  occ. eigenvalues --   -1.01385  -0.92182  -0.74841  -0.70759  -0.68339
 Alpha  occ. eigenvalues --   -0.60776  -0.56229  -0.55609  -0.51656  -0.47772
 Alpha  occ. eigenvalues --   -0.46164  -0.44480  -0.42318  -0.40594  -0.39148
 Alpha  occ. eigenvalues --   -0.38655  -0.38437  -0.36899  -0.34313  -0.32077
 Alpha  occ. eigenvalues --   -0.28356  -0.25773  -0.25111  -0.24822
 Alpha virt. eigenvalues --    0.06992   0.08163   0.10755   0.11225   0.12419
 Alpha virt. eigenvalues --    0.13796   0.14645   0.15286   0.16619   0.17512
 Alpha virt. eigenvalues --    0.18380   0.19032   0.19647   0.20476   0.21968

 Mulliken charges:
               1
     1  C   -0.510321
     2  C    0.298285
     3  C   -0.120951
     4  C   -0.323722
     5  C    0.357193
     6  O   -0.474801
     7  C   -0.228723
     8  C    0.070914
     9  O   -0.444901
    10  H    0.123423
    11  H    0.117846
    12  H    0.122822
    13  H    0.087705
    14  H    0.092846
    15  H    0.082212
    16  H    0.281881
    17  H    0.093673
    18  H    0.092595
    19  H    0.282025
 Sum of Mulliken charges =   0.00000

 Dipole moment (field-independent basis, Debye):
    X=              0.3773    Y=             -2.6334    Z=              0.9922  Tot=              2.8393
 Quadrupole moment (field-independent basis, Debye-Ang):
   XX=            -50.3184   YY=            -56.5543   ZZ=            -51.1192
   XY=              3.7354   XZ=             -1.1789   YZ=              1.4653

  Exact polarizability:  82.560   2.182  71.824  -2.107  -0.919  70.192
 Approx polarizability: 111.643   2.709 110.067   0.715  -0.300 110.267

                      1                      2                      3
                      A                      A                      A
 Frequencies --    165.5378               183.3777               210.8993
 Red. masses --      2.4600                 1.4675                 1.9143
 Frc consts  --      0.0397                 0.0291                 0.0502
 IR Inten    --      3.9986                 1.3537                 3.0477

                      4                      5                      6
                      A                      A                      A
 Frequencies --    252.6439               265.3235               304.4084
 Red. masses --      2.6487                 3.2038                 1.2784
 Frc consts  --      0.0996                 0.1329                 0.0698
 IR Inten    --      9.2143                 6.1917                60.9761

                      7                      8                      9
                      A                      A                      A
 Frequencies --    314.4947               366.0854               396.3452
 Red. masses --      1.3066                 2.4951                 2.8524
 Frc consts  --      0.0761                 0.1970                 0.2640
 IR Inten    --     58.9063                11.2747                34.3756

                     10                     11                     12
                      A                      A                      A
 Frequencies --    525.2948               575.2081               608.2741
 Red. masses --      2.3973                 4.1594                 3.8741
 Frc consts  --      0.3898                 0.8108                 0.8445
 IR Inten    --      5.8005                 1.5750                 0.6868

                     13                     14                     15
                      A                      A                      A
 Frequencies --    649.4407               722.0890               805.1633
 Red. masses --      3.3147                 3.8593                 3.2123
 Frc consts  --      0.8237                 1.1856                 1.2270
 IR Inten    --     17.6119                 5.5076                13.7770

                     16                     17                     18
                      A                      A                      A
 Frequencies --    831.5615               858.8963               894.4988
 Red. masses --      1.5207                 2.2496                 2.6672
 Frc consts  --      0.6196                 0.9778                 1.2574
 IR Inten    --      3.9131                 2.3796                21.2492

                     19                     20                     21
                      A                      A                      A
 Frequencies --    911.6680               940.9288               974.9531
 Red. masses --      2.4023                 1.2960                 1.8605
 Frc consts  --      1.1764                 0.6760                 1.0419
 IR Inten    --      7.6353                 6.9330                 0.7302

                     22                     23                     24
                      A                      A                      A
 Frequencies --   1022.9651              1033.8423              1067.7573
 Red. masses --      2.0627                 2.0708                 2.2234
 Frc consts  --      1.2717                 1.3040                 1.4935
 IR Inten    --      5.3895                25.4176                 1.4558

                     25                     26                     27
                      A                      A                      A
 Frequencies --   1072.0911              1106.0236              1123.4200
 Red. masses --      1.5676                 1.4875                 2.2947
 Frc consts  --      1.0615                 1.0721                 1.7063
 IR Inten    --     15.8496                12.4699                97.9927

                     28                     29                     30
                      A                      A                      A
 Frequencies --   1148.0610              1164.5012              1223.8608
 Red. masses --      1.7385                 1.8037                 1.8637
 Frc consts  --      1.3501                 1.4411                 1.6447
 IR Inten    --     51.6748                29.1202                 3.5486

                     31                     32                     33
                      A                      A                      A
 Frequencies --   1232.8771              1274.4873              1284.7181
 Red. masses --      1.5850                 1.4971                 2.9729
 Frc consts  --      1.4195                 1.4327                 2.8910
 IR Inten    --     24.1354                19.3047                 7.0898

                     34                     35                     36
                      A                      A                      A
 Frequencies --   1336.6403              1391.1751              1401.2515
 Red. masses --      2.5902                 1.6452                 1.9076
 Frc consts  --      2.7265                 1.8760                 2.2068
 IR Inten    --    171.1139                 8.8504                 6.3305

                     37                     38                     39
                      A                      A                      A
 Frequencies --   1422.5657              1456.5560              1486.4017
 Red. masses --      1.5653                 1.9208                 1.0442
 Frc consts  --      1.8663                 2.4009                 1.3593
 IR Inten    --     11.1765                58.6963                 4.0149

                     40                     41                     42
                      A                      A                      A
 Frequencies --   1498.2902              1504.0845              3012.9058
 Red. masses --      1.0602                 1.1496                 1.0601
 Frc consts  --      1.4023                 1.5323                 5.6699
 IR Inten    --      8.4488                 5.0678                69.3123

                     43                     44                     45
                      A                      A                      A
 Frequencies --   3024.9040              3071.0277              3077.0706
 Red. masses --      1.0353                 1.1017                 1.0870
 Frc consts  --      5.5814                 6.1216                 6.0640
 IR Inten    --     33.5086                33.8729                19.3261

                     46                     47                     48
                      A                      A                      A
 Frequencies --   3086.1014              3094.7393              3196.8632
 Red. masses --      1.1007                 1.1007                 1.0915
 Frc consts  --      6.1766                 6.2108                 6.5722
 IR Inten    --     23.2321                20.7282                14.2473

                     49                     50                     51
                      A                      A                      A
 Frequencies --   3227.0809              3806.9492              3819.3406
 Red. masses --      1.0983                 1.0658                 1.0655
 Frc consts  --      6.7389                 9.1010                 9.1578
 IR Inten    --      4.7034                20.5327                11.8386

 - Thermochemistry -
 -------------------
 Temperature   298.150 Kelvin.  Pressure   1.00000 Atm.
 Atom     1 has atomic number  6 and mass  12.00000

 Molecular mass:   126.06808 amu.
 Principal axes and moments of inertia in atomic units:
                           1         2         3
     Eigenvalues --   725.948071093.761611339.51551
           X            0.99944   0.01791  -0.02843
           Y           -0.01821   0.99978  -0.01059
           Z            0.02824   0.01110   0.99954
 This molecule is an asymmetric top.
 Rotational symmetry number  1.
 Warning -- assumption of classical behavior for rotation
           may cause significant error
 Rotational temperatures (Kelvin)      0.11931     0.07919     0.06466
 Rotational constants (GHZ):           2.48605     1.65003     1.34731
 Zero-point vibrational energy     415257.6 (Joules/Mol)
                                   99.24894 (Kcal/Mol)
 Warning -- explicit consideration of  12 degrees of freedom as
           vibrations may cause significant error
 Vibrational temperatures:    238.17   263.84   303.44   363.50   381.74
          (Kelvin)            437.98   452.49   526.71   570.25   755.78
                              827.60   875.17   934.40  1038.92  1158.45
                             1196.43  1235.76  1286.98  1311.69  1353.79
                             1402.74  1471.82  1487.47  1536.26  1542.50
                             1591.32  1616.35  1651.80  1675.46  1760.86
                             1773.83  1833.70  1848.42  1923.12  2001.59
                             2016.09  2046.75  2095.66  2138.60  2155.70
                             2164.04  4334.89  4352.16  4418.52  4427.21
                             4440.21  4452.63  4599.57  4643.04  5477.34
                             5495.17

 Zero-point correction=                           0.158163 (Hartree/Particle)
 Thermal correction to Energy=                    0.166659
 Thermal correction to Enthalpy=                  0.167603
 Thermal correction to Gibbs Free Energy=         0.125871
 Sum of electronic and zero-point Energies=           -422.979823
 Sum of electronic and thermal Energies=              -422.971327
 Sum of electronic and thermal Enthalpies=            -422.970383
 Sum of electronic and thermal Free Energies=         -423.012115

                     E (Thermal)             CV                S
                      KCal/Mol        Cal/Mol-Kelvin    Cal/Mol-Kelvin
 Total                  104.580             33.778             87.834
 Electronic               0.000              0.000              0.000
 Translational            0.889              2.981             40.409
 Rotational               0.889              2.981             28.455
 Vibrational            102.803             27.816             18.970
 Vibration     1          0.624              1.885              2.486
 Vibration     2          0.631              1.862              2.294
 Vibration     3          0.643              1.824              2.036
 Vibration     4          0.664              1.758              1.712
 Vibration     5          0.671              1.737              1.626
 Vibration     6          0.695              1.665              1.393
 Vibration     7          0.702              1.646              1.339
 Vibration     8          0.739              1.542              1.096
 Vibration     9          0.763              1.478              0.976
 Vibration    10          0.880              1.194              0.598
 Vibration    11          0.932              1.085              0.494
 Vibration    12          0.967              1.014              0.436

 Normal termination of Gaussian 09 at Mon Jan 27 22:56:32 2020.
