 Gaussian 09, Revision D.01,
 Gaussian 09:  ES64L-G09RevD.01 24-Apr-2013

 -----------------------------
 # b3lyp 6-31G(2df,p) opt Freq
 -----------------------------

 -----
 titel
 -----
 Symbolic Z-matrix:
 Charge =  0 Multiplicity = 1

 SCF Done:  E(RB3LYP) =  -423.148223073     A.U. after   14 cycles
 Optimization completed.
    -- Stationary point found.
 Normal termination of Gaussian 09 at Tue Jan 28 08:13:00 2020.

 ----------------------------------------------------------------------
 #N Geom=AllCheck Guess=TCheck SCRF=Check GenChk RB3LYP/6-31G(2df,p) Fr
 eq
 ----------------------------------------------------------------------

 Structure from the checkpoint file:  "/scratch/puck/g09_1ce35791-ec2b-4c56-9813-f07f676a5180/Gau-14248.chk"
 -----
 titel
 -----
 Charge =  0 Multiplicity = 1

                         Standard orientation:
 ---------------------------------------------------------------------
 Center     Atomic      Atomic             Coordinates (Angstroms)
 Number     Number       Type             X           Y           Z
 ---------------------------------------------------------------------
      1          6           0       -2.308683   -1.572254   -0.177239
      2          6           0       -1.361350   -0.498370    0.330312
      3          6           0       -1.633066    0.877006   -0.278743
      4          8           0       -0.664161    1.822012    0.148509
      5          6           0        0.643943    1.407723   -0.189615
      6          6           0        0.941492    0.032674    0.434327
      7          8           0       -0.034194   -0.912041    0.000773
      8          6           0        2.267975   -0.445793    0.068105
      9          6           0        3.377193   -0.788750   -0.239287
     10          1           0       -3.342199   -1.332893    0.091096
     11          1           0       -2.240779   -1.661092   -1.265744
     12          1           0       -2.050619   -2.539593    0.260707
     13          1           0       -1.442734   -0.406317    1.427136
     14          1           0       -1.629249    0.794432   -1.378516
     15          1           0       -2.605813    1.261262    0.041978
     16          1           0        0.766481    1.333035   -1.281355
     17          1           0        1.332523    2.163153    0.197091
     18          1           0        0.878859    0.141027    1.531041
     19          1           0        4.355345   -1.106202   -0.504853
 ---------------------------------------------------------------------

 SCF Done:  E(RB3LYP) =  -423.148223073     A.U. after    1 cycles

 The electronic state is 1-A.
 Alpha  occ. eigenvalues --  -19.14719 -19.14640 -10.25700 -10.23667 -10.23352
 Alpha  occ. eigenvalues --  -10.22965 -10.18576 -10.18133 -10.18109  -1.05935
 Alpha  occ. eigenvalues --   -1.02140  -0.81270  -0.75508  -0.72082  -0.68686
 Alpha  occ. eigenvalues --   -0.64051  -0.58282  -0.53947  -0.50185  -0.49913
 Alpha  occ. eigenvalues --   -0.49050  -0.47900  -0.45666  -0.40864  -0.39339
 Alpha  occ. eigenvalues --   -0.39056  -0.37461  -0.36952  -0.35305  -0.30798
 Alpha  occ. eigenvalues --   -0.28978  -0.28044  -0.27406  -0.23769
 Alpha virt. eigenvalues --    0.03197   0.04916   0.09493   0.10492   0.11515
 Alpha virt. eigenvalues --    0.12369   0.13458   0.15365   0.15666   0.16272
 Alpha virt. eigenvalues --    0.17368   0.18159   0.18555   0.20380   0.22252

 Mulliken charges:
               1
     1  C   -0.410721
     2  C    0.134971
     3  C   -0.083603
     4  O   -0.252479
     5  C   -0.093855
     6  C   -0.070458
     7  O   -0.278168
     8  C    0.294079
     9  C   -0.413757
    10  H    0.118108
    11  H    0.128083
    12  H    0.132219
    13  H    0.072691
    14  H    0.092146
    15  H    0.109018
    16  H    0.102933
    17  H    0.119004
    18  H    0.100544
    19  H    0.199245
 Sum of Mulliken charges =   0.00000

 Dipole moment (field-independent basis, Debye):
    X=             -0.4351    Y=             -0.0806    Z=             -0.0018  Tot=              0.4425
 Quadrupole moment (field-independent basis, Debye-Ang):
   XX=            -44.9898   YY=            -57.3644   ZZ=            -52.7694
   XY=              1.3105   XZ=             -0.7877   YZ=             -0.6996

  Exact polarizability: 106.201  -3.354  68.659  -3.968   0.985  61.264
 Approx polarizability: 143.043 -10.990  97.318 -10.686   5.473  95.635

                      1                      2                      3
                      A                      A                      A
 Frequencies --    111.7349               131.0245               160.1763
 Red. masses --      3.3279                 3.6511                 2.5916
 Frc consts  --      0.0245                 0.0369                 0.0392
 IR Inten    --      1.0049                 0.5200                 1.2858

                      4                      5                      6
                      A                      A                      A
 Frequencies --    203.7384               273.2715               298.7953
 Red. masses --      1.0893                 3.6253                 2.7980
 Frc consts  --      0.0266                 0.1595                 0.1472
 IR Inten    --      0.0104                 3.2629                 0.4209

                      7                      8                      9
                      A                      A                      A
 Frequencies --    345.1428               420.1777               445.6218
 Red. masses --      2.8589                 5.3605                 4.2253
 Frc consts  --      0.2007                 0.5576                 0.4944
 IR Inten    --      9.3450                 0.1567                 0.3272

                     10                     11                     12
                      A                      A                      A
 Frequencies --    469.8978               519.1435               548.9543
 Red. masses --      3.1144                 4.2893                 4.1565
 Frc consts  --      0.4052                 0.6811                 0.7380
 IR Inten    --      1.8126                 5.3742                 0.9439

                     13                     14                     15
                      A                      A                      A
 Frequencies --    592.7931               630.2998               677.7930
 Red. masses --      2.6096                 1.2270                 1.2593
 Frc consts  --      0.5403                 0.2872                 0.3409
 IR Inten    --      8.0017                48.1100                33.5635

                     16                     17                     18
                      A                      A                      A
 Frequencies --    861.0826               879.7162               932.4473
 Red. masses --      2.3302                 2.3517                 2.0901
 Frc consts  --      1.0180                 1.0723                 1.0707
 IR Inten    --     10.1493                18.7493                13.9783

                     19                     20                     21
                      A                      A                      A
 Frequencies --    959.3800               972.8910              1022.1624
 Red. masses --      1.8676                 3.2352                 2.4010
 Frc consts  --      1.0128                 1.8042                 1.4780
 IR Inten    --      4.6174                20.7544                 6.5648

                     22                     23                     24
                      A                      A                      A
 Frequencies --   1063.8601              1114.8865              1131.3204
 Red. masses --      4.0951                 3.5607                 2.4911
 Frc consts  --      2.7308                 2.6076                 1.8785
 IR Inten    --      2.0199               171.2477                43.0132

                     25                     26                     27
                      A                      A                      A
 Frequencies --   1139.8781              1161.4851              1176.5849
 Red. masses --      5.0274                 2.4194                 2.1688
 Frc consts  --      3.8487                 1.9231                 1.7689
 IR Inten    --     31.7575                26.2674                41.5712

                     28                     29                     30
                      A                      A                      A
 Frequencies --   1252.7271              1303.1590              1323.4044
 Red. masses --      1.1785                 1.3125                 1.2541
 Frc consts  --      1.0897                 1.3132                 1.2941
 IR Inten    --     21.6634                 4.4041                 5.1652

                     31                     32                     33
                      A                      A                      A
 Frequencies --   1337.9873              1344.6444              1387.3805
 Red. masses --      1.2525                 1.2166                 1.3037
 Frc consts  --      1.3211                 1.2960                 1.4785
 IR Inten    --     14.0582                59.8229                 5.3599

                     34                     35                     36
                      A                      A                      A
 Frequencies --   1401.2620              1414.6345              1428.1054
 Red. masses --      1.2532                 1.2796                 1.5396
 Frc consts  --      1.4499                 1.5087                 1.8500
 IR Inten    --      2.3032                11.9242                 1.6909

                     37                     38                     39
                      A                      A                      A
 Frequencies --   1477.4782              1483.0459              1491.9242
 Red. masses --      1.0802                 1.0572                 1.1057
 Frc consts  --      1.3893                 1.3700                 1.4500
 IR Inten    --      0.5507                 1.3414                 7.7071

                     40                     41                     42
                      A                      A                      A
 Frequencies --   1499.7819              2244.9580              2953.5771
 Red. masses --      1.0551                 5.9070                 1.0801
 Frc consts  --      1.3984                17.5402                 5.5513
 IR Inten    --      1.7756                 1.2166                 7.7874

                     43                     44                     45
                      A                      A                      A
 Frequencies --   2958.2201              2974.9523              2992.9123
 Red. masses --      1.0791                 1.0710                 1.0683
 Frc consts  --      5.5639                 5.5848                 5.6378
 IR Inten    --     34.8541                57.9957                55.7711

                     46                     47                     48
                      A                      A                      A
 Frequencies --   3044.0272              3089.2611              3103.8482
 Red. masses --      1.0352                 1.0942                 1.0964
 Frc consts  --      5.6518                 6.1526                 6.2234
 IR Inten    --     16.2948                28.7290                23.3210

                     49                     50                     51
                      A                      A                      A
 Frequencies --   3116.8007              3126.0753              3503.8757
 Red. masses --      1.1017                 1.1017                 1.1635
 Frc consts  --      6.3054                 6.3431                 8.4161
 IR Inten    --     27.1451                15.7423                66.7584

 - Thermochemistry -
 -------------------
 Temperature   298.150 Kelvin.  Pressure   1.00000 Atm.
 Atom     1 has atomic number  6 and mass  12.00000

 Molecular mass:   126.06808 amu.
 Principal axes and moments of inertia in atomic units:
                           1         2         3
     Eigenvalues --   639.937191465.360271988.36251
           X            0.99931   0.03720   0.00131
           Y           -0.03719   0.99929  -0.00533
           Z           -0.00150   0.00528   0.99998
 This molecule is an asymmetric top.
 Rotational symmetry number  1.
 Warning -- assumption of classical behavior for rotation
           may cause significant error
 Rotational temperatures (Kelvin)      0.13535     0.05911     0.04356
 Rotational constants (GHZ):           2.82018     1.23160     0.90765
 Zero-point vibrational energy     415692.2 (Joules/Mol)
                                   99.35281 (Kcal/Mol)
 Warning -- explicit consideration of  13 degrees of freedom as
           vibrations may cause significant error
 Vibrational temperatures:    160.76   188.51   230.46   293.13   393.18
          (Kelvin)            429.90   496.58   604.54   641.15   676.08
                              746.93   789.82   852.90   906.86   975.19
                             1238.90  1265.71  1341.58  1380.33  1399.77
                             1470.66  1530.66  1604.07  1627.72  1640.03
                             1671.12  1692.84  1802.39  1874.95  1904.08
                             1925.06  1934.64  1996.13  2016.10  2035.34
                             2054.72  2125.76  2133.77  2146.54  2157.85
                             3229.99  4249.53  4256.21  4280.29  4306.13
                             4379.67  4444.75  4465.74  4484.38  4497.72
                             5041.29

 Zero-point correction=                           0.158329 (Hartree/Particle)
 Thermal correction to Energy=                    0.167133
 Thermal correction to Enthalpy=                  0.168078
 Thermal correction to Gibbs Free Energy=         0.125060
 Sum of electronic and zero-point Energies=           -422.989894
 Sum of electronic and thermal Energies=              -422.981090
 Sum of electronic and thermal Enthalpies=            -422.980145
 Sum of electronic and thermal Free Energies=         -423.023163

                     E (Thermal)             CV                S
                      KCal/Mol        Cal/Mol-Kelvin    Cal/Mol-Kelvin
 Total                  104.878             33.590             90.538
 Electronic               0.000              0.000              0.000
 Translational            0.889              2.981             40.409
 Rotational               0.889              2.981             29.013
 Vibrational            103.100             27.628             21.117
 Vibration     1          0.607              1.940              3.239
 Vibration     2          0.612              1.922              2.931
 Vibration     3          0.622              1.891              2.548
 Vibration     4          0.639              1.835              2.099
 Vibration     5          0.676              1.723              1.575
 Vibration     6          0.692              1.676              1.424
 Vibration     7          0.724              1.585              1.188
 Vibration     8          0.783              1.426              0.891
 Vibration     9          0.805              1.371              0.809
 Vibration    10          0.827              1.317              0.738
 Vibration    11          0.874              1.208              0.612
 Vibration    12          0.904              1.142              0.546
 Vibration    13          0.950              1.047              0.462

 Normal termination of Gaussian 09 at Tue Jan 28 08:53:17 2020.
