 Gaussian 09, Revision D.01,
 Gaussian 09:  ES64L-G09RevD.01 24-Apr-2013

 -----------------------------
 # b3lyp 6-31G(2df,p) opt Freq
 -----------------------------

 -----
 titel
 -----
 Symbolic Z-matrix:
 Charge =  0 Multiplicity = 1

 SCF Done:  E(RB3LYP) =  -423.152227617     A.U. after   14 cycles
 Optimization completed.
    -- Stationary point found.
 Normal termination of Gaussian 09 at Mon Jan 27 16:09:15 2020.

 ----------------------------------------------------------------------
 #N Geom=AllCheck Guess=TCheck SCRF=Check GenChk RB3LYP/6-31G(2df,p) Fr
 eq
 ----------------------------------------------------------------------

 Structure from the checkpoint file:  "/scratch/puck/g09_3f0199fa-8ad9-413f-ac52-074e1142a0ad/Gau-165063.chk"
 -----
 titel
 -----
 Charge =  0 Multiplicity = 1

                         Standard orientation:
 ---------------------------------------------------------------------
 Center     Atomic      Atomic             Coordinates (Angstroms)
 Number     Number       Type             X           Y           Z
 ---------------------------------------------------------------------
      1          6           0       -1.947318   -0.000006   -1.155852
      2          6           0       -0.898806   -0.000001   -0.032303
      3          6           0       -1.552537    0.000005    1.356174
      4          6           0        0.034197    1.208916   -0.228862
      5          8           0        1.103943    1.333245    0.707370
      6          6           0        1.394874    0.760053   -0.568876
      7          6           0        1.394875   -0.760056   -0.568871
      8          8           0        1.103946   -1.333241    0.707377
      9          6           0        0.034197   -1.208916   -0.228855
     10          1           0       -2.589509    0.884197   -1.088496
     11          1           0       -1.477550   -0.000012   -2.145750
     12          1           0       -2.589510   -0.884207   -1.088485
     13          1           0       -2.183625    0.884926    1.490825
     14          1           0       -2.183620   -0.884918    1.490835
     15          1           0       -0.782572    0.000011    2.130137
     16          1           0       -0.391456    2.151431   -0.571507
     17          1           0        2.084642    1.313273   -1.199689
     18          1           0        2.084643   -1.313275   -1.199685
     19          1           0       -0.391452   -2.151434   -0.571495
 ---------------------------------------------------------------------

 SCF Done:  E(RB3LYP) =  -423.152227617     A.U. after    1 cycles

 The electronic state is 1-A.
 Alpha  occ. eigenvalues --  -19.15268 -19.15267 -10.23988 -10.23967 -10.23571
 Alpha  occ. eigenvalues --  -10.23571 -10.20495 -10.18634 -10.17317  -1.09128
 Alpha  occ. eigenvalues --   -1.05918  -0.81834  -0.72639  -0.69027  -0.65825
 Alpha  occ. eigenvalues --   -0.64602  -0.58527  -0.56469  -0.52552  -0.47646
 Alpha  occ. eigenvalues --   -0.45753  -0.44220  -0.43641  -0.42066  -0.39701
 Alpha  occ. eigenvalues --   -0.39328  -0.37119  -0.36320  -0.36222  -0.34089
 Alpha  occ. eigenvalues --   -0.31935  -0.27910  -0.26691  -0.25825
 Alpha virt. eigenvalues --    0.05713   0.08975   0.09530   0.11246   0.11862
 Alpha virt. eigenvalues --    0.13648   0.14047   0.15040   0.16306   0.16771
 Alpha virt. eigenvalues --    0.18147   0.19308   0.19418   0.21375   0.21443

 Mulliken charges:
               1
     1  C   -0.437670
     2  C    0.210771
     3  C   -0.423115
     4  C    0.010983
     5  O   -0.241548
     6  C    0.000143
     7  C    0.000144
     8  O   -0.241548
     9  C    0.010984
    10  H    0.120561
    11  H    0.117847
    12  H    0.120561
    13  H    0.110673
    14  H    0.110673
    15  H    0.151634
    16  H    0.090881
    17  H    0.098573
    18  H    0.098572
    19  H    0.090881
 Sum of Mulliken charges =   0.00000

 Dipole moment (field-independent basis, Debye):
    X=             -1.3637    Y=              0.0000    Z=             -2.8266  Tot=              3.1384
 Quadrupole moment (field-independent basis, Debye-Ang):
   XX=            -51.6001   YY=            -53.4092   ZZ=            -54.4290
   XY=              0.0000   XZ=             -4.4051   YZ=              0.0000

  Exact polarizability:  82.978   0.000  70.795  -4.434   0.000  65.661
 Approx polarizability: 118.311   0.000 104.145  -2.562   0.000 103.263

                      1                      2                      3
                      A                      A                      A
 Frequencies --    149.2813               196.3958               226.3150
 Red. masses --      3.4812                 2.6990                 1.0809
 Frc consts  --      0.0457                 0.0613                 0.0326
 IR Inten    --      3.8848                 2.3659                 0.0366

                      4                      5                      6
                      A                      A                      A
 Frequencies --    248.4467               308.7960               328.0072
 Red. masses --      1.0409                 2.8741                 2.9986
 Frc consts  --      0.0379                 0.1615                 0.1901
 IR Inten    --      0.1894                 0.0136                 0.0011

                      7                      8                      9
                      A                      A                      A
 Frequencies --    329.0453               417.5637               542.3091
 Red. masses --      5.0517                 2.9510                 4.3322
 Frc consts  --      0.3223                 0.3032                 0.7507
 IR Inten    --      1.1866                 0.9647                 9.1224

                     10                     11                     12
                      A                      A                      A
 Frequencies --    569.1067               580.0156               721.5677
 Red. masses --      5.8018                 3.7347                 4.8042
 Frc consts  --      1.1071                 0.7403                 1.4738
 IR Inten    --     11.9050                 1.0773                11.7795

                     13                     14                     15
                      A                      A                      A
 Frequencies --    813.0265               824.3324               854.5794
 Red. masses --      3.4356                 3.8305                 2.0023
 Frc consts  --      1.3380                 1.5336                 0.8616
 IR Inten    --     12.4922                 1.0461                 1.0317

                     16                     17                     18
                      A                      A                      A
 Frequencies --    882.4446               893.5154               935.7069
 Red. masses --      2.5023                 4.5625                 2.5310
 Frc consts  --      1.1480                 2.1462                 1.3057
 IR Inten    --     36.5525                 0.0493                 0.5011

                     19                     20                     21
                      A                      A                      A
 Frequencies --    952.0775               952.9296               962.4183
 Red. masses --      1.7432                 2.0092                 2.5994
 Frc consts  --      0.9310                 1.0750                 1.4186
 IR Inten    --      4.8883                17.1440                10.3074

                     22                     23                     24
                      A                      A                      A
 Frequencies --   1017.0813              1050.2946              1053.3430
 Red. masses --      1.3373                 1.6558                 1.9107
 Frc consts  --      0.8151                 1.0762                 1.2491
 IR Inten    --      6.6139                 2.6708                 6.3846

                     25                     26                     27
                      A                      A                      A
 Frequencies --   1092.6465              1107.9070              1199.0541
 Red. masses --      1.3160                 1.2863                 3.0827
 Frc consts  --      0.9257                 0.9303                 2.6113
 IR Inten    --      0.2817                 0.8886                 4.1500

                     28                     29                     30
                      A                      A                      A
 Frequencies --   1232.6665              1240.6544              1259.5894
 Red. masses --      2.4768                 1.4433                 2.6841
 Frc consts  --      2.2173                 1.3089                 2.5090
 IR Inten    --      2.9210                 0.4346                 0.5496

                     31                     32                     33
                      A                      A                      A
 Frequencies --   1272.5824              1294.6829              1345.5459
 Red. masses --      1.5695                 1.2054                 1.7006
 Frc consts  --      1.4975                 1.1905                 1.8141
 IR Inten    --     10.1185                 0.3537                 1.8481

                     34                     35                     36
                      A                      A                      A
 Frequencies --   1394.8538              1405.0200              1422.9924
 Red. masses --      1.2293                 1.6937                 3.1404
 Frc consts  --      1.4092                 1.9699                 3.7467
 IR Inten    --      6.6572                 3.5968                 5.1962

                     37                     38                     39
                      A                      A                      A
 Frequencies --   1434.1693              1487.2717              1488.9375
 Red. masses --      1.7959                 1.0505                 1.0466
 Frc consts  --      2.1764                 1.3691                 1.3671
 IR Inten    --     12.6901                 4.0457                 0.0174

                     40                     41                     42
                      A                      A                      A
 Frequencies --   1503.0158              1511.2467              3028.1807
 Red. masses --      1.0652                 1.0571                 1.0348
 Frc consts  --      1.4178                 1.4224                 5.5909
 IR Inten    --      4.5133                11.1560                18.9757

                     43                     44                     45
                      A                      A                      A
 Frequencies --   3035.1109              3096.1345              3096.8840
 Red. masses --      1.0368                 1.1017                 1.1012
 Frc consts  --      5.6272                 6.2226                 6.2224
 IR Inten    --     26.0758                11.6179                24.4503

                     46                     47                     48
                      A                      A                      A
 Frequencies --   3102.4343              3114.1091              3117.5889
 Red. masses --      1.1012                 1.0893                 1.0894
 Frc consts  --      6.2447                 6.2239                 6.2386
 IR Inten    --     18.5111                45.9454                17.8701

                     49                     50                     51
                      A                      A                      A
 Frequencies --   3136.6972              3151.6312              3165.7343
 Red. masses --      1.0997                 1.0901                 1.0952
 Frc consts  --      6.3748                 6.3792                 6.4669
 IR Inten    --     10.2441                15.6209                35.2307

 - Thermochemistry -
 -------------------
 Temperature   298.150 Kelvin.  Pressure   1.00000 Atm.
 Atom     1 has atomic number  6 and mass  12.00000

 Molecular mass:   126.06808 amu.
 Principal axes and moments of inertia in atomic units:
                           1         2         3
     Eigenvalues --   729.847651024.973181164.77540
           X            0.99954   0.00000  -0.03044
           Y            0.00000   1.00000   0.00000
           Z            0.03044   0.00000   0.99954
 This molecule is an asymmetric top.
 Rotational symmetry number  1.
 Warning -- assumption of classical behavior for rotation
           may cause significant error
 Rotational temperatures (Kelvin)      0.11867     0.08450     0.07436
 Rotational constants (GHZ):           2.47276     1.76077     1.54943
 Zero-point vibrational energy     415977.1 (Joules/Mol)
                                   99.42091 (Kcal/Mol)
 Warning -- explicit consideration of  11 degrees of freedom as
           vibrations may cause significant error
 Vibrational temperatures:    214.78   282.57   325.62   357.46   444.29
          (Kelvin)            471.93   473.42   600.78   780.26   818.82
                              834.51  1038.17  1169.76  1186.03  1229.55
                             1269.64  1285.57  1346.27  1369.83  1371.05
                             1384.70  1463.35  1511.14  1515.52  1572.07
                             1594.03  1725.17  1773.53  1785.02  1812.27
                             1830.96  1862.76  1935.94  2006.88  2021.51
                             2047.37  2063.45  2139.85  2142.25  2162.50
                             2174.34  4356.87  4366.84  4454.64  4455.72
                             4463.71  4480.50  4485.51  4513.00  4534.49
                             4554.78

 Zero-point correction=                           0.158437 (Hartree/Particle)
 Thermal correction to Energy=                    0.166398
 Thermal correction to Enthalpy=                  0.167342
 Thermal correction to Gibbs Free Energy=         0.126572
 Sum of electronic and zero-point Energies=           -422.993790
 Sum of electronic and thermal Energies=              -422.985830
 Sum of electronic and thermal Enthalpies=            -422.984886
 Sum of electronic and thermal Free Energies=         -423.025655

                     E (Thermal)             CV                S
                      KCal/Mol        Cal/Mol-Kelvin    Cal/Mol-Kelvin
 Total                  104.416             31.749             85.807
 Electronic               0.000              0.000              0.000
 Translational            0.889              2.981             40.409
 Rotational               0.889              2.981             28.257
 Vibrational            102.639             25.788             17.141
 Vibration     1          0.618              1.903              2.681
 Vibration     2          0.636              1.845              2.167
 Vibration     3          0.650              1.801              1.908
 Vibration     4          0.662              1.765              1.742
 Vibration     5          0.698              1.657              1.369
 Vibration     6          0.711              1.620              1.270
 Vibration     7          0.712              1.617              1.265
 Vibration     8          0.781              1.432              0.900
 Vibration     9          0.897              1.157              0.560
 Vibration    10          0.925              1.098              0.506
 Vibration    11          0.937              1.075              0.485

 Optimization completed.
    -- Stationary point found.
 Normal termination of Gaussian 09 at Mon Jan 27 16:55:14 2020.
