 Gaussian 09, Revision D.01,
 Gaussian 09:  ES64L-G09RevD.01 24-Apr-2013

 -----------------------------
 # b3lyp 6-31G(2df,p) opt Freq
 -----------------------------

 -----
 titel
 -----
 Symbolic Z-matrix:
 Charge =  0 Multiplicity = 1

 SCF Done:  E(RB3LYP) =  -423.153545516     A.U. after   13 cycles
 Optimization completed.
    -- Stationary point found.
 Normal termination of Gaussian 09 at Mon Jan 27 12:03:07 2020.

 ----------------------------------------------------------------------
 #N Geom=AllCheck Guess=TCheck SCRF=Check GenChk RB3LYP/6-31G(2df,p) Fr
 eq
 ----------------------------------------------------------------------

 Structure from the checkpoint file:  "/scratch/puck/g09_05715e46-7164-4954-baee-1305ac6ac8f9/Gau-97060.chk"
 -----
 titel
 -----
 Charge =  0 Multiplicity = 1

                         Standard orientation:
 ---------------------------------------------------------------------
 Center     Atomic      Atomic             Coordinates (Angstroms)
 Number     Number       Type             X           Y           Z
 ---------------------------------------------------------------------
      1          6           0        2.210817    0.484848   -0.551223
      2          6           0        2.102587   -0.192255    0.804402
      3          6           0        0.874280    0.061788   -0.038039
      4          8           0        0.320732   -1.056019   -0.697530
      5          6           0       -0.749571   -1.589435    0.041993
      6          8           0       -1.872301   -0.743986    0.023485
      7          6           0       -1.590039    0.553154    0.480554
      8          6           0       -1.203942    1.580789   -0.549106
      9          6           0       -0.162095    1.047127    0.414039
     10          1           0        2.432832    1.545636   -0.588609
     11          1           0        2.622706   -0.098701   -1.366786
     12          1           0        2.446187   -1.217990    0.873464
     13          1           0        2.257302    0.405172    1.696734
     14          1           0       -1.052041   -2.517583   -0.445945
     15          1           0       -0.425489   -1.781853    1.078733
     16          1           0       -2.217610    0.846876    1.317761
     17          1           0       -1.163068    1.225686   -1.572641
     18          1           0       -1.542449    2.603158   -0.422820
     19          1           0        0.161956    1.713547    1.206755
 ---------------------------------------------------------------------

 SCF Done:  E(RB3LYP) =  -423.153545516     A.U. after    1 cycles

 The electronic state is 1-A.
 Alpha  occ. eigenvalues --  -19.14928 -19.14550 -10.27191 -10.24475 -10.23802
 Alpha  occ. eigenvalues --  -10.19812 -10.18581 -10.18543 -10.18302  -1.07835
 Alpha  occ. eigenvalues --   -1.01231  -0.86895  -0.83412  -0.68726  -0.64611
 Alpha  occ. eigenvalues --   -0.61238  -0.59146  -0.54155  -0.52203  -0.51687
 Alpha  occ. eigenvalues --   -0.49005  -0.45880  -0.45701  -0.42682  -0.39849
 Alpha  occ. eigenvalues --   -0.37516  -0.37285  -0.35598  -0.34268  -0.32535
 Alpha  occ. eigenvalues --   -0.30627  -0.26556  -0.25489  -0.24243
 Alpha virt. eigenvalues --    0.08051   0.10300   0.11350   0.11822   0.12364
 Alpha virt. eigenvalues --    0.12992   0.13982   0.15785   0.17019   0.17597
 Alpha virt. eigenvalues --    0.18158   0.19595   0.20270   0.21121   0.22796

 Mulliken charges:
               1
     1  C   -0.329163
     2  C   -0.331014
     3  C    0.436212
     4  O   -0.278787
     5  C    0.001847
     6  O   -0.247351
     7  C    0.094211
     8  C   -0.320548
     9  C   -0.130465
    10  H    0.116271
    11  H    0.126477
    12  H    0.120129
    13  H    0.111963
    14  H    0.116190
    15  H    0.082291
    16  H    0.096786
    17  H    0.132347
    18  H    0.109938
    19  H    0.092664
 Sum of Mulliken charges =   0.00000

 Dipole moment (field-independent basis, Debye):
    X=              0.8172    Y=              0.8861    Z=              1.2791  Tot=              1.7576
 Quadrupole moment (field-independent basis, Debye-Ang):
   XX=            -55.8783   YY=            -49.4655   ZZ=            -52.6973
   XY=             -0.9826   XZ=             -0.6024   YZ=              0.1091

  Exact polarizability:  82.088  -0.908  77.233   0.632  -1.640  65.984
 Approx polarizability: 111.245   1.199 108.402   1.460  -1.433 102.249

                      1                      2                      3
                      A                      A                      A
 Frequencies --    102.6130               188.5287               273.7003
 Red. masses --      4.3990                 2.7334                 2.4865
 Frc consts  --      0.0273                 0.0572                 0.1097
 IR Inten    --      1.1902                 0.7283                 1.2839

                      4                      5                      6
                      A                      A                      A
 Frequencies --    294.1464               345.7869               400.8792
 Red. masses --      2.2897                 2.5990                 3.6837
 Frc consts  --      0.1167                 0.1831                 0.3488
 IR Inten    --      1.3307                 1.2452                 3.6292

                      7                      8                      9
                      A                      A                      A
 Frequencies --    460.6859               532.2420               563.6036
 Red. masses --      3.1648                 4.5117                 3.8638
 Frc consts  --      0.3957                 0.7530                 0.7231
 IR Inten    --      4.9501                 0.6417                 3.0793

                     10                     11                     12
                      A                      A                      A
 Frequencies --    674.7806               753.2247               768.0557
 Red. masses --      3.3991                 2.2759                 1.1300
 Frc consts  --      0.9119                 0.7608                 0.3927
 IR Inten    --      3.3008                 5.2152                 2.4514

                     13                     14                     15
                      A                      A                      A
 Frequencies --    793.6822               818.1479               868.4075
 Red. masses --      3.1203                 1.4447                 1.7877
 Frc consts  --      1.1581                 0.5698                 0.7943
 IR Inten    --     16.2684                14.2659                 5.8013

                     16                     17                     18
                      A                      A                      A
 Frequencies --    901.9331               952.0892               975.8387
 Red. masses --      1.5618                 2.4076                 3.0597
 Frc consts  --      0.7485                 1.2859                 1.7167
 IR Inten    --      3.6141                10.9572                12.1322

                     19                     20                     21
                      A                      A                      A
 Frequencies --    985.6523              1013.3512              1039.4810
 Red. masses --      2.8738                 3.8206                 2.3858
 Frc consts  --      1.6449                 2.3116                 1.5189
 IR Inten    --     19.6457                 2.7741                95.8049

                     22                     23                     24
                      A                      A                      A
 Frequencies --   1045.7373              1060.8638              1069.4005
 Red. masses --      1.4191                 1.6052                 1.9335
 Frc consts  --      0.9143                 1.0644                 1.3028
 IR Inten    --      8.5079                 6.1136                30.6773

                     25                     26                     27
                      A                      A                      A
 Frequencies --   1079.4071              1087.3608              1120.1224
 Red. masses --      1.4781                 2.6999                 1.2321
 Frc consts  --      1.0147                 1.8808                 0.9108
 IR Inten    --      6.2233                64.2425                 1.8648

                     28                     29                     30
                      A                      A                      A
 Frequencies --   1173.1511              1188.0161              1193.4926
 Red. masses --      1.9995                 1.3178                 1.8992
 Frc consts  --      1.6214                 1.0959                 1.5939
 IR Inten    --     34.5572                 3.4475                16.9063

                     31                     32                     33
                      A                      A                      A
 Frequencies --   1229.7554              1285.5493              1290.2453
 Red. masses --      1.9755                 2.4069                 1.7488
 Frc consts  --      1.7602                 2.3436                 1.7153
 IR Inten    --     46.3343                29.0460                42.5917

                     34                     35                     36
                      A                      A                      A
 Frequencies --   1312.5216              1376.9336              1421.2599
 Red. masses --      1.2131                 1.4359                 1.7586
 Frc consts  --      1.2313                 1.6039                 2.0930
 IR Inten    --      3.6933                30.8996                 6.1512

                     37                     38                     39
                      A                      A                      A
 Frequencies --   1443.9795              1451.4834              1472.3201
 Red. masses --      1.2312                 1.0922                 1.3693
 Frc consts  --      1.5125                 1.3557                 1.7488
 IR Inten    --     12.7982                 2.1100                10.0170

                     40                     41                     42
                      A                      A                      A
 Frequencies --   1496.6577              1515.4385              2959.9501
 Red. masses --      1.4764                 1.2307                 1.0690
 Frc consts  --      1.9485                 1.6653                 5.5184
 IR Inten    --     11.6491                 6.5540                72.2826

                     43                     44                     45
                      A                      A                      A
 Frequencies --   3119.0830              3131.4803              3134.6697
 Red. masses --      1.0954                 1.0526                 1.0710
 Frc consts  --      6.2791                 6.0817                 6.2005
 IR Inten    --     36.3134                12.0639                14.0147

                     46                     47                     48
                      A                      A                      A
 Frequencies --   3137.8019              3138.5101              3161.1913
 Red. masses --      1.0564                 1.0716                 1.0897
 Frc consts  --      6.1280                 6.2192                 6.4162
 IR Inten    --      7.7002                21.0759                11.3949

                     49                     50                     51
                      A                      A                      A
 Frequencies --   3218.3588              3231.2990              3232.6531
 Red. masses --      1.1185                 1.1171                 1.1159
 Frc consts  --      6.8261                 6.8722                 6.8707
 IR Inten    --      0.6907                 4.7526                11.6914

 - Thermochemistry -
 -------------------
 Temperature   298.150 Kelvin.  Pressure   1.00000 Atm.
 Atom     1 has atomic number  6 and mass  12.00000

 Molecular mass:   126.06808 amu.
 Principal axes and moments of inertia in atomic units:
                           1         2         3
     Eigenvalues --   619.792991100.665061429.11111
           X            0.99987  -0.01549   0.00351
           Y            0.01556   0.99970  -0.01899
           Z           -0.00322   0.01905   0.99981
 This molecule is an asymmetric top.
 Rotational symmetry number  1.
 Warning -- assumption of classical behavior for rotation
           may cause significant error
 Rotational temperatures (Kelvin)      0.13975     0.07869     0.06061
 Rotational constants (GHZ):           2.91185     1.63968     1.26284
 Zero-point vibrational energy     421597.1 (Joules/Mol)
                                  100.76411 (Kcal/Mol)
 Warning -- explicit consideration of   9 degrees of freedom as
           vibrations may cause significant error
 Vibrational temperatures:    147.64   271.25   393.79   423.21   497.51
          (Kelvin)            576.78   662.82   765.78   810.90   970.86
                             1083.72  1105.06  1141.93  1177.13  1249.44
                             1297.68  1369.84  1404.01  1418.13  1457.98
                             1495.58  1504.58  1526.34  1538.63  1553.02
                             1564.47  1611.60  1687.90  1709.29  1717.17
                             1769.34  1849.62  1856.37  1888.42  1981.10
                             2044.87  2077.56  2088.36  2118.34  2153.35
                             2180.38  4258.70  4487.66  4505.50  4510.08
                             4514.59  4515.61  4548.24  4630.49  4649.11
                             4651.06

 Zero-point correction=                           0.160578 (Hartree/Particle)
 Thermal correction to Energy=                    0.167984
 Thermal correction to Enthalpy=                  0.168928
 Thermal correction to Gibbs Free Energy=         0.128909
 Sum of electronic and zero-point Energies=           -422.992968
 Sum of electronic and thermal Energies=              -422.985561
 Sum of electronic and thermal Enthalpies=            -422.984617
 Sum of electronic and thermal Free Energies=         -423.024637

                     E (Thermal)             CV                S
                      KCal/Mol        Cal/Mol-Kelvin    Cal/Mol-Kelvin
 Total                  105.412             30.125             84.228
 Electronic               0.000              0.000              0.000
 Translational            0.889              2.981             40.409
 Rotational               0.889              2.981             28.368
 Vibrational            103.634             24.164             15.451
 Vibration     1          0.605              1.947              3.404
 Vibration     2          0.633              1.856              2.242
 Vibration     3          0.676              1.722              1.573
 Vibration     4          0.689              1.685              1.450
 Vibration     5          0.724              1.584              1.185
 Vibration     6          0.767              1.468              0.959
 Vibration     7          0.819              1.337              0.764
 Vibration     8          0.887              1.179              0.582
 Vibration     9          0.919              1.110              0.517

 Normal termination of Gaussian 09 at Mon Jan 27 12:46:16 2020.
