 Gaussian 09, Revision D.01,
 Gaussian 09:  ES64L-G09RevD.01 24-Apr-2013

 -----------------------------
 # b3lyp 6-31G(2df,p) opt Freq
 -----------------------------

 -----
 titel
 -----
 Symbolic Z-matrix:
 Charge =  0 Multiplicity = 1

 SCF Done:  E(RB3LYP) =  -423.103992995     A.U. after   13 cycles
 Optimization completed.
    -- Stationary point found.
 Normal termination of Gaussian 09 at Tue Jan 28 10:12:39 2020.

 ----------------------------------------------------------------------
 #N Geom=AllCheck Guess=TCheck SCRF=Check GenChk RB3LYP/6-31G(2df,p) Fr
 eq
 ----------------------------------------------------------------------

 Structure from the checkpoint file:  "/scratch/puck/g09_9bb161f8-405a-415e-b17a-b0b8dfce572f/Gau-22716.chk"
 -----
 titel
 -----
 Charge =  0 Multiplicity = 1

                         Standard orientation:
 ---------------------------------------------------------------------
 Center     Atomic      Atomic             Coordinates (Angstroms)
 Number     Number       Type             X           Y           Z
 ---------------------------------------------------------------------
      1          6           0        2.763461    0.020413   -0.224682
      2          8           0        1.622661    0.747643    0.208603
      3          6           0        0.463794    0.015363    0.193238
      4          6           0       -0.018083   -1.058944    1.172080
      5          6           0       -1.385735   -0.860053    0.466390
      6          8           0       -1.177811   -1.387785   -0.875769
      7          6           0       -0.355525   -0.242918   -1.099150
      8          6           0       -0.932287    0.586611    0.008466
      9          6           0       -1.507415    1.960022    0.113709
     10          1           0        2.627493   -0.365893   -1.243689
     11          1           0        3.607147    0.713461   -0.208110
     12          1           0        2.980274   -0.823758    0.443719
     13          1           0        0.403362   -2.068155    1.132593
     14          1           0       -0.032461   -0.679794    2.197410
     15          1           0       -2.330430   -1.158121    0.916360
     16          1           0       -0.028744    0.004392   -2.101245
     17          1           0       -2.476015    2.030983   -0.392823
     18          1           0       -1.648537    2.258140    1.158797
     19          1           0       -0.830154    2.686919   -0.345992
 ---------------------------------------------------------------------

 SCF Done:  E(RB3LYP) =  -423.103992995     A.U. after    1 cycles

 The electronic state is 1-A.
 Alpha  occ. eigenvalues --  -19.15433 -19.13219 -10.24152 -10.23710 -10.23099
 Alpha  occ. eigenvalues --  -10.22856 -10.19535 -10.18595 -10.18436  -1.06325
 Alpha  occ. eigenvalues --   -1.04051  -0.85389  -0.74057  -0.71609  -0.69396
 Alpha  occ. eigenvalues --   -0.62827  -0.55516  -0.53630  -0.50518  -0.47773
 Alpha  occ. eigenvalues --   -0.46393  -0.44559  -0.43857  -0.41561  -0.40624
 Alpha  occ. eigenvalues --   -0.40237  -0.38760  -0.38262  -0.35028  -0.32587
 Alpha  occ. eigenvalues --   -0.29600  -0.27512  -0.24868  -0.21310
 Alpha virt. eigenvalues --    0.07980   0.10319   0.10619   0.11235   0.12236
 Alpha virt. eigenvalues --    0.13875   0.14050   0.15056   0.16067   0.16676
 Alpha virt. eigenvalues --    0.17221   0.17703   0.18705   0.19604   0.22382

 Mulliken charges:
               1
     1  C   -0.258163
     2  O   -0.284559
     3  C    0.338592
     4  C   -0.312957
     5  C    0.020131
     6  O   -0.294810
     7  C   -0.037162
     8  C    0.211657
     9  C   -0.532440
    10  H    0.114650
    11  H    0.128574
    12  H    0.117927
    13  H    0.099209
    14  H    0.106396
    15  H    0.088305
    16  H    0.106682
    17  H    0.127652
    18  H    0.124431
    19  H    0.135887
 Sum of Mulliken charges =   0.00000

 Dipole moment (field-independent basis, Debye):
    X=              0.6520    Y=              0.6718    Z=              0.5736  Tot=              1.0979
 Quadrupole moment (field-independent basis, Debye-Ang):
   XX=            -49.5296   YY=            -55.8321   ZZ=            -51.9664
   XY=             -3.4213   XZ=             -3.6566   YZ=             -3.0877

  Exact polarizability:  83.825  -2.273  72.965  -2.264  -2.619  69.582
 Approx polarizability: 112.600   0.771 106.076  -1.787   0.745 107.084

                      1                      2                      3
                      A                      A                      A
 Frequencies --     88.1846               133.4259               164.6440
 Red. masses --      2.5736                 2.8555                 1.1179
 Frc consts  --      0.0118                 0.0300                 0.0179
 IR Inten    --      2.7000                 1.9906                 0.2532

                      4                      5                      6
                      A                      A                      A
 Frequencies --    190.4560               211.4570               251.4764
 Red. masses --      1.0609                 2.6506                 2.7204
 Frc consts  --      0.0227                 0.0698                 0.1014
 IR Inten    --      0.3823                 1.1794                 1.1735

                      7                      8                      9
                      A                      A                      A
 Frequencies --    376.4115               408.6619               458.7403
 Red. masses --      4.4912                 2.8076                 2.9398
 Frc consts  --      0.3749                 0.2763                 0.3645
 IR Inten    --      7.8427                 0.8428                 0.4756

                     10                     11                     12
                      A                      A                      A
 Frequencies --    559.3917               597.5994               690.0109
 Red. masses --      4.1233                 3.6206                 3.2740
 Frc consts  --      0.7602                 0.7618                 0.9184
 IR Inten    --      3.2035                 5.9522                 4.5528

                     13                     14                     15
                      A                      A                      A
 Frequencies --    749.3472               785.4743               826.0254
 Red. masses --      4.3094                 3.9884                 2.9769
 Frc consts  --      1.4257                 1.4498                 1.1967
 IR Inten    --      6.9601                 8.8541                 8.3590

                     16                     17                     18
                      A                      A                      A
 Frequencies --    909.9404               918.4211               924.5959
 Red. masses --      1.8926                 2.0606                 2.0157
 Frc consts  --      0.9233                 1.0240                 1.0153
 IR Inten    --     15.4752                16.9340                18.3378

                     19                     20                     21
                      A                      A                      A
 Frequencies --    966.3531              1016.2082              1041.1517
 Red. masses --      2.1727                 3.3196                 2.3775
 Frc consts  --      1.1954                 2.0198                 1.5184
 IR Inten    --      0.8064                35.4348                 9.6701

                     22                     23                     24
                      A                      A                      A
 Frequencies --   1065.1723              1095.7052              1124.9124
 Red. masses --      3.6970                 2.0710                 2.1893
 Frc consts  --      2.4714                 1.4649                 1.6323
 IR Inten    --     39.2502                27.2138                17.3431

                     25                     26                     27
                      A                      A                      A
 Frequencies --   1129.7442              1158.8138              1177.2838
 Red. masses --      1.4319                 2.1144                 1.5087
 Frc consts  --      1.0767                 1.6729                 1.2320
 IR Inten    --      0.6486                 1.0148                 1.2199

                     28                     29                     30
                      A                      A                      A
 Frequencies --   1181.3110              1209.7136              1220.8231
 Red. masses --      1.4177                 1.5871                 1.8186
 Frc consts  --      1.1657                 1.3684                 1.5970
 IR Inten    --      5.1793                 4.7014                 5.0643

                     31                     32                     33
                      A                      A                      A
 Frequencies --   1239.8427              1292.5759              1345.0888
 Red. masses --      1.7346                 1.6543                 3.3407
 Frc consts  --      1.5711                 1.6285                 3.5612
 IR Inten    --      2.0814                63.9651               117.5618

                     34                     35                     36
                      A                      A                      A
 Frequencies --   1410.8768              1461.4292              1477.7597
 Red. masses --      1.2325                 2.2421                 1.1305
 Frc consts  --      1.4455                 2.8214                 1.4545
 IR Inten    --      0.5174                 5.4596                 0.1875

                     37                     38                     39
                      A                      A                      A
 Frequencies --   1484.7009              1486.5507              1493.8272
 Red. masses --      1.0512                 1.0648                 1.0784
 Frc consts  --      1.3652                 1.3863                 1.4178
 IR Inten    --      3.4132                 5.1118                 2.0151

                     40                     41                     42
                      A                      A                      A
 Frequencies --   1504.6457              1510.9573              2999.7713
 Red. masses --      1.1258                 1.5911                 1.0340
 Frc consts  --      1.5017                 2.1402                 5.4820
 IR Inten    --     24.4248                 9.6395                50.4585

                     43                     44                     45
                      A                      A                      A
 Frequencies --   3026.5587              3047.7831              3056.1454
 Red. masses --      1.0352                 1.0585                 1.1022
 Frc consts  --      5.5868                 5.7932                 6.0656
 IR Inten    --     39.6092                23.4054                52.2205

                     46                     47                     48
                      A                      A                      A
 Frequencies --   3087.0418              3102.0368              3112.8489
 Red. masses --      1.1012                 1.1002                 1.1079
 Frc consts  --      6.1829                 6.2373                 6.3252
 IR Inten    --     20.4998                14.1679                20.3817

                     49                     50                     51
                      A                      A                      A
 Frequencies --   3125.8593              3142.9739              3201.9446
 Red. masses --      1.0994                 1.0929                 1.0944
 Frc consts  --      6.3294                 6.3610                 6.6106
 IR Inten    --     28.3705                34.3109                10.8611

 - Thermochemistry -
 -------------------
 Temperature   298.150 Kelvin.  Pressure   1.00000 Atm.
 Atom     1 has atomic number  6 and mass  12.00000

 Molecular mass:   126.06808 amu.
 Principal axes and moments of inertia in atomic units:
                           1         2         3
     Eigenvalues --   709.769901172.105781436.77221
           X            0.99673  -0.07777  -0.02199
           Y            0.07658   0.99577  -0.05067
           Z            0.02584   0.04882   0.99847
 This molecule is an asymmetric top.
 Rotational symmetry number  1.
 Warning -- assumption of classical behavior for rotation
           may cause significant error
 Rotational temperatures (Kelvin)      0.12203     0.07390     0.06028
 Rotational constants (GHZ):           2.54271     1.53974     1.25611
 Zero-point vibrational energy     414163.2 (Joules/Mol)
                                   98.98737 (Kcal/Mol)
 Warning -- explicit consideration of  11 degrees of freedom as
           vibrations may cause significant error
 Vibrational temperatures:    126.88   191.97   236.89   274.02   304.24
          (Kelvin)            361.82   541.57   587.97   660.02   804.84
                              859.81   992.77  1078.14  1130.12  1188.46
                             1309.20  1321.40  1330.29  1390.36  1462.10
                             1497.98  1532.54  1576.47  1618.50  1625.45
                             1667.27  1693.85  1699.64  1740.51  1756.49
                             1783.85  1859.73  1935.28  2029.93  2102.67
                             2126.16  2136.15  2138.81  2149.28  2164.85
                             2173.93  4316.00  4354.54  4385.07  4397.11
                             4441.56  4463.13  4478.69  4497.41  4522.03
                             4606.88

 Zero-point correction=                           0.157746 (Hartree/Particle)
 Thermal correction to Energy=                    0.166355
 Thermal correction to Enthalpy=                  0.167300
 Thermal correction to Gibbs Free Energy=         0.124502
 Sum of electronic and zero-point Energies=           -422.946247
 Sum of electronic and thermal Energies=              -422.937638
 Sum of electronic and thermal Enthalpies=            -422.936693
 Sum of electronic and thermal Free Energies=         -422.979491

                     E (Thermal)             CV                S
                      KCal/Mol        Cal/Mol-Kelvin    Cal/Mol-Kelvin
 Total                  104.390             32.320             90.075
 Electronic               0.000              0.000              0.000
 Translational            0.889              2.981             40.409
 Rotational               0.889              2.981             28.571
 Vibrational            102.612             26.359             21.095
 Vibration     1          0.601              1.957              3.700
 Vibration     2          0.613              1.920              2.896
 Vibration     3          0.623              1.886              2.496
 Vibration     4          0.634              1.853              2.223
 Vibration     5          0.643              1.823              2.031
 Vibration     6          0.663              1.760              1.720
 Vibration     7          0.747              1.520              1.054
 Vibration     8          0.773              1.451              0.931
 Vibration     9          0.817              1.342              0.770
 Vibration    10          0.915              1.119              0.525
 Vibration    11          0.956              1.037              0.454

 Normal termination of Gaussian 09 at Tue Jan 28 10:55:28 2020.
