 Gaussian 09, Revision D.01,
 Gaussian 09:  ES64L-G09RevD.01 24-Apr-2013

 -----------------------------
 # b3lyp 6-31G(2df,p) opt Freq
 -----------------------------

 -----
 titel
 -----
 Symbolic Z-matrix:
 Charge =  0 Multiplicity = 1

 SCF Done:  E(RB3LYP) =  -423.119489698     A.U. after   14 cycles
 Optimization completed.
    -- Stationary point found.
 Normal termination of Gaussian 09 at Mon Jan 27 15:58:54 2020.

 ----------------------------------------------------------------------
 #N Geom=AllCheck Guess=TCheck SCRF=Check GenChk RB3LYP/6-31G(2df,p) Fr
 eq
 ----------------------------------------------------------------------

 Structure from the checkpoint file:  "/scratch/puck/g09_7bd6f9e5-58f0-440e-9880-d3a05f81d31a/Gau-35143.chk"
 -----
 titel
 -----
 Charge =  0 Multiplicity = 1

                         Standard orientation:
 ---------------------------------------------------------------------
 Center     Atomic      Atomic             Coordinates (Angstroms)
 Number     Number       Type             X           Y           Z
 ---------------------------------------------------------------------
      1          8           0        0.465721    1.897743   -0.036997
      2          6           0       -0.324444    0.774826   -0.398580
      3          6           0       -1.596185    0.716010    0.486468
      4          6           0       -2.525436   -0.336318    0.099565
      5          6           0       -3.275690   -1.207612   -0.251506
      6          6           0        0.540196   -0.467842   -0.249552
      7          6           0        1.381767   -0.626303    1.039874
      8          8           0        2.601520   -0.736083    0.279438
      9          6           0        1.911971   -0.476695   -0.959589
     10          1           0       -0.014118    2.698770   -0.268405
     11          1           0       -0.643819    0.850027   -1.450245
     12          1           0       -1.288136    0.592245    1.532128
     13          1           0       -2.102731    1.688783    0.429222
     14          1           0       -3.945343   -1.976544   -0.548055
     15          1           0       -0.068298   -1.345019   -0.475971
     16          1           0        1.387450    0.253871    1.693530
     17          1           0        1.188394   -1.524829    1.637603
     18          1           0        2.201846    0.487192   -1.394643
     19          1           0        2.073745   -1.274171   -1.694771
 ---------------------------------------------------------------------

 SCF Done:  E(RB3LYP) =  -423.119489698     A.U. after    1 cycles

 The electronic state is 1-A.
 Alpha  occ. eigenvalues --  -19.15019 -19.12131 -10.24845 -10.22133 -10.22092
 Alpha  occ. eigenvalues --  -10.21557 -10.19030 -10.18936 -10.17875  -1.03628
 Alpha  occ. eigenvalues --   -1.02407  -0.81022  -0.75641  -0.71184  -0.68267
 Alpha  occ. eigenvalues --   -0.63395  -0.55442  -0.53366  -0.52917  -0.48708
 Alpha  occ. eigenvalues --   -0.48290  -0.46573  -0.44164  -0.42214  -0.41216
 Alpha  occ. eigenvalues --   -0.39325  -0.37377  -0.35109  -0.32096  -0.29575
 Alpha  occ. eigenvalues --   -0.29090  -0.27172  -0.26457  -0.23734
 Alpha virt. eigenvalues --    0.04203   0.04812   0.06334   0.08612   0.11168
 Alpha virt. eigenvalues --    0.11681   0.12384   0.13491   0.14829   0.15612
 Alpha virt. eigenvalues --    0.17907   0.18500   0.19524   0.19929   0.20861

 Mulliken charges:
               1
     1  O   -0.419058
     2  C    0.069897
     3  C   -0.373568
     4  C    0.301828
     5  C   -0.449792
     6  C   -0.025753
     7  C   -0.080969
     8  O   -0.273345
     9  C   -0.089001
    10  H    0.287738
    11  H    0.082569
    12  H    0.142000
    13  H    0.119347
    14  H    0.199841
    15  H    0.098035
    16  H    0.110361
    17  H    0.097538
    18  H    0.106648
    19  H    0.095683
 Sum of Mulliken charges =   0.00000

 Dipole moment (field-independent basis, Debye):
    X=             -2.6753    Y=              1.0265    Z=             -0.9042  Tot=              3.0048
 Quadrupole moment (field-independent basis, Debye-Ang):
   XX=            -61.1871   YY=            -47.2564   ZZ=            -51.4335
   XY=              0.9142   XZ=             -0.8656   YZ=             -0.0133

  Exact polarizability:  85.667   9.352  77.724   1.470   3.255  66.567
 Approx polarizability: 114.700  20.270 119.155   7.349   8.806  99.335

                      1                      2                      3
                      A                      A                      A
 Frequencies --     59.3064                77.4988               104.9444
 Red. masses --      3.9012                 3.9010                 3.4365
 Frc consts  --      0.0081                 0.0138                 0.0223
 IR Inten    --      1.1350                 2.0231                 0.3576

                      4                      5                      6
                      A                      A                      A
 Frequencies --    142.7038               216.8231               273.8981
 Red. masses --      3.8794                 2.7415                 2.0190
 Frc consts  --      0.0465                 0.0759                 0.0892
 IR Inten    --      0.6281                 0.2549                31.6712

                      7                      8                      9
                      A                      A                      A
 Frequencies --    280.2077               340.7531               356.2363
 Red. masses --      1.3157                 4.9418                 2.8710
 Frc consts  --      0.0609                 0.3381                 0.2147
 IR Inten    --     71.8272                12.9935                 4.4282

                     10                     11                     12
                      A                      A                      A
 Frequencies --    428.2193               533.2739               605.7396
 Red. masses --      4.2300                 3.5793                 3.1926
 Frc consts  --      0.4570                 0.5997                 0.6902
 IR Inten    --      1.8356                 3.7525                11.1328

                     13                     14                     15
                      A                      A                      A
 Frequencies --    631.7206               652.5904               694.7587
 Red. masses --      1.2213                 1.2346                 2.7553
 Frc consts  --      0.2872                 0.3098                 0.7836
 IR Inten    --     43.4299                42.1726                 3.8511

                     16                     17                     18
                      A                      A                      A
 Frequencies --    856.2323               895.5000               919.8868
 Red. masses --      3.4785                 1.2326                 1.9777
 Frc consts  --      1.5025                 0.5824                 0.9860
 IR Inten    --     14.0739                 0.1573                 5.2698

                     19                     20                     21
                      A                      A                      A
 Frequencies --    969.1192               974.8225              1015.9605
 Red. masses --      3.6169                 3.5255                 2.8763
 Frc consts  --      2.0014                 1.9739                 1.7492
 IR Inten    --      4.3572                 9.1717                22.2319

                     22                     23                     24
                      A                      A                      A
 Frequencies --   1023.0312              1044.9492              1069.9120
 Red. masses --      2.9477                10.4321                 2.6441
 Frc consts  --      1.8176                 6.7114                 1.7833
 IR Inten    --     28.5024                80.5544                10.0994

                     25                     26                     27
                      A                      A                      A
 Frequencies --   1112.3875              1153.3457              1170.7908
 Red. masses --      2.5194                 2.2282                 1.0794
 Frc consts  --      1.8368                 1.7463                 0.8717
 IR Inten    --      7.1919                50.4272                 1.0191

                     28                     29                     30
                      A                      A                      A
 Frequencies --   1172.6508              1204.7324              1234.9608
 Red. masses --      1.1968                 1.1756                 1.1681
 Frc consts  --      0.9697                 1.0053                 1.0497
 IR Inten    --      1.6725                12.7289                50.1166

                     31                     32                     33
                      A                      A                      A
 Frequencies --   1282.1540              1303.8485              1316.0652
 Red. masses --      1.3704                 1.3195                 1.2755
 Frc consts  --      1.3274                 1.3217                 1.3016
 IR Inten    --      6.3711                 0.7459                 0.5657

                     34                     35                     36
                      A                      A                      A
 Frequencies --   1344.8695              1376.2694              1407.5055
 Red. masses --      1.2666                 1.3366                 1.5923
 Frc consts  --      1.3497                 1.4916                 1.8586
 IR Inten    --      5.4253                 5.5518                 9.9416

                     37                     38                     39
                      A                      A                      A
 Frequencies --   1436.6727              1470.2477              1505.4548
 Red. masses --      1.6211                 1.1017                 1.0789
 Frc consts  --      1.9714                 1.4031                 1.4406
 IR Inten    --     23.4236                 3.9433                 1.0862

                     40                     41                     42
                      A                      A                      A
 Frequencies --   1533.2065              2237.2882              2975.9182
 Red. masses --      1.1127                 5.9322                 1.0833
 Frc consts  --      1.5410                17.4948                 5.6527
 IR Inten    --      1.2742                 1.7665                35.9044

                     43                     44                     45
                      A                      A                      A
 Frequencies --   3013.4772              3016.7374              3024.2258
 Red. masses --      1.0523                 1.0612                 1.0578
 Frc consts  --      5.6302                 5.6901                 5.7002
 IR Inten    --    124.5466                23.1751                 3.4681

                     46                     47                     48
                      A                      A                      A
 Frequencies --   3057.1489              3061.7402              3063.9910
 Red. masses --      1.0991                 1.1103                 1.1095
 Frc consts  --      6.0523                 6.1321                 6.1370
 IR Inten    --     16.5685                49.6091                10.8869

                     49                     50                     51
                      A                      A                      A
 Frequencies --   3102.7194              3505.6628              3827.0877
 Red. masses --      1.0875                 1.1621                 1.0664
 Frc consts  --      6.1683                 8.4149                 9.2028
 IR Inten    --     24.3617                68.1423                25.5175

 - Thermochemistry -
 -------------------
 Temperature   298.150 Kelvin.  Pressure   1.00000 Atm.
 Atom     1 has atomic number  8 and mass  15.99491

 Molecular mass:   126.06808 amu.
 Principal axes and moments of inertia in atomic units:
                           1         2         3
     Eigenvalues --   633.016751790.269852084.95553
           X            0.99999  -0.00009  -0.00494
           Y            0.00014   0.99995   0.00972
           Z            0.00494  -0.00972   0.99994
 This molecule is an asymmetric top.
 Rotational symmetry number  1.
 Warning -- assumption of classical behavior for rotation
           may cause significant error
 Rotational temperatures (Kelvin)      0.13683     0.04838     0.04154
 Rotational constants (GHZ):           2.85102     1.00808     0.86560
 Zero-point vibrational energy     413185.6 (Joules/Mol)
                                   98.75374 (Kcal/Mol)
 Warning -- explicit consideration of  12 degrees of freedom as
           vibrations may cause significant error
 Vibrational temperatures:     85.33   111.50   150.99   205.32   311.96
          (Kelvin)            394.08   403.16   490.27   512.54   616.11
                              767.26   871.52   908.90   938.93   999.60
                             1231.93  1288.42  1323.51  1394.34  1402.55
                             1461.74  1471.91  1503.45  1539.36  1600.48
                             1659.41  1684.50  1687.18  1733.34  1776.83
                             1844.73  1875.94  1893.52  1934.96  1980.14
                             2025.08  2067.05  2115.36  2166.01  2205.94
                             3218.95  4281.68  4335.72  4340.41  4351.18
                             4398.55  4405.16  4408.39  4464.12  5043.86
                             5506.32

 Zero-point correction=                           0.157374 (Hartree/Particle)
 Thermal correction to Energy=                    0.166944
 Thermal correction to Enthalpy=                  0.167888
 Thermal correction to Gibbs Free Energy=         0.122249
 Sum of electronic and zero-point Energies=           -422.962116
 Sum of electronic and thermal Energies=              -422.952546
 Sum of electronic and thermal Enthalpies=            -422.951601
 Sum of electronic and thermal Free Energies=         -422.997241

                     E (Thermal)             CV                S
                      KCal/Mol        Cal/Mol-Kelvin    Cal/Mol-Kelvin
 Total                  104.759             34.653             96.056
 Electronic               0.000              0.000              0.000
 Translational            0.889              2.981             40.409
 Rotational               0.889              2.981             29.248
 Vibrational            102.982             28.691             26.399
 Vibration     1          0.597              1.974              4.480
 Vibration     2          0.599              1.964              3.953
 Vibration     3          0.605              1.945              3.360
 Vibration     4          0.616              1.911              2.767
 Vibration     5          0.646              1.815              1.985
 Vibration     6          0.676              1.722              1.571
 Vibration     7          0.680              1.710              1.532
 Vibration     8          0.720              1.594              1.209
 Vibration     9          0.732              1.562              1.138
 Vibration    10          0.790              1.409              0.864
 Vibration    11          0.888              1.176              0.580
 Vibration    12          0.964              1.020              0.440

 Optimization completed.
    -- Stationary point found.
 Normal termination of Gaussian 09 at Mon Jan 27 16:55:36 2020.
