 Gaussian 09, Revision D.01,
 Gaussian 09:  ES64L-G09RevD.01 24-Apr-2013

 -----------------------------
 # b3lyp 6-31G(2df,p) opt Freq
 -----------------------------

 -----
 titel
 -----
 Symbolic Z-matrix:
 Charge =  0 Multiplicity = 1

 SCF Done:  E(RB3LYP) =  -423.204764035     A.U. after   14 cycles
 Optimization completed.
    -- Stationary point found.
 Normal termination of Gaussian 09 at Tue Jan 28 00:43:41 2020.

 ----------------------------------------------------------------------
 #N Geom=AllCheck Guess=TCheck SCRF=Check GenChk RB3LYP/6-31G(2df,p) Fr
 eq
 ----------------------------------------------------------------------

 Structure from the checkpoint file:  "/scratch/puck/g09_0a157e95-a555-471e-9588-c94a2eb1222f/Gau-37439.chk"
 -----
 titel
 -----
 Charge =  0 Multiplicity = 1

                         Standard orientation:
 ---------------------------------------------------------------------
 Center     Atomic      Atomic             Coordinates (Angstroms)
 Number     Number       Type             X           Y           Z
 ---------------------------------------------------------------------
      1          6           0        1.339643    1.836253   -0.129462
      2          6           0        0.214934    1.108963    0.601453
      3          6           0       -1.215498    1.414309    0.041882
      4          6           0       -1.325711   -0.045793   -0.402183
      5          8           0       -2.100549   -0.673070   -1.064333
      6          6           0       -0.001307   -0.422574    0.303893
      7          6           0       -0.281592   -1.279182    1.557578
      8          6           0        0.972005   -1.195119   -0.558181
      9          8           0        2.152476   -0.976588   -0.652373
     10          1           0        1.270186    2.911624    0.066971
     11          1           0        2.321653    1.482833    0.188538
     12          1           0        1.276296    1.691504   -1.212994
     13          1           0        0.295070    1.294791    1.675669
     14          1           0       -1.966263    1.687177    0.789735
     15          1           0       -1.266468    2.140551   -0.775238
     16          1           0       -1.054698   -0.815089    2.177559
     17          1           0       -0.629051   -2.278952    1.279374
     18          1           0        0.629151   -1.377657    2.156184
     19          1           0        0.493867   -2.040661   -1.102029
 ---------------------------------------------------------------------

 SCF Done:  E(RB3LYP) =  -423.204764036     A.U. after    1 cycles

 The electronic state is 1-A.
 Alpha  occ. eigenvalues --  -19.14928 -19.14827 -10.27933 -10.27854 -10.21329
 Alpha  occ. eigenvalues --  -10.20823 -10.20642 -10.20008 -10.17991  -1.05884
 Alpha  occ. eigenvalues --   -1.05415  -0.86850  -0.76630  -0.72015  -0.67219
 Alpha  occ. eigenvalues --   -0.61229  -0.58677  -0.52158  -0.48904  -0.47561
 Alpha  occ. eigenvalues --   -0.46717  -0.44308  -0.43087  -0.42825  -0.41126
 Alpha  occ. eigenvalues --   -0.40968  -0.39624  -0.37885  -0.37830  -0.34961
 Alpha  occ. eigenvalues --   -0.33654  -0.32690  -0.26684  -0.24195
 Alpha virt. eigenvalues --   -0.04171  -0.01725   0.07544   0.10635   0.11147
 Alpha virt. eigenvalues --    0.12756   0.13906   0.14915   0.15412   0.15615
 Alpha virt. eigenvalues --    0.17198   0.17603   0.18278   0.18298   0.20136

 Mulliken charges:
               1
     1  C   -0.397701
     2  C   -0.043306
     3  C   -0.361550
     4  C    0.366071
     5  O   -0.298566
     6  C    0.086744
     7  C   -0.443384
     8  C    0.109670
     9  O   -0.254187
    10  H    0.111514
    11  H    0.142111
    12  H    0.117604
    13  H    0.079187
    14  H    0.135169
    15  H    0.135608
    16  H    0.130085
    17  H    0.141251
    18  H    0.140958
    19  H    0.102725
 Sum of Mulliken charges =   0.00000

 Dipole moment (field-independent basis, Debye):
    X=             -0.5891    Y=              1.2678    Z=              2.1847  Tot=              2.5937
 Quadrupole moment (field-independent basis, Debye-Ang):
   XX=            -63.8815   YY=            -50.8396   ZZ=            -52.7985
   XY=             -0.9139   XZ=             -1.9959   YZ=             -2.0406

  Exact polarizability:  81.699   0.479  80.622   0.583   1.848  67.824
 Approx polarizability: 129.199   3.196 111.753   4.317   6.688 103.423

                      1                      2                      3
                      A                      A                      A
 Frequencies --     34.0149                78.2855               146.2353
 Red. masses --      3.0730                 4.3099                 3.9431
 Frc consts  --      0.0021                 0.0156                 0.0497
 IR Inten    --      0.5997                 9.1909                 2.4790

                      4                      5                      6
                      A                      A                      A
 Frequencies --    203.8077               227.6469               251.2937
 Red. masses --      4.0349                 1.4745                 1.6841
 Frc consts  --      0.0987                 0.0450                 0.0627
 IR Inten    --      4.7941                 1.8960                 2.9902

                      7                      8                      9
                      A                      A                      A
 Frequencies --    262.3572               283.9075               338.4492
 Red. masses --      1.2424                 1.8183                 2.3997
 Frc consts  --      0.0504                 0.0864                 0.1620
 IR Inten    --      0.2669                 0.5845                 1.0880

                     10                     11                     12
                      A                      A                      A
 Frequencies --    369.8087               458.4262               504.7371
 Red. masses --      3.2354                 3.1991                 2.1614
 Frc consts  --      0.2607                 0.3961                 0.3244
 IR Inten    --      0.7138                 1.5243                 0.4669

                     13                     14                     15
                      A                      A                      A
 Frequencies --    609.1795               627.5179               726.2158
 Red. masses --      4.0185                 4.9113                 2.8919
 Frc consts  --      0.8786                 1.1395                 0.8986
 IR Inten    --      1.2165                15.4483                12.8359

                     16                     17                     18
                      A                      A                      A
 Frequencies --    827.6100               861.3565               900.3136
 Red. masses --      2.3929                 2.0323                 2.5379
 Frc consts  --      0.9657                 0.8884                 1.2120
 IR Inten    --      4.9150                 0.7329                 6.7787

                     19                     20                     21
                      A                      A                      A
 Frequencies --    936.1735               990.0521              1002.3635
 Red. masses --      1.7121                 2.1186                 1.5317
 Frc consts  --      0.8841                 1.2236                 0.9067
 IR Inten    --     18.8202                 7.9735                 0.9571

                     22                     23                     24
                      A                      A                      A
 Frequencies --   1036.8226              1058.5444              1087.3047
 Red. masses --      1.7130                 2.5950                 1.9329
 Frc consts  --      1.0850                 1.7132                 1.3463
 IR Inten    --     21.9216                49.1187                22.0649

                     25                     26                     27
                      A                      A                      A
 Frequencies --   1139.7548              1145.3568              1194.3006
 Red. masses --      2.2426                 2.2583                 1.9055
 Frc consts  --      1.7164                 1.7455                 1.6013
 IR Inten    --      1.3979                 3.4679                 6.0935

                     28                     29                     30
                      A                      A                      A
 Frequencies --   1212.3822              1256.9893              1277.4440
 Red. masses --      1.7580                 2.8436                 1.5960
 Frc consts  --      1.5225                 2.6472                 1.5345
 IR Inten    --      9.4990                23.6860                22.1909

                     31                     32                     33
                      A                      A                      A
 Frequencies --   1358.6470              1398.5072              1415.9736
 Red. masses --      1.3820                 1.1817                 1.2363
 Frc consts  --      1.5030                 1.3617                 1.4605
 IR Inten    --      5.1578                 3.1564                 3.9747

                     34                     35                     36
                      A                      A                      A
 Frequencies --   1419.4236              1436.8336              1489.9587
 Red. masses --      1.1853                 1.1120                 1.0448
 Frc consts  --      1.4071                 1.3527                 1.3666
 IR Inten    --      1.1185                 7.3405                11.3283

                     37                     38                     39
                      A                      A                      A
 Frequencies --   1492.3673              1493.5898              1496.3212
 Red. masses --      1.0535                 1.0502                 1.0476
 Frc consts  --      1.3824                 1.3803                 1.3819
 IR Inten    --     10.4029                 0.4972                 1.3634

                     40                     41                     42
                      A                      A                      A
 Frequencies --   1817.3090              1881.8947              2883.5191
 Red. masses --     10.6478                12.6987                 1.0829
 Frc consts  --     20.7189                26.4972                 5.3050
 IR Inten    --    235.1916               198.6512                86.4148

                     43                     44                     45
                      A                      A                      A
 Frequencies --   3033.8261              3037.3527              3055.1129
 Red. masses --      1.0331                 1.0384                 1.0599
 Frc consts  --      5.6022                 5.6443                 5.8289
 IR Inten    --     18.9092                18.4720                 8.9843

                     46                     47                     48
                      A                      A                      A
 Frequencies --   3066.7743              3099.4851              3107.0548
 Red. masses --      1.0860                 1.1014                 1.1037
 Frc consts  --      6.0178                 6.2343                 6.2779
 IR Inten    --      9.9907                27.2648                 6.7043

                     49                     50                     51
                      A                      A                      A
 Frequencies --   3110.0564              3114.4794              3139.1175
 Red. masses --      1.1026                 1.1029                 1.0986
 Frc consts  --      6.2837                 6.3034                 6.3784
 IR Inten    --     19.6095                12.3426                10.7004

 - Thermochemistry -
 -------------------
 Temperature   298.150 Kelvin.  Pressure   1.00000 Atm.
 Atom     1 has atomic number  6 and mass  12.00000

 Molecular mass:   126.06808 amu.
 Principal axes and moments of inertia in atomic units:
                           1         2         3
     Eigenvalues --   921.657171133.561091464.14054
           X            0.99756   0.06591  -0.02322
           Y           -0.06708   0.99629  -0.05395
           Z            0.01958   0.05538   0.99827
 This molecule is an asymmetric top.
 Rotational symmetry number  1.
 Warning -- assumption of classical behavior for rotation
           may cause significant error
 Rotational temperatures (Kelvin)      0.09398     0.07641     0.05916
 Rotational constants (GHZ):           1.95815     1.59210     1.23263
 Zero-point vibrational energy     409100.5 (Joules/Mol)
                                   97.77736 (Kcal/Mol)
 Warning -- explicit consideration of  13 degrees of freedom as
           vibrations may cause significant error
 Vibrational temperatures:     48.94   112.64   210.40   293.23   327.53
          (Kelvin)            361.56   377.47   408.48   486.95   532.07
                              659.57   726.20   876.47   902.86  1044.86
                             1190.74  1239.30  1295.35  1346.94  1424.46
                             1442.18  1491.75  1523.01  1564.39  1639.85
                             1647.91  1718.33  1744.35  1808.52  1837.95
                             1954.79  2012.14  2037.27  2042.23  2067.28
                             2143.72  2147.18  2148.94  2152.87  2614.70
                             2707.62  4148.74  4364.99  4370.07  4395.62
                             4412.40  4459.46  4470.35  4474.67  4481.04
                             4516.48

 Zero-point correction=                           0.155818 (Hartree/Particle)
 Thermal correction to Energy=                    0.165565
 Thermal correction to Enthalpy=                  0.166510
 Thermal correction to Gibbs Free Energy=         0.120624
 Sum of electronic and zero-point Energies=           -423.048946
 Sum of electronic and thermal Energies=              -423.039199
 Sum of electronic and thermal Enthalpies=            -423.038254
 Sum of electronic and thermal Free Energies=         -423.084140

                     E (Thermal)             CV                S
                      KCal/Mol        Cal/Mol-Kelvin    Cal/Mol-Kelvin
 Total                  103.894             35.057             96.575
 Electronic               0.000              0.000              0.000
 Translational            0.889              2.981             40.409
 Rotational               0.889              2.981             28.816
 Vibrational            102.116             29.095             27.351
 Vibration     1          0.594              1.983              5.580
 Vibration     2          0.600              1.964              3.933
 Vibration     3          0.617              1.907              2.721
 Vibration     4          0.639              1.834              2.098
 Vibration     5          0.651              1.799              1.897
 Vibration     6          0.663              1.761              1.721
 Vibration     7          0.670              1.742              1.646
 Vibration     8          0.682              1.704              1.510
 Vibration     9          0.719              1.599              1.219
 Vibration    10          0.742              1.534              1.081
 Vibration    11          0.816              1.342              0.771
 Vibration    12          0.860              1.240              0.646
 Vibration    13          0.968              1.012              0.434

 Normal termination of Gaussian 09 at Tue Jan 28 02:50:18 2020.
