 Gaussian 09, Revision D.01,
 Gaussian 09:  ES64L-G09RevD.01 24-Apr-2013

 -----------------------------
 # b3lyp 6-31G(2df,p) opt Freq
 -----------------------------

 -----
 titel
 -----
 Symbolic Z-matrix:
 Charge =  0 Multiplicity = 1

 SCF Done:  E(RB3LYP) =  -423.155679382     A.U. after   13 cycles
 Optimization completed.
    -- Stationary point found.
 Normal termination of Gaussian 09 at Mon Jan 27 12:02:16 2020.

 ----------------------------------------------------------------------
 #N Geom=AllCheck Guess=TCheck SCRF=Check GenChk RB3LYP/6-31G(2df,p) Fr
 eq
 ----------------------------------------------------------------------

 Structure from the checkpoint file:  "/scratch/puck/g09_3e89febe-85c4-487b-a980-028df6058b42/Gau-17587.chk"
 -----
 titel
 -----
 Charge =  0 Multiplicity = 1

                         Standard orientation:
 ---------------------------------------------------------------------
 Center     Atomic      Atomic             Coordinates (Angstroms)
 Number     Number       Type             X           Y           Z
 ---------------------------------------------------------------------
      1          6           0       -2.064429   -0.784474   -0.565138
      2          6           0       -2.227267    0.089672    0.666501
      3          6           0       -0.894563   -0.036083   -0.035135
      4          8           0       -0.420745    1.055270   -0.792867
      5          6           0        0.622776    1.649962   -0.022018
      6          6           0        1.356187    0.481114    0.639760
      7          6           0        2.140526   -0.454446   -0.303535
      8          8           0        1.112452   -1.464734   -0.244652
      9          6           0        0.301697   -0.660279    0.639901
     10          1           0       -2.075405   -1.862751   -0.451351
     11          1           0       -2.490573   -0.421273   -1.493385
     12          1           0       -2.755300    1.028069    0.539903
     13          1           0       -2.362776   -0.388552    1.631245
     14          1           0        1.245500    2.237153   -0.702803
     15          1           0        0.205764    2.322474    0.743605
     16          1           0        1.843687    0.739429    1.579234
     17          1           0        2.289407   -0.077294   -1.322986
     18          1           0        3.095756   -0.824386    0.088308
     19          1           0        0.060719   -1.189955    1.566365
 ---------------------------------------------------------------------

 SCF Done:  E(RB3LYP) =  -423.155679382     A.U. after    1 cycles

 The electronic state is 1-A.
 Alpha  occ. eigenvalues --  -19.14353 -19.12955 -10.23543 -10.23461 -10.23176
 Alpha  occ. eigenvalues --  -10.22921 -10.19626 -10.18528 -10.18485  -1.05497
 Alpha  occ. eigenvalues --   -1.02394  -0.85128  -0.76919  -0.70501  -0.66791
 Alpha  occ. eigenvalues --   -0.60554  -0.56931  -0.55369  -0.51935  -0.48851
 Alpha  occ. eigenvalues --   -0.47451  -0.47168  -0.43506  -0.42183  -0.41519
 Alpha  occ. eigenvalues --   -0.39073  -0.36811  -0.35448  -0.32538  -0.32001
 Alpha  occ. eigenvalues --   -0.29741  -0.29131  -0.25246  -0.23748
 Alpha virt. eigenvalues --    0.07493   0.08574   0.10613   0.10990   0.12819
 Alpha virt. eigenvalues --    0.13449   0.13964   0.14964   0.15886   0.16462
 Alpha virt. eigenvalues --    0.17972   0.18320   0.20358   0.21179   0.22696

 Mulliken charges:
               1
     1  C   -0.333077
     2  C   -0.341789
     3  C    0.451388
     4  O   -0.288660
     5  C   -0.110258
     6  C   -0.101671
     7  C   -0.075802
     8  O   -0.288381
     9  C    0.029489
    10  H    0.125187
    11  H    0.128524
    12  H    0.120726
    13  H    0.111363
    14  H    0.110515
    15  H    0.094206
    16  H    0.083852
    17  H    0.106756
    18  H    0.099802
    19  H    0.077829
 Sum of Mulliken charges =   0.00000

 Dipole moment (field-independent basis, Debye):
    X=              0.5573    Y=              1.1326    Z=              1.6866  Tot=              2.1067
 Quadrupole moment (field-independent basis, Debye-Ang):
   XX=            -49.8209   YY=            -54.8977   ZZ=            -52.7257
   XY=              3.2691   XZ=              0.0249   YZ=             -0.2543

  Exact polarizability:  87.583   2.952  71.192  -2.222   0.721  66.415
 Approx polarizability: 112.539   3.791 104.436  -3.589   1.238 102.733

                      1                      2                      3
                      A                      A                      A
 Frequencies --     99.9285               161.9208               212.6806
 Red. masses --      3.3646                 2.7090                 3.1369
 Frc consts  --      0.0198                 0.0418                 0.0836
 IR Inten    --      2.5196                 4.2474                 1.8081

                      4                      5                      6
                      A                      A                      A
 Frequencies --    289.5850               338.2495               373.8667
 Red. masses --      2.9673                 2.8128                 2.0634
 Frc consts  --      0.1466                 0.1896                 0.1699
 IR Inten    --      0.3410                 0.4586                 0.4115

                      7                      8                      9
                      A                      A                      A
 Frequencies --    480.0931               574.9019               668.4890
 Red. masses --      4.1817                 3.9059                 4.2220
 Frc consts  --      0.5679                 0.7606                 1.1116
 IR Inten    --      5.7342                 2.7485                 8.8677

                     10                     11                     12
                      A                      A                      A
 Frequencies --    764.8361               793.0774               822.3782
 Red. masses --      1.1392                 2.8251                 2.7859
 Frc consts  --      0.3926                 1.0469                 1.1101
 IR Inten    --      1.7757                 2.4390                12.0584

                     13                     14                     15
                      A                      A                      A
 Frequencies --    862.7187               883.6540               890.8572
 Red. masses --      1.7282                 1.8326                 2.8126
 Frc consts  --      0.7579                 0.8431                 1.3152
 IR Inten    --      3.8302                11.2392                 5.9010

                     16                     17                     18
                      A                      A                      A
 Frequencies --    918.4218               947.5650               967.1961
 Red. masses --      1.5695                 2.2715                 2.4816
 Frc consts  --      0.7800                 1.2017                 1.3677
 IR Inten    --      4.1400                 7.4767                16.0548

                     19                     20                     21
                      A                      A                      A
 Frequencies --   1003.0821              1009.5649              1026.9083
 Red. masses --      2.7257                 4.5656                 2.3685
 Frc consts  --      1.6158                 2.7417                 1.4716
 IR Inten    --     32.0900                11.1389                51.5410

                     22                     23                     24
                      A                      A                      A
 Frequencies --   1029.2357              1054.4058              1077.1784
 Red. masses --      4.5339                 1.6542                 1.4200
 Frc consts  --      2.8298                 1.0836                 0.9707
 IR Inten    --     37.6251                37.4927                 3.0111

                     25                     26                     27
                      A                      A                      A
 Frequencies --   1084.8231              1127.8944              1166.0547
 Red. masses --      3.1080                 1.9116                 1.1113
 Frc consts  --      2.1550                 1.4328                 0.8902
 IR Inten    --     52.3555                 2.3459                 0.5576

                     28                     29                     30
                      A                      A                      A
 Frequencies --   1187.3949              1195.9133              1230.5931
 Red. masses --      1.2737                 2.1768                 1.3841
 Frc consts  --      1.0580                 1.8343                 1.2349
 IR Inten    --      0.1605                34.9162                 3.5059

                     31                     32                     33
                      A                      A                      A
 Frequencies --   1240.6992              1281.0767              1299.0295
 Red. masses --      1.4724                 1.9597                 1.2657
 Frc consts  --      1.3354                 1.8949                 1.2584
 IR Inten    --      8.6153                40.7286                 2.7677

                     34                     35                     36
                      A                      A                      A
 Frequencies --   1329.7383              1351.5422              1386.0729
 Red. masses --      1.6587                 1.5164                 1.7706
 Frc consts  --      1.7280                 1.6320                 2.0042
 IR Inten    --      1.5439                 4.1510                 1.8559

                     37                     38                     39
                      A                      A                      A
 Frequencies --   1396.7734              1453.5857              1494.6857
 Red. masses --      1.5768                 1.0917                 1.3573
 Frc consts  --      1.8125                 1.3591                 1.7866
 IR Inten    --      3.6635                 1.8793                 4.3569

                     40                     41                     42
                      A                      A                      A
 Frequencies --   1508.5676              1519.9283              2984.1727
 Red. masses --      1.2418                 1.1049                 1.0698
 Frc consts  --      1.6650                 1.5038                 5.6130
 IR Inten    --      2.7457                 0.9604                62.2032

                     43                     44                     45
                      A                      A                      A
 Frequencies --   3014.0307              3057.9163              3066.4769
 Red. masses --      1.0548                 1.1109                 1.0878
 Frc consts  --      5.6457                 6.1205                 6.0267
 IR Inten    --     80.9618                34.4560                34.0026

                     46                     47                     48
                      A                      A                      A
 Frequencies --   3089.3853              3120.2077              3129.0397
 Red. masses --      1.0942                 1.0891                 1.0534
 Frc consts  --      6.1529                 6.2470                 6.0766
 IR Inten    --     28.5268                28.8062                13.3861

                     49                     50                     51
                      A                      A                      A
 Frequencies --   3140.1703              3217.2201              3232.0950
 Red. masses --      1.0555                 1.1181                 1.1157
 Frc consts  --      6.1320                 6.8186                 6.8672
 IR Inten    --      7.2856                 1.4683                 8.0399

 - Thermochemistry -
 -------------------
 Temperature   298.150 Kelvin.  Pressure   1.00000 Atm.
 Atom     1 has atomic number  6 and mass  12.00000

 Molecular mass:   126.06808 amu.
 Principal axes and moments of inertia in atomic units:
                           1         2         3
     Eigenvalues --   589.144591121.364801393.99958
           X            0.99947   0.03209  -0.00492
           Y           -0.03203   0.99942   0.01141
           Z            0.00529  -0.01125   0.99992
 This molecule is an asymmetric top.
 Rotational symmetry number  1.
 Warning -- assumption of classical behavior for rotation
           may cause significant error
 Rotational temperatures (Kelvin)      0.14702     0.07724     0.06213
 Rotational constants (GHZ):           3.06332     1.60941     1.29465
 Zero-point vibrational energy     422017.9 (Joules/Mol)
                                  100.86470 (Kcal/Mol)
 Warning -- explicit consideration of   8 degrees of freedom as
           vibrations may cause significant error
 Vibrational temperatures:    143.77   232.97   306.00   416.65   486.67
          (Kelvin)            537.91   690.75   827.15   961.81  1100.43
                             1141.06  1183.22  1241.26  1271.38  1281.74
                             1321.40  1363.33  1391.58  1443.21  1452.54
                             1477.49  1480.84  1517.05  1549.82  1560.82
                             1622.79  1677.69  1708.39  1720.65  1770.55
                             1785.09  1843.18  1869.01  1913.19  1944.57
                             1994.25  2009.64  2091.38  2150.52  2170.49
                             2186.84  4293.55  4336.51  4399.65  4411.97
                             4444.93  4489.28  4501.98  4518.00  4628.86
                             4650.26

 Zero-point correction=                           0.160738 (Hartree/Particle)
 Thermal correction to Energy=                    0.168112
 Thermal correction to Enthalpy=                  0.169056
 Thermal correction to Gibbs Free Energy=         0.128911
 Sum of electronic and zero-point Energies=           -422.994941
 Sum of electronic and thermal Energies=              -422.987568
 Sum of electronic and thermal Enthalpies=            -422.986623
 Sum of electronic and thermal Free Energies=         -423.026768

                     E (Thermal)             CV                S
                      KCal/Mol        Cal/Mol-Kelvin    Cal/Mol-Kelvin
 Total                  105.492             29.326             84.492
 Electronic               0.000              0.000              0.000
 Translational            0.889              2.981             40.409
 Rotational               0.889              2.981             28.312
 Vibrational            103.714             23.365             15.771
 Vibration     1          0.604              1.949              3.456
 Vibration     2          0.622              1.889              2.527
 Vibration     3          0.644              1.822              2.021
 Vibration     4          0.686              1.693              1.476
 Vibration     5          0.719              1.599              1.220
 Vibration     6          0.745              1.526              1.064
 Vibration     7          0.836              1.294              0.710
 Vibration     8          0.931              1.086              0.495

 Optimization completed.
    -- Stationary point found.
 Normal termination of Gaussian 09 at Mon Jan 27 12:53:15 2020.
