 Gaussian 09, Revision D.01,
 Gaussian 09:  ES64L-G09RevD.01 24-Apr-2013

 -----------------------------
 # b3lyp 6-31G(2df,p) opt Freq
 -----------------------------

 -----
 titel
 -----
 Symbolic Z-matrix:
 Charge =  0 Multiplicity = 1

 SCF Done:  E(RB3LYP) =  -423.123727014     A.U. after   14 cycles
 Optimization completed.
    -- Stationary point found.
 Normal termination of Gaussian 09 at Mon Jan 27 12:11:09 2020.

 ----------------------------------------------------------------------
 #N Geom=AllCheck Guess=TCheck SCRF=Check GenChk RB3LYP/6-31G(2df,p) Fr
 eq
 ----------------------------------------------------------------------

 Structure from the checkpoint file:  "/scratch/puck/g09_f2f0ddd4-96ce-46b3-accd-30ff15d89d2f/Gau-52123.chk"
 -----
 titel
 -----
 Charge =  0 Multiplicity = 1

                         Standard orientation:
 ---------------------------------------------------------------------
 Center     Atomic      Atomic             Coordinates (Angstroms)
 Number     Number       Type             X           Y           Z
 ---------------------------------------------------------------------
      1          6           0       -2.518964   -0.279466    0.428571
      2          8           0       -2.189095    0.536570   -0.695890
      3          6           0       -1.312837   -0.547038   -0.369427
      4          6           0        0.060576   -0.203879    0.108647
      5          6           0        0.289298    1.123989    0.885434
      6          6           0        1.479043    1.479939   -0.061113
      7          6           0        1.277469    0.146490   -0.811076
      8          8           0        2.056854   -0.933478   -0.257585
      9          6           0        0.960160   -1.367840    0.574600
     10          1           0       -2.421961    0.205412    1.398799
     11          1           0       -3.397680   -0.911037    0.308205
     12          1           0       -1.356704   -1.374207   -1.081302
     13          1           0       -0.553559    1.809644    0.782224
     14          1           0        0.529594    1.007983    1.945507
     15          1           0        1.289578    2.362061   -0.677951
     16          1           0        2.462894    1.571598    0.403334
     17          1           0        1.273510    0.140443   -1.904581
     18          1           0        0.605206   -2.365055    0.278679
     19          1           0        1.218572   -1.384748    1.641065
 ---------------------------------------------------------------------

 SCF Done:  E(RB3LYP) =  -423.123727014     A.U. after    1 cycles

 The electronic state is 1-A.
 Alpha  occ. eigenvalues --  -19.15661 -19.13295 -10.24361 -10.23884 -10.23364
 Alpha  occ. eigenvalues --  -10.23213 -10.20047 -10.18599 -10.18152  -1.07601
 Alpha  occ. eigenvalues --   -1.04043  -0.82836  -0.73729  -0.67528  -0.66135
 Alpha  occ. eigenvalues --   -0.63008  -0.60952  -0.52600  -0.52377  -0.49876
 Alpha  occ. eigenvalues --   -0.48198  -0.46331  -0.42541  -0.42042  -0.40703
 Alpha  occ. eigenvalues --   -0.39794  -0.36826  -0.35390  -0.33350  -0.32856
 Alpha  occ. eigenvalues --   -0.30333  -0.27313  -0.27210  -0.24483
 Alpha virt. eigenvalues --    0.06593   0.08295   0.09847   0.10193   0.11140
 Alpha virt. eigenvalues --    0.12162   0.12639   0.13329   0.15242   0.16826
 Alpha virt. eigenvalues --    0.17288   0.18362   0.18668   0.19948   0.22332

 Mulliken charges:
               1
     1  C   -0.185068
     2  O   -0.232909
     3  C   -0.050034
     4  C    0.314501
     5  C   -0.309067
     6  C   -0.231077
     7  C    0.067751
     8  O   -0.291534
     9  C   -0.131592
    10  H    0.115309
    11  H    0.119494
    12  H    0.095410
    13  H    0.124947
    14  H    0.097264
    15  H    0.108382
    16  H    0.111790
    17  H    0.077950
    18  H    0.097763
    19  H    0.100720
 Sum of Mulliken charges =   0.00000

 Dipole moment (field-independent basis, Debye):
    X=             -1.0529    Y=             -0.5120    Z=              1.2405  Tot=              1.7057
 Quadrupole moment (field-independent basis, Debye-Ang):
   XX=            -58.1668   YY=            -52.5819   ZZ=            -51.7547
   XY=              5.6589   XZ=             -2.1075   YZ=              0.1644

  Exact polarizability:  82.079   3.375  73.683  -3.447  -0.136  68.357
 Approx polarizability: 110.952  -0.712 107.205  -5.323  -2.601 105.306

                      1                      2                      3
                      A                      A                      A
 Frequencies --     82.2486                92.4654               175.6587
 Red. masses --      3.9365                 2.6156                 2.8257
 Frc consts  --      0.0157                 0.0132                 0.0514
 IR Inten    --      3.7649                 3.2863                 0.2840

                      4                      5                      6
                      A                      A                      A
 Frequencies --    221.7175               313.8920               342.8566
 Red. masses --      3.1682                 2.4648                 2.7177
 Frc consts  --      0.0918                 0.1431                 0.1882
 IR Inten    --      3.1981                 2.6795                 0.2670

                      7                      8                      9
                      A                      A                      A
 Frequencies --    416.8676               479.6506               631.9971
 Red. masses --      3.2130                 3.6624                 2.8686
 Frc consts  --      0.3290                 0.4964                 0.6751
 IR Inten    --      2.5611                 6.9375                 0.4248

                     10                     11                     12
                      A                      A                      A
 Frequencies --    679.5731               743.1678               839.8370
 Red. masses --      3.4906                 1.2644                 2.3181
 Frc consts  --      0.9498                 0.4115                 0.9633
 IR Inten    --      1.7621                 0.5178                 9.9016

                     13                     14                     15
                      A                      A                      A
 Frequencies --    860.6750               883.3108               897.0303
 Red. masses --      5.0279                 2.3026                 2.0235
 Frc consts  --      2.1944                 1.0585                 0.9593
 IR Inten    --     36.4326                 4.0365                 4.4797

                     16                     17                     18
                      A                      A                      A
 Frequencies --    910.7600               942.1532               954.3493
 Red. masses --      4.3057                 2.1530                 2.3494
 Frc consts  --      2.1043                 1.1260                 1.2607
 IR Inten    --     17.9183                 2.6724                 0.2179

                     19                     20                     21
                      A                      A                      A
 Frequencies --   1004.3613              1023.3288              1039.8563
 Red. masses --      2.4759                 2.1537                 2.8974
 Frc consts  --      1.4715                 1.3288                 1.8459
 IR Inten    --     20.4833                35.3723                44.0855

                     22                     23                     24
                      A                      A                      A
 Frequencies --   1073.8927              1103.1668              1114.5901
 Red. masses --      1.9452                 1.5752                 1.9611
 Frc consts  --      1.3217                 1.1295                 1.4354
 IR Inten    --      1.7418                 1.2439                 9.2401

                     25                     26                     27
                      A                      A                      A
 Frequencies --   1153.1135              1156.6179              1172.1818
 Red. masses --      1.2963                 1.3737                 1.3358
 Frc consts  --      1.0156                 1.0827                 1.0814
 IR Inten    --      1.7578                 0.5722                 0.9669

                     28                     29                     30
                      A                      A                      A
 Frequencies --   1191.3468              1197.1772              1236.3766
 Red. masses --      2.2422                 1.6219                 1.3401
 Frc consts  --      1.8750                 1.3696                 1.2070
 IR Inten    --      5.0229                 5.9522                 3.5878

                     31                     32                     33
                      A                      A                      A
 Frequencies --   1250.6635              1270.5132              1282.4219
 Red. masses --      1.5513                 1.5669                 1.5750
 Frc consts  --      1.4296                 1.4902                 1.5262
 IR Inten    --      3.8455                 2.5572                 2.9507

                     34                     35                     36
                      A                      A                      A
 Frequencies --   1306.0155              1329.4424              1372.1713
 Red. masses --      1.4296                 1.6149                 1.5212
 Frc consts  --      1.4367                 1.6817                 1.6875
 IR Inten    --      7.9101                 7.5002                 1.0680

                     37                     38                     39
                      A                      A                      A
 Frequencies --   1438.8548              1460.6236              1480.2133
 Red. masses --      2.0712                 1.0862                 1.1223
 Frc consts  --      2.5264                 1.3653                 1.4488
 IR Inten    --     10.5023                 0.3819                 3.8986

                     40                     41                     42
                      A                      A                      A
 Frequencies --   1521.2243              1525.5353              2995.1865
 Red. masses --      1.1023                 1.3372                 1.0570
 Frc consts  --      1.5029                 1.8335                 5.5871
 IR Inten    --      0.6961                 3.2741                75.3505

                     43                     44                     45
                      A                      A                      A
 Frequencies --   3042.9839              3061.0078              3063.2731
 Red. masses --      1.1078                 1.0593                 1.0682
 Frc consts  --      6.0435                 5.8481                 5.9059
 IR Inten    --     34.7538                18.3673                51.7717

                     46                     47                     48
                      A                      A                      A
 Frequencies --   3074.9647              3084.4019              3088.8636
 Red. masses --      1.0812                 1.0636                 1.0732
 Frc consts  --      6.0235                 5.9615                 6.0327
 IR Inten    --     36.9530                35.3254                21.1894

                     49                     50                     51
                      A                      A                      A
 Frequencies --   3115.5874              3132.7007              3173.9834
 Red. masses --      1.1065                 1.1069                 1.1197
 Frc consts  --      6.3284                 6.4001                 6.6459
 IR Inten    --      0.3625                26.0952                24.8352

 - Thermochemistry -
 -------------------
 Temperature   298.150 Kelvin.  Pressure   1.00000 Atm.
 Atom     1 has atomic number  6 and mass  12.00000

 Molecular mass:   126.06808 amu.
 Principal axes and moments of inertia in atomic units:
                           1         2         3
     Eigenvalues --   567.777741354.946941574.55616
           X            0.99932   0.03594  -0.00855
           Y           -0.03584   0.99930   0.01059
           Z            0.00893  -0.01028   0.99991
 This molecule is an asymmetric top.
 Rotational symmetry number  1.
 Warning -- assumption of classical behavior for rotation
           may cause significant error
 Rotational temperatures (Kelvin)      0.15255     0.06392     0.05501
 Rotational constants (GHZ):           3.17861     1.33196     1.14619
 Zero-point vibrational energy     418722.0 (Joules/Mol)
                                  100.07696 (Kcal/Mol)
 Warning -- explicit consideration of   8 degrees of freedom as
           vibrations may cause significant error
 Vibrational temperatures:    118.34   133.04   252.73   319.00   451.62
          (Kelvin)            493.29   599.78   690.11   909.30   977.75
                             1069.25  1208.34  1238.32  1270.89  1290.62
                             1310.38  1355.55  1373.09  1445.05  1472.34
                             1496.12  1545.09  1587.21  1603.64  1659.07
                             1664.11  1686.51  1714.08  1722.47  1778.87
                             1799.42  1827.98  1845.12  1879.06  1912.77
                             1974.25  2070.19  2101.51  2129.69  2188.70
                             2194.90  4309.40  4378.17  4404.10  4407.36
                             4424.18  4437.76  4444.18  4482.63  4507.25
                             4566.65

 Zero-point correction=                           0.159483 (Hartree/Particle)
 Thermal correction to Energy=                    0.167390
 Thermal correction to Enthalpy=                  0.168334
 Thermal correction to Gibbs Free Energy=         0.126602
 Sum of electronic and zero-point Energies=           -422.964244
 Sum of electronic and thermal Energies=              -422.956337
 Sum of electronic and thermal Enthalpies=            -422.955393
 Sum of electronic and thermal Free Energies=         -422.997125

                     E (Thermal)             CV                S
                      KCal/Mol        Cal/Mol-Kelvin    Cal/Mol-Kelvin
 Total                  105.039             30.130             87.833
 Electronic               0.000              0.000              0.000
 Translational            0.889              2.981             40.409
 Rotational               0.889              2.981             28.584
 Vibrational            103.261             24.168             18.841
 Vibration     1          0.600              1.961              3.836
 Vibration     2          0.602              1.955              3.607
 Vibration     3          0.628              1.872              2.374
 Vibration     4          0.648              1.808              1.945
 Vibration     5          0.702              1.647              1.342
 Vibration     6          0.722              1.590              1.199
 Vibration     7          0.780              1.434              0.903
 Vibration     8          0.836              1.295              0.711

 Optimization completed.
    -- Stationary point found.
 Normal termination of Gaussian 09 at Mon Jan 27 12:58:24 2020.
