 Gaussian 09, Revision D.01,
 Gaussian 09:  ES64L-G09RevD.01 24-Apr-2013

 -----------------------------
 # b3lyp 6-31G(2df,p) opt Freq
 -----------------------------

 -----
 titel
 -----
 Symbolic Z-matrix:
 Charge =  0 Multiplicity = 1

 SCF Done:  E(RB3LYP) =  -423.209933234     A.U. after   14 cycles
 Optimization completed.
    -- Stationary point found.
 Normal termination of Gaussian 09 at Mon Jan 27 18:27:35 2020.

 ----------------------------------------------------------------------
 #N Geom=AllCheck Guess=TCheck SCRF=Check GenChk RB3LYP/6-31G(2df,p) Fr
 eq
 ----------------------------------------------------------------------

 Structure from the checkpoint file:  "/scratch/puck/g09_684e18ee-beaf-41b6-901d-2068cbb5c796/Gau-81744.chk"
 -----
 titel
 -----
 Charge =  0 Multiplicity = 1

                         Standard orientation:
 ---------------------------------------------------------------------
 Center     Atomic      Atomic             Coordinates (Angstroms)
 Number     Number       Type             X           Y           Z
 ---------------------------------------------------------------------
      1          6           0        2.351220    0.180434    0.276033
      2          6           0        0.857930    0.144836    0.024598
      3          6           0        0.246683    1.513235   -0.344301
      4          6           0       -1.256907    1.466525   -0.236008
      5          6           0       -1.881630    0.378114    0.209270
      6          6           0       -1.051811   -0.816211    0.619509
      7          6           0       -0.537180   -1.590031   -0.609275
      8          8           0        0.562112   -0.786786   -1.032880
      9          8           0        0.194560   -0.369197    1.165234
     10          1           0        2.706392   -0.826042    0.506719
     11          1           0        2.871922    0.545325   -0.613150
     12          1           0        2.579839    0.842235    1.115395
     13          1           0        0.653952    2.300450    0.304782
     14          1           0        0.549984    1.762604   -1.368228
     15          1           0       -1.812451    2.353689   -0.527886
     16          1           0       -2.963205    0.313170    0.271055
     17          1           0       -1.544321   -1.444689    1.363560
     18          1           0       -0.195558   -2.596427   -0.331498
     19          1           0       -1.269760   -1.663857   -1.418536
 ---------------------------------------------------------------------

 SCF Done:  E(RB3LYP) =  -423.209933234     A.U. after    1 cycles

 The electronic state is 1-A.
 Alpha  occ. eigenvalues --  -19.14241 -19.13471 -10.27790 -10.23739 -10.22715
 Alpha  occ. eigenvalues --  -10.18702 -10.18376 -10.18079 -10.17380  -1.08473
 Alpha  occ. eigenvalues --   -0.98403  -0.80015  -0.79773  -0.70369  -0.67402
 Alpha  occ. eigenvalues --   -0.62911  -0.58391  -0.53563  -0.51553  -0.47395
 Alpha  occ. eigenvalues --   -0.46042  -0.45045  -0.43610  -0.40790  -0.40283
 Alpha  occ. eigenvalues --   -0.38959  -0.37735  -0.37409  -0.34962  -0.33399
 Alpha  occ. eigenvalues --   -0.32591  -0.26347  -0.25860  -0.24071
 Alpha virt. eigenvalues --    0.01447   0.09076   0.11459   0.11774   0.12958
 Alpha virt. eigenvalues --    0.13909   0.15153   0.15979   0.17036   0.17507
 Alpha virt. eigenvalues --    0.18296   0.19035   0.19876   0.21752   0.22523

 Mulliken charges:
               1
     1  C   -0.446073
     2  C    0.444355
     3  C   -0.281025
     4  C   -0.058940
     5  C   -0.064241
     6  C   -0.002825
     7  C   -0.084741
     8  O   -0.308703
     9  O   -0.277327
    10  H    0.128256
    11  H    0.125903
    12  H    0.124972
    13  H    0.107091
    14  H    0.117880
    15  H    0.093570
    16  H    0.090564
    17  H    0.087132
    18  H    0.097081
    19  H    0.107072
 Sum of Mulliken charges =   0.00000

 Dipole moment (field-independent basis, Debye):
    X=             -0.9108    Y=              0.3363    Z=             -0.1013  Tot=              0.9762
 Quadrupole moment (field-independent basis, Debye-Ang):
   XX=            -49.3800   YY=            -49.6776   ZZ=            -56.9510
   XY=              2.7066   XZ=              0.3494   YZ=             -1.4110

  Exact polarizability:  83.581   5.632  82.510  -0.934  -4.104  59.278
 Approx polarizability: 113.185  13.511 122.068  -4.322  -8.651  96.617

                      1                      2                      3
                      A                      A                      A
 Frequencies --    156.1052               203.9688               264.5916
 Red. masses --      2.6992                 1.0426                 2.1600
 Frc consts  --      0.0388                 0.0256                 0.0891
 IR Inten    --      2.2305                 0.2315                 1.7330

                      4                      5                      6
                      A                      A                      A
 Frequencies --    285.2273               331.0933               392.5538
 Red. masses --      3.0081                 3.2401                 2.4356
 Frc consts  --      0.1442                 0.2093                 0.2211
 IR Inten    --      0.7518                 1.5908                 3.2880

                      7                      8                      9
                      A                      A                      A
 Frequencies --    456.5469               510.2696               533.3916
 Red. masses --      2.5631                 4.6355                 4.0060
 Frc consts  --      0.3148                 0.7111                 0.6715
 IR Inten    --      3.3329                 6.5058                 0.4731

                     10                     11                     12
                      A                      A                      A
 Frequencies --    646.1993               683.2604               734.6044
 Red. masses --      3.6530                 2.0253                 3.1844
 Frc consts  --      0.8987                 0.5571                 1.0125
 IR Inten    --      1.9327                10.8528                11.1512

                     13                     14                     15
                      A                      A                      A
 Frequencies --    814.9022               834.7837               862.0296
 Red. masses --      4.2035                 2.9585                 3.1436
 Frc consts  --      1.6446                 1.2147                 1.3763
 IR Inten    --      0.9492                46.4427                14.6300

                     16                     17                     18
                      A                      A                      A
 Frequencies --    896.6127               902.9629               956.6375
 Red. masses --      3.3448                 2.2362                 1.8750
 Frc consts  --      1.5843                 1.0742                 1.0110
 IR Inten    --     22.0192                 3.1355                 0.3498

                     19                     20                     21
                      A                      A                      A
 Frequencies --    965.4425               986.9259               991.4382
 Red. masses --      1.7892                 1.8675                 1.3333
 Frc consts  --      0.9826                 1.0717                 0.7722
 IR Inten    --      1.8670                 1.9687                 1.1141

                     22                     23                     24
                      A                      A                      A
 Frequencies --   1034.2293              1056.0400              1083.1250
 Red. masses --      3.5612                 6.7535                 1.8626
 Frc consts  --      2.2443                 4.4375                 1.2874
 IR Inten    --     12.9326               120.8117                13.5007

                     25                     26                     27
                      A                      A                      A
 Frequencies --   1115.4764              1175.4275              1199.6471
 Red. masses --      1.6688                 1.2277                 1.4721
 Frc consts  --      1.2234                 0.9994                 1.2482
 IR Inten    --     11.8034                 8.6019                26.6223

                     28                     29                     30
                      A                      A                      A
 Frequencies --   1210.9669              1230.7390              1244.6693
 Red. masses --      1.5362                 1.2725                 2.8656
 Frc consts  --      1.3273                 1.1356                 2.6157
 IR Inten    --     10.2171                11.3059                64.7426

                     31                     32                     33
                      A                      A                      A
 Frequencies --   1284.1988              1356.3972              1366.8695
 Red. masses --      1.5690                 1.3506                 1.4767
 Frc consts  --      1.5246                 1.4641                 1.6255
 IR Inten    --      4.2299                10.5512                 4.7014

                     34                     35                     36
                      A                      A                      A
 Frequencies --   1371.0404              1402.4156              1414.2120
 Red. masses --      1.7681                 1.4990                 1.5692
 Frc consts  --      1.9582                 1.7370                 1.8490
 IR Inten    --     10.4178                 1.0266                28.3621

                     37                     38                     39
                      A                      A                      A
 Frequencies --   1458.9340              1482.2253              1486.3861
 Red. masses --      1.0970                 1.0538                 1.0523
 Frc consts  --      1.3757                 1.3641                 1.3697
 IR Inten    --      2.5379                 1.2216                 2.4662

                     40                     41                     42
                      A                      A                      A
 Frequencies --   1514.4446              1711.3810              3008.7759
 Red. masses --      1.0935                 6.4831                 1.0651
 Frc consts  --      1.4777                11.1873                 5.6810
 IR Inten    --      0.4094                 5.3499                78.7690

                     43                     44                     45
                      A                      A                      A
 Frequencies --   3016.2642              3053.7385              3057.6848
 Red. masses --      1.0631                 1.0350                 1.0968
 Frc consts  --      5.6987                 5.6867                 6.0415
 IR Inten    --     22.7195                11.9026                12.0096

                     46                     47                     48
                      A                      A                      A
 Frequencies --   3082.5326              3103.6053              3130.5648
 Red. masses --      1.0997                 1.0884                 1.1019
 Frc consts  --      6.1563                 6.1767                 6.3626
 IR Inten    --     30.0256                32.6346                14.0047

                     49                     50                     51
                      A                      A                      A
 Frequencies --   3139.6313              3157.8703              3185.5852
 Red. masses --      1.1027                 1.0851                 1.0983
 Frc consts  --      6.4042                 6.3753                 6.5666
 IR Inten    --     13.4790                10.1936                25.1254

 - Thermochemistry -
 -------------------
 Temperature   298.150 Kelvin.  Pressure   1.00000 Atm.
 Atom     1 has atomic number  6 and mass  12.00000

 Molecular mass:   126.06808 amu.
 Principal axes and moments of inertia in atomic units:
                           1         2         3
     Eigenvalues --   689.09386 924.477441188.14659
           X            0.99838   0.05556   0.01258
           Y           -0.05532   0.99829  -0.01865
           Z           -0.01360   0.01792   0.99975
 This molecule is an asymmetric top.
 Rotational symmetry number  1.
 Warning -- assumption of classical behavior for rotation
           may cause significant error
 Rotational temperatures (Kelvin)      0.12569     0.09369     0.07290
 Rotational constants (GHZ):           2.61901     1.95217     1.51896
 Zero-point vibrational energy     421950.6 (Joules/Mol)
                                  100.84860 (Kcal/Mol)
 Warning -- explicit consideration of   9 degrees of freedom as
           vibrations may cause significant error
 Vibrational temperatures:    224.60   293.47   380.69   410.38   476.37
          (Kelvin)            564.80   656.87   734.16   767.43   929.74
                              983.06  1056.93  1172.46  1201.07  1240.27
                             1290.02  1299.16  1376.39  1389.05  1419.96
                             1426.46  1488.02  1519.40  1558.37  1604.92
                             1691.18  1726.02  1742.31  1770.76  1790.80
                             1847.67  1951.55  1966.62  1972.62  2017.76
                             2034.73  2099.08  2132.59  2138.58  2178.95
                             2462.29  4328.95  4339.73  4393.64  4399.32
                             4435.07  4465.39  4504.18  4517.22  4543.47
                             4583.34

 Zero-point correction=                           0.160712 (Hartree/Particle)
 Thermal correction to Energy=                    0.168111
 Thermal correction to Enthalpy=                  0.169055
 Thermal correction to Gibbs Free Energy=         0.129405
 Sum of electronic and zero-point Energies=           -423.049221
 Sum of electronic and thermal Energies=              -423.041822
 Sum of electronic and thermal Enthalpies=            -423.040878
 Sum of electronic and thermal Free Energies=         -423.080528

                     E (Thermal)             CV                S
                      KCal/Mol        Cal/Mol-Kelvin    Cal/Mol-Kelvin
 Total                  105.491             30.222             83.450
 Electronic               0.000              0.000              0.000
 Translational            0.889              2.981             40.409
 Rotational               0.889              2.981             28.117
 Vibrational            103.714             24.261             14.925
 Vibration     1          0.620              1.896              2.596
 Vibration     2          0.640              1.834              2.097
 Vibration     3          0.671              1.738              1.631
 Vibration     4          0.683              1.701              1.502
 Vibration     5          0.713              1.613              1.255
 Vibration     6          0.760              1.486              0.990
 Vibration     7          0.815              1.346              0.776
 Vibration     8          0.865              1.227              0.633
 Vibration     9          0.888              1.176              0.580

 Optimization completed.
    -- Stationary point found.
 Normal termination of Gaussian 09 at Mon Jan 27 19:22:02 2020.
