 Gaussian 09, Revision D.01,
 Gaussian 09:  ES64L-G09RevD.01 24-Apr-2013

 -----------------------------
 # b3lyp 6-31G(2df,p) opt Freq
 -----------------------------

 -----
 titel
 -----
 Symbolic Z-matrix:
 Charge =  0 Multiplicity = 1

 SCF Done:  E(RB3LYP) =  -423.164713122     A.U. after   14 cycles
 Optimization completed.
    -- Stationary point found.
 Normal termination of Gaussian 09 at Mon Jan 27 16:17:21 2020.

 ----------------------------------------------------------------------
 #N Geom=AllCheck Guess=TCheck SCRF=Check GenChk RB3LYP/6-31G(2df,p) Fr
 eq
 ----------------------------------------------------------------------

 Structure from the checkpoint file:  "/scratch/puck/g09_10083618-0ff9-4638-8d22-9f38ce9d559f/Gau-57027.chk"
 -----
 titel
 -----
 Charge =  0 Multiplicity = 1

                         Standard orientation:
 ---------------------------------------------------------------------
 Center     Atomic      Atomic             Coordinates (Angstroms)
 Number     Number       Type             X           Y           Z
 ---------------------------------------------------------------------
      1          6           0        2.420719   -0.636231    0.505701
      2          6           0        1.247514    0.205157    0.013773
      3          6           0        1.697553    1.512751   -0.634462
      4          6           0        0.070494    0.422344    1.045881
      5          6           0       -0.866719   -0.304421    0.085059
      6          8           0       -0.332933   -1.619078   -0.159289
      7          6           0        0.238919   -0.551584   -0.888044
      8          6           0       -2.288880   -0.077486   -0.221129
      9          8           0       -2.945163    0.815150    0.258396
     10          1           0        2.967593   -0.110693    1.296334
     11          1           0        2.070223   -1.590221    0.907583
     12          1           0        3.126768   -0.843157   -0.306520
     13          1           0        2.371019    1.321355   -1.477649
     14          1           0        0.846122    2.091322   -1.008998
     15          1           0        2.234388    2.136628    0.087690
     16          1           0        0.181109   -0.056762    2.020835
     17          1           0       -0.196001    1.472421    1.176226
     18          1           0        0.210369   -0.612489   -1.972271
     19          1           0       -2.704422   -0.800162   -0.956771
 ---------------------------------------------------------------------

 SCF Done:  E(RB3LYP) =  -423.164713122     A.U. after    1 cycles

 The electronic state is 1-A.
 Alpha  occ. eigenvalues --  -19.17581 -19.14244 -10.27581 -10.25598 -10.25371
 Alpha  occ. eigenvalues --  -10.21523 -10.19629 -10.18822 -10.18074  -1.10272
 Alpha  occ. eigenvalues --   -1.04813  -0.83867  -0.74659  -0.69816  -0.68435
 Alpha  occ. eigenvalues --   -0.66223  -0.56167  -0.55274  -0.50843  -0.48216
 Alpha  occ. eigenvalues --   -0.46233  -0.45405  -0.43602  -0.42805  -0.40859
 Alpha  occ. eigenvalues --   -0.39952  -0.38895  -0.37752  -0.35045  -0.34694
 Alpha  occ. eigenvalues --   -0.33744  -0.30207  -0.27029  -0.25806
 Alpha virt. eigenvalues --   -0.03765   0.08084   0.09271   0.11081   0.12262
 Alpha virt. eigenvalues --    0.12576   0.13394   0.14001   0.14845   0.15863
 Alpha virt. eigenvalues --    0.16275   0.17616   0.18197   0.19300   0.20721

 Mulliken charges:
               1
     1  C   -0.447703
     2  C    0.300965
     3  C   -0.448689
     4  C   -0.362639
     5  C    0.325377
     6  O   -0.275077
     7  C   -0.063586
     8  C    0.060914
     9  O   -0.260739
    10  H    0.117924
    11  H    0.133997
    12  H    0.114369
    13  H    0.117676
    14  H    0.121241
    15  H    0.125076
    16  H    0.114237
    17  H    0.130260
    18  H    0.109718
    19  H    0.086679
 Sum of Mulliken charges =   0.00000

 Dipole moment (field-independent basis, Debye):
    X=              2.5816    Y=              0.1446    Z=             -1.0605  Tot=              2.7947
 Quadrupole moment (field-independent basis, Debye-Ang):
   XX=            -59.4193   YY=            -57.1009   ZZ=            -50.4374
   XY=              4.3455   XZ=              1.8214   YZ=              0.0645

  Exact polarizability:  94.977  -2.648  69.860  -1.382   4.094  68.502
 Approx polarizability: 129.012 -11.880 113.498  -9.966  10.494 106.027

                      1                      2                      3
                      A                      A                      A
 Frequencies --     86.0043               150.6543               172.2153
 Red. masses --      4.6531                 4.0079                 3.0897
 Frc consts  --      0.0203                 0.0536                 0.0540
 IR Inten    --      2.4217                 3.8181                 8.1661

                      4                      5                      6
                      A                      A                      A
 Frequencies --    231.0421               258.7142               279.1108
 Red. masses --      1.0581                 1.1811                 2.4954
 Frc consts  --      0.0333                 0.0466                 0.1145
 IR Inten    --      0.1959                 0.1181                 6.8558

                      7                      8                      9
                      A                      A                      A
 Frequencies --    290.5132               337.4210               382.1774
 Red. masses --      2.3194                 2.3713                 2.3197
 Frc consts  --      0.1153                 0.1591                 0.1996
 IR Inten    --      1.0183                 0.9758                 2.1059

                     10                     11                     12
                      A                      A                      A
 Frequencies --    429.2974               494.2296               552.1003
 Red. masses --      1.9922                 6.3970                 4.2472
 Frc consts  --      0.2163                 0.9206                 0.7628
 IR Inten    --      6.7982                 0.6168                 5.9532

                     13                     14                     15
                      A                      A                      A
 Frequencies --    623.9720               735.9140               792.8103
 Red. masses --      4.2943                 3.3015                 4.3253
 Frc consts  --      0.9851                 1.0535                 1.6018
 IR Inten    --     15.9367                13.0693                12.1596

                     16                     17                     18
                      A                      A                      A
 Frequencies --    841.3431               874.0702               922.2638
 Red. masses --      2.6723                 2.8455                 2.0762
 Frc consts  --      1.1145                 1.2809                 1.0405
 IR Inten    --      6.9643                26.0547                 9.8842

                     19                     20                     21
                      A                      A                      A
 Frequencies --    941.1498               958.0281               971.5845
 Red. masses --      3.4184                 1.3936                 1.8180
 Frc consts  --      1.7840                 0.7536                 1.0111
 IR Inten    --      2.9033                 3.1394                 2.6206

                     22                     23                     24
                      A                      A                      A
 Frequencies --    999.6558              1034.1936              1047.9806
 Red. masses --      1.4907                 1.5787                 1.4890
 Frc consts  --      0.8777                 0.9948                 0.9635
 IR Inten    --      2.2827                 4.5358                 3.0999

                     25                     26                     27
                      A                      A                      A
 Frequencies --   1108.2964              1189.0854              1198.2571
 Red. masses --      1.4605                 1.9520                 1.6172
 Frc consts  --      1.0570                 1.6262                 1.3681
 IR Inten    --     11.0732                 6.1746                 1.2201

                     28                     29                     30
                      A                      A                      A
 Frequencies --   1210.5551              1267.4718              1275.9712
 Red. masses --      1.6421                 3.2899                 2.7407
 Frc consts  --      1.4178                 3.1140                 2.6290
 IR Inten    --      8.7685                14.1911                 0.7487

                     31                     32                     33
                      A                      A                      A
 Frequencies --   1322.1189              1367.9987              1400.9386
 Red. masses --      2.8235                 1.7441                 1.2632
 Frc consts  --      2.9079                 1.9231                 1.4607
 IR Inten    --     13.3751                 6.1362                 6.6362

                     34                     35                     36
                      A                      A                      A
 Frequencies --   1417.8913              1437.0187              1474.1407
 Red. masses --      1.2696                 2.0689                 1.1354
 Frc consts  --      1.5038                 2.5171                 1.4537
 IR Inten    --      1.5982                31.3002                 9.0557

                     37                     38                     39
                      A                      A                      A
 Frequencies --   1485.8507              1488.5439              1502.1036
 Red. masses --      1.0516                 1.0470                 1.0609
 Frc consts  --      1.3678                 1.3668                 1.4104
 IR Inten    --      3.1316                 0.6500                 0.9542

                     40                     41                     42
                      A                      A                      A
 Frequencies --   1510.7830              1806.9849              2901.7066
 Red. masses --      1.0536                10.5310                 1.0839
 Frc consts  --      1.4169                20.2595                 5.3771
 IR Inten    --      6.7522               225.4379                93.2107

                     43                     44                     45
                      A                      A                      A
 Frequencies --   3025.5436              3031.0235              3076.9519
 Red. masses --      1.0350                 1.0365                 1.0589
 Frc consts  --      5.5822                 5.6102                 5.9066
 IR Inten    --     19.2652                28.5910                13.8819

                     46                     47                     48
                      A                      A                      A
 Frequencies --   3091.1966              3094.3737              3100.4296
 Red. masses --      1.1013                 1.1008                 1.1013
 Frc consts  --      6.2001                 6.2101                 6.2372
 IR Inten    --      4.6102                35.8668                23.4849

                     49                     50                     51
                      A                      A                      A
 Frequencies --   3120.4118              3139.4612              3163.2415
 Red. masses --      1.1001                 1.1080                 1.0928
 Frc consts  --      6.3109                 6.4341                 6.4428
 IR Inten    --     13.4688                 9.9546                14.6184

 - Thermochemistry -
 -------------------
 Temperature   298.150 Kelvin.  Pressure   1.00000 Atm.
 Atom     1 has atomic number  6 and mass  12.00000

 Molecular mass:   126.06808 amu.
 Principal axes and moments of inertia in atomic units:
                           1         2         3
     Eigenvalues --   565.137831523.486291740.23656
           X            0.99976   0.02027   0.00830
           Y           -0.02005   0.99947  -0.02564
           Z           -0.00881   0.02547   0.99964
 This molecule is an asymmetric top.
 Rotational symmetry number  1.
 Warning -- assumption of classical behavior for rotation
           may cause significant error
 Rotational temperatures (Kelvin)      0.15326     0.05685     0.04977
 Rotational constants (GHZ):           3.19345     1.18461     1.03707
 Zero-point vibrational energy     410407.6 (Joules/Mol)
                                   98.08977 (Kcal/Mol)
 Warning -- explicit consideration of  12 degrees of freedom as
           vibrations may cause significant error
 Vibrational temperatures:    123.74   216.76   247.78   332.42   372.23
          (Kelvin)            401.58   417.98   485.47   549.87   617.66
                              711.09   794.35   897.76  1058.81  1140.68
                             1210.50  1257.59  1326.93  1354.10  1378.39
                             1397.89  1438.28  1487.97  1507.81  1594.59
                             1710.83  1724.02  1741.72  1823.61  1835.84
                             1902.23  1968.24  2015.64  2040.03  2067.55
                             2120.96  2137.81  2141.68  2161.19  2173.68
                             2599.84  4174.90  4353.08  4360.96  4427.04
                             4447.54  4452.11  4460.82  4489.57  4516.98
                             4551.19

 Zero-point correction=                           0.156316 (Hartree/Particle)
 Thermal correction to Energy=                    0.165326
 Thermal correction to Enthalpy=                  0.166270
 Thermal correction to Gibbs Free Energy=         0.122915
 Sum of electronic and zero-point Energies=           -423.008397
 Sum of electronic and thermal Energies=              -422.999387
 Sum of electronic and thermal Enthalpies=            -422.998443
 Sum of electronic and thermal Free Energies=         -423.041798

                     E (Thermal)             CV                S
                      KCal/Mol        Cal/Mol-Kelvin    Cal/Mol-Kelvin
 Total                  103.744             34.062             91.248
 Electronic               0.000              0.000              0.000
 Translational            0.889              2.981             40.409
 Rotational               0.889              2.981             28.795
 Vibrational            101.966             28.101             22.044
 Vibration     1          0.601              1.959              3.749
 Vibration     2          0.618              1.902              2.664
 Vibration     3          0.626              1.877              2.411
 Vibration     4          0.653              1.794              1.871
 Vibration     5          0.668              1.748              1.670
 Vibration     6          0.679              1.712              1.539
 Vibration     7          0.686              1.691              1.471
 Vibration     8          0.718              1.601              1.224
 Vibration     9          0.752              1.508              1.031
 Vibration    10          0.791              1.406              0.861
 Vibration    11          0.850              1.263              0.673
 Vibration    12          0.907              1.135              0.540

 Optimization completed.
    -- Stationary point found.
 Normal termination of Gaussian 09 at Mon Jan 27 16:59:25 2020.
