 Gaussian 09, Revision D.01,
 Gaussian 09:  ES64L-G09RevD.01 24-Apr-2013

 -----------------------------
 # b3lyp 6-31G(2df,p) opt Freq
 -----------------------------

 -----
 titel
 -----
 Symbolic Z-matrix:
 Charge =  0 Multiplicity = 1

 SCF Done:  E(RB3LYP) =  -423.123878384     A.U. after   14 cycles
 Optimization completed.
    -- Stationary point found.
 Normal termination of Gaussian 09 at Mon Jan 27 16:09:06 2020.

 ----------------------------------------------------------------------
 #N Geom=AllCheck Guess=TCheck SCRF=Check GenChk RB3LYP/6-31G(2df,p) Fr
 eq
 ----------------------------------------------------------------------

 Structure from the checkpoint file:  "/scratch/puck/g09_3b8f03e5-deca-4347-bfcb-7db5b1c36b0c/Gau-144583.chk"
 -----
 titel
 -----
 Charge =  0 Multiplicity = 1

                         Standard orientation:
 ---------------------------------------------------------------------
 Center     Atomic      Atomic             Coordinates (Angstroms)
 Number     Number       Type             X           Y           Z
 ---------------------------------------------------------------------
      1          6           0       -1.139864   -1.145181    1.249795
      2          6           0       -0.630219   -0.575092   -0.062119
      3          8           0       -0.748602   -1.490156   -1.134361
      4          6           0       -1.246431    0.766035   -0.530548
      5          8           0       -0.964060    1.743336    0.470525
      6          6           0        0.058428    1.439766   -0.499855
      7          6           0        0.749256    0.177174   -0.035326
      8          6           0        2.041390   -0.370961   -0.550572
      9          6           0        1.910602    0.037550    0.900358
     10          1           0       -0.494149   -1.961255    1.598962
     11          1           0       -1.150351   -0.369803    2.019003
     12          1           0       -2.151474   -1.543067    1.123662
     13          1           0       -0.301042   -2.305658   -0.885375
     14          1           0       -2.112882    0.903124   -1.167000
     15          1           0        0.444863    2.263688   -1.088969
     16          1           0        2.086351   -1.429186   -0.789960
     17          1           0        2.635923    0.251649   -1.211729
     18          1           0        1.869492   -0.749047    1.647706
     19          1           0        2.415605    0.938373    1.233991
 ---------------------------------------------------------------------

 SCF Done:  E(RB3LYP) =  -423.123878384     A.U. after    1 cycles

 The electronic state is 1-A.
 Alpha  occ. eigenvalues --  -19.15005 -19.14211 -10.24360 -10.23528 -10.23147
 Alpha  occ. eigenvalues --  -10.19675 -10.19152 -10.18805 -10.17472  -1.07684
 Alpha  occ. eigenvalues --   -1.02486  -0.86268  -0.76889  -0.71161  -0.63557
 Alpha  occ. eigenvalues --   -0.60557  -0.59474  -0.54627  -0.51778  -0.49795
 Alpha  occ. eigenvalues --   -0.46641  -0.45342  -0.43743  -0.40687  -0.39476
 Alpha  occ. eigenvalues --   -0.38048  -0.36594  -0.36175  -0.34454  -0.32082
 Alpha  occ. eigenvalues --   -0.29147  -0.28586  -0.25569  -0.25176
 Alpha virt. eigenvalues --    0.05952   0.09185   0.09723   0.10640   0.11895
 Alpha virt. eigenvalues --    0.12399   0.14037   0.15214   0.15887   0.17155
 Alpha virt. eigenvalues --    0.18103   0.18977   0.20444   0.20492   0.23081

 Mulliken charges:
               1
     1  C   -0.458540
     2  C    0.265602
     3  O   -0.471640
     4  C    0.017835
     5  O   -0.252454
     6  C   -0.091798
     7  C    0.338920
     8  C   -0.324938
     9  C   -0.331690
    10  H    0.103301
    11  H    0.142689
    12  H    0.122355
    13  H    0.278641
    14  H    0.107295
    15  H    0.105343
    16  H    0.101993
    17  H    0.116892
    18  H    0.112500
    19  H    0.117695
 Sum of Mulliken charges =   0.00000

 Dipole moment (field-independent basis, Debye):
    X=              1.2385    Y=             -1.3288    Z=             -0.1994  Tot=              1.8274
 Quadrupole moment (field-independent basis, Debye-Ang):
   XX=            -52.8379   YY=            -50.5964   ZZ=            -55.0042
   XY=              1.2384   XZ=             -0.2116   YZ=             -3.9533

  Exact polarizability:  82.309   0.709  75.130   0.422  -2.074  67.386
 Approx polarizability: 116.015  -0.326 110.137   0.898   3.092 102.963

                      1                      2                      3
                      A                      A                      A
 Frequencies --    103.1184               194.2596               206.8727
 Red. masses --      2.7454                 1.1773                 2.4781
 Frc consts  --      0.0172                 0.0262                 0.0625
 IR Inten    --      6.0506                75.4859                 8.3685

                      4                      5                      6
                      A                      A                      A
 Frequencies --    216.8654               249.4867               261.1584
 Red. masses --      2.6536                 1.2549                 2.4233
 Frc consts  --      0.0735                 0.0460                 0.0974
 IR Inten    --      9.2175                 2.7766                 6.4877

                      7                      8                      9
                      A                      A                      A
 Frequencies --    307.1383               367.8745               410.6986
 Red. masses --      3.2047                 3.1870                 3.1750
 Frc consts  --      0.1781                 0.2541                 0.3155
 IR Inten    --      5.1120                12.0387                 5.7069

                     10                     11                     12
                      A                      A                      A
 Frequencies --    533.0300               567.9600               597.6076
 Red. masses --      6.2454                 3.7966                 3.5500
 Frc consts  --      1.0455                 0.7216                 0.7470
 IR Inten    --      4.8942                 2.7392                 3.2471

                     13                     14                     15
                      A                      A                      A
 Frequencies --    659.0200               768.5972               836.2904
 Red. masses --      3.2916                 1.0760                 5.4723
 Frc consts  --      0.8423                 0.3745                 2.2549
 IR Inten    --      2.0524                 0.3320                13.1029

                     16                     17                     18
                      A                      A                      A
 Frequencies --    856.1890               870.0512               884.8119
 Red. masses --      1.5261                 2.1237                 2.3219
 Frc consts  --      0.6592                 0.9472                 1.0710
 IR Inten    --     14.2755                 4.3199                20.5454

                     19                     20                     21
                      A                      A                      A
 Frequencies --    927.0237               957.5071               976.1936
 Red. masses --      1.2691                 2.0305                 2.6635
 Frc consts  --      0.6426                 1.0968                 1.4955
 IR Inten    --      1.6725                 9.1677                18.2891

                     22                     23                     24
                      A                      A                      A
 Frequencies --    986.0437               995.2909              1049.5405
 Red. masses --      3.1306                 3.4590                 1.3463
 Frc consts  --      1.7934                 2.0188                 0.8737
 IR Inten    --      4.8332                30.0835                 2.7587

                     25                     26                     27
                      A                      A                      A
 Frequencies --   1052.9243              1073.6492              1098.8306
 Red. masses --      1.4046                 1.4036                 1.4954
 Frc consts  --      0.9175                 0.9533                 1.0638
 IR Inten    --      4.6325                 0.4733                34.8186

                     28                     29                     30
                      A                      A                      A
 Frequencies --   1152.1373              1178.7785              1194.8104
 Red. masses --      2.2265                 1.4380                 2.4446
 Frc consts  --      1.7413                 1.1773                 2.0562
 IR Inten    --     23.2817                 7.9626                19.7616

                     31                     32                     33
                      A                      A                      A
 Frequencies --   1210.9418              1218.8568              1250.1727
 Red. masses --      1.4855                 1.9324                 1.9806
 Frc consts  --      1.2835                 1.6914                 1.8238
 IR Inten    --      9.4731                33.5643                44.9597

                     34                     35                     36
                      A                      A                      A
 Frequencies --   1368.9799              1381.2148              1394.5857
 Red. masses --      3.7078                 1.7565                 2.4012
 Frc consts  --      4.0942                 1.9743                 2.7515
 IR Inten    --     15.2576                 6.9225                18.0642

                     37                     38                     39
                      A                      A                      A
 Frequencies --   1404.1693              1467.1576              1487.5899
 Red. masses --      1.5618                 1.0866                 1.0742
 Frc consts  --      1.8143                 1.3781                 1.4006
 IR Inten    --     13.4807                 2.3283                 1.4363

                     40                     41                     42
                      A                      A                      A
 Frequencies --   1494.9558              1508.3844              3024.3308
 Red. masses --      1.0974                 1.4491                 1.0412
 Frc consts  --      1.4450                 1.9426                 5.6113
 IR Inten    --      5.0112                 1.7009                22.2086

                     43                     44                     45
                      A                      A                      A
 Frequencies --   3092.3334              3120.3262              3125.4255
 Red. masses --      1.0948                 1.0521                 1.0567
 Frc consts  --      6.1683                 6.0352                 6.0817
 IR Inten    --     20.9623                19.1558                14.0384

                     46                     47                     48
                      A                      A                      A
 Frequencies --   3133.7077              3178.9506              3195.4291
 Red. masses --      1.1005                 1.0882                 1.1019
 Frc consts  --      6.3672                 6.4795                 6.6291
 IR Inten    --      9.7675                14.6294                17.2443

                     49                     50                     51
                      A                      A                      A
 Frequencies --   3195.7985              3211.5148              3808.9648
 Red. masses --      1.1165                 1.1151                 1.0661
 Frc consts  --      6.7181                 6.7760                 9.1126
 IR Inten    --      3.1445                16.1884                13.7626

 - Thermochemistry -
 -------------------
 Temperature   298.150 Kelvin.  Pressure   1.00000 Atm.
 Atom     1 has atomic number  6 and mass  12.00000

 Molecular mass:   126.06808 amu.
 Principal axes and moments of inertia in atomic units:
                           1         2         3
     Eigenvalues --   853.72758 982.695831266.74621
           X            0.99688   0.07659  -0.01917
           Y           -0.07790   0.99369  -0.08071
           Z            0.01287   0.08195   0.99655
 This molecule is an asymmetric top.
 Rotational symmetry number  1.
 Warning -- assumption of classical behavior for rotation
           may cause significant error
 Rotational temperatures (Kelvin)      0.10145     0.08814     0.06838
 Rotational constants (GHZ):           2.11395     1.83652     1.42471
 Zero-point vibrational energy     411560.5 (Joules/Mol)
                                   98.36533 (Kcal/Mol)
 Warning -- explicit consideration of  12 degrees of freedom as
           vibrations may cause significant error
 Vibrational temperatures:    148.36   279.50   297.64   312.02   358.96
          (Kelvin)            375.75   441.90   529.29   590.90   766.91
                              817.17   859.82   948.18  1105.84  1203.23
                             1231.86  1251.81  1273.05  1333.78  1377.64
                             1404.52  1418.70  1432.00  1510.05  1514.92
                             1544.74  1580.97  1657.67  1696.00  1719.06
                             1742.27  1753.66  1798.72  1969.65  1987.26
                             2006.50  2020.28  2110.91  2140.31  2150.91
                             2170.23  4351.33  4449.17  4489.45  4496.78
                             4508.70  4573.80  4597.50  4598.04  4620.65
                             5480.24

 Zero-point correction=                           0.156755 (Hartree/Particle)
 Thermal correction to Energy=                    0.165465
 Thermal correction to Enthalpy=                  0.166409
 Thermal correction to Gibbs Free Energy=         0.124000
 Sum of electronic and zero-point Energies=           -422.967123
 Sum of electronic and thermal Energies=              -422.958413
 Sum of electronic and thermal Enthalpies=            -422.957469
 Sum of electronic and thermal Free Energies=         -422.999879

                     E (Thermal)             CV                S
                      KCal/Mol        Cal/Mol-Kelvin    Cal/Mol-Kelvin
 Total                  103.831             33.989             89.258
 Electronic               0.000              0.000              0.000
 Translational            0.889              2.981             40.409
 Rotational               0.889              2.981             28.454
 Vibrational            102.053             28.028             20.395
 Vibration     1          0.605              1.947              3.395
 Vibration     2          0.635              1.848              2.187
 Vibration     3          0.641              1.830              2.071
 Vibration     4          0.646              1.815              1.985
 Vibration     5          0.662              1.764              1.734
 Vibration     6          0.669              1.744              1.654
 Vibration     7          0.697              1.660              1.378
 Vibration     8          0.740              1.538              1.089
 Vibration     9          0.775              1.447              0.924
 Vibration    10          0.888              1.177              0.580
 Vibration    11          0.924              1.101              0.508
 Vibration    12          0.956              1.037              0.454

 Optimization completed.
    -- Stationary point found.
 Normal termination of Gaussian 09 at Mon Jan 27 17:24:57 2020.
 Normal termination of Gaussian 09 at Mon Jan 27 16:00:03 2020.
