 Gaussian 09, Revision D.01,
 Gaussian 09:  ES64L-G09RevD.01 24-Apr-2013

 -----------------------------
 # b3lyp 6-31G(2df,p) opt Freq
 -----------------------------

 -----
 titel
 -----
 Symbolic Z-matrix:
 Charge =  0 Multiplicity = 1

 SCF Done:  E(RB3LYP) =  -423.136576737     A.U. after   14 cycles
 Optimization completed.
    -- Stationary point found.
 Normal termination of Gaussian 09 at Tue Jan 28 00:41:28 2020.

 ----------------------------------------------------------------------
 #N Geom=AllCheck Guess=TCheck SCRF=Check GenChk RB3LYP/6-31G(2df,p) Fr
 eq
 ----------------------------------------------------------------------

 Structure from the checkpoint file:  "/scratch/puck/g09_ddb13293-2649-45c1-b602-b35d5588676b/Gau-940.chk"
 -----
 titel
 -----
 Charge =  0 Multiplicity = 1

                         Standard orientation:
 ---------------------------------------------------------------------
 Center     Atomic      Atomic             Coordinates (Angstroms)
 Number     Number       Type             X           Y           Z
 ---------------------------------------------------------------------
      1          6           0        0.814576    2.001208    0.675226
      2          6           0        1.022209    0.864864   -0.305963
      3          8           0        0.008203    0.828780   -1.348920
      4          6           0       -0.549705   -0.411273   -0.868546
      5          6           0       -1.864903   -0.261967   -0.263478
      6          6           0       -2.918739   -0.142828    0.306308
      7          6           0        0.631434   -0.574263    0.159483
      8          6           0        1.636584   -1.647028   -0.219179
      9          8           0        0.292353   -0.760025    1.504077
     10          1           0        0.919366    2.961324    0.161150
     11          1           0       -0.180845    1.964507    1.125937
     12          1           0        1.559829    1.951503    1.475332
     13          1           0        2.021081    0.927017   -0.756178
     14          1           0       -0.578203   -1.170920   -1.659059
     15          1           0       -3.869363   -0.038522    0.769573
     16          1           0        1.203295   -2.640884   -0.074328
     17          1           0        1.945857   -1.541642   -1.262832
     18          1           0        2.523301   -1.565104    0.417035
     19          1           0       -0.577500   -0.369604    1.658999
 ---------------------------------------------------------------------

 SCF Done:  E(RB3LYP) =  -423.136576737     A.U. after    1 cycles

 The electronic state is 1-A.
 Alpha  occ. eigenvalues --  -19.14345 -19.13991 -10.25691 -10.24919 -10.23125
 Alpha  occ. eigenvalues --  -10.19662 -10.19338 -10.18131 -10.17671  -1.05337
 Alpha  occ. eigenvalues --   -1.02112  -0.78179  -0.76944  -0.74328  -0.68823
 Alpha  occ. eigenvalues --   -0.63850  -0.56808  -0.54788  -0.52430  -0.49978
 Alpha  occ. eigenvalues --   -0.48295  -0.43024  -0.41983  -0.40664  -0.39560
 Alpha  occ. eigenvalues --   -0.39434  -0.38723  -0.37017  -0.34786  -0.31157
 Alpha  occ. eigenvalues --   -0.29244  -0.28112  -0.26291  -0.25900
 Alpha virt. eigenvalues --    0.01439   0.03320   0.08439   0.10679   0.11682
 Alpha virt. eigenvalues --    0.12173   0.13523   0.13873   0.15264   0.16283
 Alpha virt. eigenvalues --    0.17864   0.18093   0.18377   0.19392   0.20560

 Mulliken charges:
               1
     1  C   -0.400360
     2  C    0.096133
     3  O   -0.297209
     4  C   -0.145575
     5  C    0.315546
     6  C   -0.422039
     7  C    0.323480
     8  C   -0.428834
     9  O   -0.462493
    10  H    0.126060
    11  H    0.115588
    12  H    0.125164
    13  H    0.076182
    14  H    0.103171
    15  H    0.207942
    16  H    0.126803
    17  H    0.125181
    18  H    0.129259
    19  H    0.286002
 Sum of Mulliken charges =   0.00000

 Dipole moment (field-independent basis, Debye):
    X=             -0.2599    Y=             -0.2957    Z=              0.5176  Tot=              0.6504
 Quadrupole moment (field-independent basis, Debye-Ang):
   XX=            -46.4371   YY=            -53.9543   ZZ=            -56.4715
   XY=              0.7368   XZ=             -4.2280   YZ=              4.3829

  Exact polarizability:  95.664  -0.001  70.168  -7.026   3.434  65.985
 Approx polarizability: 139.531  -0.846  94.917 -16.705   1.651 106.068

                      1                      2                      3
                      A                      A                      A
 Frequencies --     55.0652               136.1252               179.6135
 Red. masses --      3.8703                 4.0967                 2.6337
 Frc consts  --      0.0069                 0.0447                 0.0501
 IR Inten    --      1.7090                 1.4368                 1.1444

                      4                      5                      6
                      A                      A                      A
 Frequencies --    199.4500               229.4247               244.4596
 Red. masses --      1.2658                 2.4883                 1.1280
 Frc consts  --      0.0297                 0.0772                 0.0397
 IR Inten    --      0.8517                 2.0984                 0.5301

                      7                      8                      9
                      A                      A                      A
 Frequencies --    282.7789               320.1490               341.2470
 Red. masses --      2.5518                 2.1443                 1.5940
 Frc consts  --      0.1202                 0.1295                 0.1094
 IR Inten    --     12.5524                25.3025                53.7405

                     10                     11                     12
                      A                      A                      A
 Frequencies --    394.4603               428.7432               516.6483
 Red. masses --      3.4130                 2.8529                 4.6058
 Frc consts  --      0.3129                 0.3090                 0.7243
 IR Inten    --     18.4110                 5.1009                 0.5380

                     13                     14                     15
                      A                      A                      A
 Frequencies --    532.4133               575.5698               647.6473
 Red. masses --      5.0688                 3.8466                 1.2285
 Frc consts  --      0.8466                 0.7508                 0.3036
 IR Inten    --      5.4486                 8.3145                39.8130

                     16                     17                     18
                      A                      A                      A
 Frequencies --    667.1311               674.8774               811.2088
 Red. masses --      1.7955                 2.2328                 2.2007
 Frc consts  --      0.4708                 0.5992                 0.8532
 IR Inten    --     19.4072                18.7118                 0.3645

                     19                     20                     21
                      A                      A                      A
 Frequencies --    856.2862               886.1484               973.4597
 Red. masses --      2.8654                 2.5934                 4.1207
 Frc consts  --      1.2379                 1.1998                 2.3007
 IR Inten    --     17.5001                12.8645                41.0619

                     22                     23                     24
                      A                      A                      A
 Frequencies --    978.9032              1011.7374              1040.0387
 Red. masses --      1.8600                 1.6675                 3.4654
 Frc consts  --      1.0501                 1.0057                 2.2085
 IR Inten    --     10.0613                48.7900                75.8558

                     25                     26                     27
                      A                      A                      A
 Frequencies --   1086.4046              1100.8661              1147.5200
 Red. masses --      2.4900                 2.1374                 2.0605
 Frc consts  --      1.7315                 1.5262                 1.5986
 IR Inten    --     21.5608                18.3558                 1.5835

                     28                     29                     30
                      A                      A                      A
 Frequencies --   1161.1261              1216.8227              1262.8655
 Red. masses --      2.5159                 1.3635                 3.5696
 Frc consts  --      1.9985                 1.1895                 3.3542
 IR Inten    --      1.6182                 2.0864                72.6024

                     31                     32                     33
                      A                      A                      A
 Frequencies --   1298.3389              1337.9148              1371.3823
 Red. masses --      1.5210                 1.2450                 1.2906
 Frc consts  --      1.5107                 1.3130                 1.4301
 IR Inten    --     14.4854                14.8881                20.3234

                     34                     35                     36
                      A                      A                      A
 Frequencies --   1398.5451              1404.3795              1428.8373
 Red. masses --      1.2639                 1.2866                 1.7122
 Frc consts  --      1.4565                 1.4951                 2.0595
 IR Inten    --      6.9849                14.5578                44.4836

                     37                     38                     39
                      A                      A                      A
 Frequencies --   1480.0875              1484.4130              1492.9899
 Red. masses --      1.0584                 1.0535                 1.0554
 Frc consts  --      1.3661                 1.3677                 1.3861
 IR Inten    --      7.4096                 2.0814                 0.2763

                     40                     41                     42
                      A                      A                      A
 Frequencies --   1494.4533              2220.0301              3022.1765
 Red. masses --      1.0551                 5.9357                 1.0836
 Frc consts  --      1.3884                17.2362                 5.8312
 IR Inten    --      3.1096                 1.0591                39.1535

                     43                     44                     45
                      A                      A                      A
 Frequencies --   3031.0647              3041.2809              3042.4166
 Red. masses --      1.0822                 1.0360                 1.0367
 Frc consts  --      5.8577                 5.6456                 5.6536
 IR Inten    --     23.8785                29.7412                 5.9016

                     46                     47                     48
                      A                      A                      A
 Frequencies --   3114.9178              3115.4460              3121.2076
 Red. masses --      1.1017                 1.1016                 1.1021
 Frc consts  --      6.2981                 6.2995                 6.3258
 IR Inten    --     11.8084                15.9928                14.4368

                     49                     50                     51
                      A                      A                      A
 Frequencies --   3122.6049              3497.0721              3758.6761
 Red. masses --      1.1021                 1.1612                 1.0656
 Frc consts  --      6.3316                 8.3669                 8.8700
 IR Inten    --     30.1151                70.4977                49.6628

 - Thermochemistry -
 -------------------
 Temperature   298.150 Kelvin.  Pressure   1.00000 Atm.
 Atom     1 has atomic number  6 and mass  12.00000

 Molecular mass:   126.06808 amu.
 Principal axes and moments of inertia in atomic units:
                           1         2         3
     Eigenvalues --   869.013641199.107621392.71205
           X            0.99956  -0.01335  -0.02637
           Y            0.01697   0.98969   0.14225
           Z            0.02420  -0.14264   0.98948
 This molecule is an asymmetric top.
 Rotational symmetry number  1.
 Warning -- assumption of classical behavior for rotation
           may cause significant error
 Rotational temperatures (Kelvin)      0.09967     0.07223     0.06219
 Rotational constants (GHZ):           2.07677     1.50507     1.29585
 Zero-point vibrational energy     408150.4 (Joules/Mol)
                                   97.55030 (Kcal/Mol)
 Warning -- explicit consideration of  14 degrees of freedom as
           vibrations may cause significant error
 Vibrational temperatures:     79.23   195.85   258.42   286.96   330.09
          (Kelvin)            351.72   406.86   460.62   490.98   567.54
                              616.87   743.34   766.02   828.12   931.82
                              959.85   971.00  1167.15  1232.00  1274.97
                             1400.59  1408.42  1455.66  1496.38  1563.09
                             1583.90  1651.02  1670.60  1750.73  1816.98
                             1868.02  1924.96  1973.11  2012.19  2020.59
                             2055.78  2129.51  2135.74  2148.08  2150.18
                             3194.12  4348.23  4361.02  4375.72  4377.35
                             4481.67  4482.43  4490.72  4492.73  5031.50
                             5407.89

 Zero-point correction=                           0.155456 (Hartree/Particle)
 Thermal correction to Energy=                    0.165260
 Thermal correction to Enthalpy=                  0.166204
 Thermal correction to Gibbs Free Energy=         0.121176
 Sum of electronic and zero-point Energies=           -422.981120
 Sum of electronic and thermal Energies=              -422.971317
 Sum of electronic and thermal Enthalpies=            -422.970373
 Sum of electronic and thermal Free Energies=         -423.015401

                     E (Thermal)             CV                S
                      KCal/Mol        Cal/Mol-Kelvin    Cal/Mol-Kelvin
 Total                  103.702             36.783             94.770
 Electronic               0.000              0.000              0.000
 Translational            0.889              2.981             40.409
 Rotational               0.889              2.981             28.764
 Vibrational            101.925             30.821             25.598
 Vibration     1          0.596              1.976              4.627
 Vibration     2          0.614              1.917              2.858
 Vibration     3          0.629              1.867              2.332
 Vibration     4          0.638              1.841              2.138
 Vibration     5          0.652              1.796              1.883
 Vibration     6          0.660              1.772              1.770
 Vibration     7          0.682              1.706              1.517
 Vibration     8          0.706              1.635              1.309
 Vibration     9          0.721              1.593              1.206
 Vibration    10          0.761              1.482              0.983
 Vibration    11          0.790              1.408              0.863
 Vibration    12          0.872              1.213              0.618
 Vibration    13          0.887              1.178              0.582
 Vibration    14          0.932              1.084              0.494

 Optimization completed.
    -- Stationary point found.
 Normal termination of Gaussian 09 at Tue Jan 28 01:24:07 2020.
