 Gaussian 09, Revision D.01,
 Gaussian 09:  ES64L-G09RevD.01 24-Apr-2013

 -----------------------------
 # b3lyp 6-31G(2df,p) opt Freq
 -----------------------------

 -----
 titel
 -----
 Symbolic Z-matrix:
 Charge =  0 Multiplicity = 1

 SCF Done:  E(RB3LYP) =  -423.242137218     A.U. after   14 cycles
 Optimization completed.
    -- Stationary point found.
 Normal termination of Gaussian 09 at Tue Jan 28 00:47:38 2020.

 ----------------------------------------------------------------------
 #N Geom=AllCheck Guess=TCheck SCRF=Check GenChk RB3LYP/6-31G(2df,p) Fr
 eq
 ----------------------------------------------------------------------

 Structure from the checkpoint file:  "/scratch/puck/g09_1e1aaaea-7232-4858-8a55-da749a4b6d84/Gau-38488.chk"
 -----
 titel
 -----
 Charge =  0 Multiplicity = 1

                         Standard orientation:
 ---------------------------------------------------------------------
 Center     Atomic      Atomic             Coordinates (Angstroms)
 Number     Number       Type             X           Y           Z
 ---------------------------------------------------------------------
      1          6           0        0.929858    1.835221    0.814136
      2          6           0        0.616103    0.876156   -0.339726
      3          8           0       -0.807004    0.901802   -0.578105
      4          6           0       -1.660476   -0.042086   -0.123976
      5          8           0       -2.841643    0.109651   -0.280164
      6          6           0       -1.072284   -1.270247    0.553289
      7          6           0        0.386023   -1.488762    0.286310
      8          6           0        1.181657   -0.506556   -0.127818
      9          6           0        2.649196   -0.681081   -0.403195
     10          1           0        0.487404    2.814347    0.614253
     11          1           0        0.523838    1.450821    1.754647
     12          1           0        2.010213    1.959750    0.931543
     13          1           0        1.036572    1.293786   -1.262968
     14          1           0       -1.267686   -1.168181    1.631005
     15          1           0       -1.680012   -2.121971    0.232853
     16          1           0        0.782443   -2.487938    0.447862
     17          1           0        2.888403   -0.438963   -1.446309
     18          1           0        3.262532   -0.019636    0.220733
     19          1           0        2.964999   -1.709512   -0.211593
 ---------------------------------------------------------------------

 SCF Done:  E(RB3LYP) =  -423.242137218     A.U. after    1 cycles

 The electronic state is 1-A.
 Alpha  occ. eigenvalues --  -19.17538 -19.11010 -10.30131 -10.25746 -10.20383
 Alpha  occ. eigenvalues --  -10.20288 -10.19633 -10.19451 -10.19109  -1.09090
 Alpha  occ. eigenvalues --   -1.00868  -0.83492  -0.78542  -0.74195  -0.67937
 Alpha  occ. eigenvalues --   -0.64910  -0.60134  -0.52080  -0.48981  -0.48076
 Alpha  occ. eigenvalues --   -0.47162  -0.44451  -0.43058  -0.42186  -0.41867
 Alpha  occ. eigenvalues --   -0.41073  -0.39606  -0.37788  -0.37129  -0.36792
 Alpha  occ. eigenvalues --   -0.32469  -0.28697  -0.26351  -0.24945
 Alpha virt. eigenvalues --    0.00763   0.02083   0.07452   0.09948   0.11408
 Alpha virt. eigenvalues --    0.11484   0.13842   0.14315   0.16223   0.16872
 Alpha virt. eigenvalues --    0.17601   0.19218   0.19623   0.21084   0.21714

 Mulliken charges:
               1
     1  C   -0.393699
     2  C    0.051093
     3  O   -0.238539
     4  C    0.409617
     5  O   -0.329361
     6  C   -0.409571
     7  C   -0.168201
     8  C    0.292246
     9  C   -0.484072
    10  H    0.137230
    11  H    0.126231
    12  H    0.123646
    13  H    0.102389
    14  H    0.147092
    15  H    0.146876
    16  H    0.094407
    17  H    0.131981
    18  H    0.130854
    19  H    0.129783
 Sum of Mulliken charges =   0.00000

 Dipole moment (field-independent basis, Debye):
    X=              4.2935    Y=             -0.9848    Z=              1.0931  Tot=              4.5386
 Quadrupole moment (field-independent basis, Debye-Ang):
   XX=            -62.1377   YY=            -50.1628   ZZ=            -52.5775
   XY=              3.2852   XZ=             -3.1811   YZ=              0.0870

  Exact polarizability:  96.011   7.243  80.307  -4.631  -4.492  58.455
 Approx polarizability: 137.098  15.785 117.479  -7.848 -11.656  91.107

                      1                      2                      3
                      A                      A                      A
 Frequencies --     41.7177                86.5460               165.9462
 Red. masses --      2.9207                 5.8098                 1.1310
 Frc consts  --      0.0030                 0.0256                 0.0184
 IR Inten    --      3.4629                 0.3507                 1.5296

                      4                      5                      6
                      A                      A                      A
 Frequencies --    223.5034               243.8896               262.8762
 Red. masses --      1.3709                 1.3928                 2.2455
 Frc consts  --      0.0403                 0.0488                 0.0914
 IR Inten    --      0.8644                 0.5641                 0.9905

                      7                      8                      9
                      A                      A                      A
 Frequencies --    310.9829               390.1165               434.3425
 Red. masses --      2.7634                 3.7263                 6.5593
 Frc consts  --      0.1575                 0.3341                 0.7291
 IR Inten    --      0.3318                 2.5979                 2.1105

                     10                     11                     12
                      A                      A                      A
 Frequencies --    466.4655               553.4490               584.2000
 Red. masses --      5.5825                 2.9538                 3.0742
 Frc consts  --      0.7157                 0.5331                 0.6182
 IR Inten    --      5.5468                 5.1308                 0.8459

                     13                     14                     15
                      A                      A                      A
 Frequencies --    596.3786               725.8418               750.1931
 Red. masses --      4.1658                 4.0932                 3.6289
 Frc consts  --      0.8730                 1.2706                 1.2033
 IR Inten    --      3.3791                 3.6131                 1.8076

                     16                     17                     18
                      A                      A                      A
 Frequencies --    821.0823               859.9092               945.8961
 Red. masses --      1.4749                 1.9077                 2.5574
 Frc consts  --      0.5859                 0.8311                 1.3482
 IR Inten    --     11.1375                 7.2324                12.8645

                     19                     20                     21
                      A                      A                      A
 Frequencies --    981.6374               988.5428              1046.6903
 Red. masses --      1.7072                 2.1234                 1.4912
 Frc consts  --      0.9693                 1.2225                 0.9626
 IR Inten    --      0.6441                 2.0116                16.6817

                     22                     23                     24
                      A                      A                      A
 Frequencies --   1069.7262              1087.7564              1113.5094
 Red. masses --      2.0480                 1.9778                 2.2834
 Frc consts  --      1.3808                 1.3788                 1.6681
 IR Inten    --     34.9704                 8.3726                29.8359

                     25                     26                     27
                      A                      A                      A
 Frequencies --   1120.9792              1181.7928              1204.3596
 Red. masses --      2.5359                 2.2210                 1.7949
 Frc consts  --      1.8775                 1.8276                 1.5340
 IR Inten    --     40.0573                93.2730                 7.1606

                     28                     29                     30
                      A                      A                      A
 Frequencies --   1223.0669              1333.8072              1344.4157
 Red. masses --      1.7964                 1.6361                 1.3987
 Frc consts  --      1.5833                 1.7149                 1.4896
 IR Inten    --    111.5793                 2.9740                19.0360

                     31                     32                     33
                      A                      A                      A
 Frequencies --   1375.7254              1401.7557              1411.5845
 Red. masses --      1.7417                 1.2644                 1.5023
 Frc consts  --      1.9422                 1.4638                 1.7636
 IR Inten    --     12.2161                15.3576                23.9128

                     34                     35                     36
                      A                      A                      A
 Frequencies --   1417.3569              1454.6055              1478.5219
 Red. masses --      1.2345                 1.0819                 1.0458
 Frc consts  --      1.4611                 1.3487                 1.3469
 IR Inten    --      3.1769                 3.4147                 8.6017

                     37                     38                     39
                      A                      A                      A
 Frequencies --   1488.8912              1492.1975              1493.8655
 Red. masses --      1.0644                 1.0587                 1.0579
 Frc consts  --      1.3902                 1.3889                 1.3909
 IR Inten    --      0.7765                 7.0835                 3.8905

                     40                     41                     42
                      A                      A                      A
 Frequencies --   1759.2299              1842.4009              3009.7787
 Red. masses --      7.3670                12.5989                 1.0717
 Frc consts  --     13.4334                25.1971                 5.7199
 IR Inten    --      0.7896               364.1336                10.1108

                     43                     44                     45
                      A                      A                      A
 Frequencies --   3020.5126              3031.0517              3044.3347
 Red. masses --      1.0418                 1.0806                 1.0347
 Frc consts  --      5.6002                 5.8493                 5.6498
 IR Inten    --     14.5715                35.4923                10.9754

                     46                     47                     48
                      A                      A                      A
 Frequencies --   3069.3530              3081.4312              3117.3234
 Red. masses --      1.0983                 1.0879                 1.0994
 Frc consts  --      6.0962                 6.0859                 6.2945
 IR Inten    --     20.7112                 7.2693                14.8423

                     49                     50                     51
                      A                      A                      A
 Frequencies --   3120.4925              3128.1243              3158.8273
 Red. masses --      1.1012                 1.1028                 1.0905
 Frc consts  --      6.3178                 6.3579                 6.4108
 IR Inten    --     25.9181                15.4303                17.9986

 - Thermochemistry -
 -------------------
 Temperature   298.150 Kelvin.  Pressure   1.00000 Atm.
 Atom     1 has atomic number  6 and mass  12.00000

 Molecular mass:   126.06808 amu.
 Principal axes and moments of inertia in atomic units:
                           1         2         3
     Eigenvalues --   650.768061342.647051751.42286
           X            0.99969   0.02119  -0.01316
           Y           -0.02097   0.99965   0.01627
           Z            0.01350  -0.01599   0.99978
 This molecule is an asymmetric top.
 Rotational symmetry number  1.
 Warning -- assumption of classical behavior for rotation
           may cause significant error
 Rotational temperatures (Kelvin)      0.13309     0.06451     0.04945
 Rotational constants (GHZ):           2.77325     1.34417     1.03044
 Zero-point vibrational energy     416043.2 (Joules/Mol)
                                   99.43670 (Kcal/Mol)
 Warning -- explicit consideration of  13 degrees of freedom as
           vibrations may cause significant error
 Vibrational temperatures:     60.02   124.52   238.76   321.57   350.90
          (Kelvin)            378.22   447.43   561.29   624.92   671.14
                              796.29   840.53   858.05  1044.32  1079.36
                             1181.35  1237.22  1360.93  1412.36  1422.29
                             1505.95  1539.10  1565.04  1602.09  1612.84
                             1700.33  1732.80  1759.72  1919.05  1934.31
                             1979.36  2016.81  2030.95  2039.26  2092.85
                             2127.26  2142.18  2146.94  2149.34  2531.14
                             2650.80  4330.39  4345.84  4361.00  4380.11
                             4416.11  4433.49  4485.13  4489.69  4500.67
                             4544.84

 Zero-point correction=                           0.158462 (Hartree/Particle)
 Thermal correction to Energy=                    0.167499
 Thermal correction to Enthalpy=                  0.168443
 Thermal correction to Gibbs Free Energy=         0.124149
 Sum of electronic and zero-point Energies=           -423.083675
 Sum of electronic and thermal Energies=              -423.074638
 Sum of electronic and thermal Enthalpies=            -423.073694
 Sum of electronic and thermal Free Energies=         -423.117988

                     E (Thermal)             CV                S
                      KCal/Mol        Cal/Mol-Kelvin    Cal/Mol-Kelvin
 Total                  105.107             33.325             93.224
 Electronic               0.000              0.000              0.000
 Translational            0.889              2.981             40.409
 Rotational               0.889              2.981             28.816
 Vibrational            103.330             27.363             24.000
 Vibration     1          0.594              1.981              5.176
 Vibration     2          0.601              1.959              3.737
 Vibration     3          0.624              1.884              2.481
 Vibration     4          0.649              1.805              1.931
 Vibration     5          0.659              1.773              1.774
 Vibration     6          0.670              1.741              1.643
 Vibration     7          0.700              1.653              1.357
 Vibration     8          0.758              1.491              1.000
 Vibration     9          0.795              1.395              0.845
 Vibration    10          0.824              1.324              0.748
 Vibration    11          0.909              1.132              0.537
 Vibration    12          0.941              1.066              0.478
 Vibration    13          0.954              1.039              0.456

 Optimization completed.
    -- Stationary point found.
 Normal termination of Gaussian 09 at Tue Jan 28 02:48:21 2020.
