 Gaussian 09, Revision D.01,
 Gaussian 09:  ES64L-G09RevD.01 24-Apr-2013

 -----------------------------
 # b3lyp 6-31G(2df,p) opt Freq
 -----------------------------

 -----
 titel
 -----
 Symbolic Z-matrix:
 Charge =  0 Multiplicity = 1

 SCF Done:  E(RB3LYP) =  -423.148486004     A.U. after   13 cycles
 Optimization completed.
    -- Stationary point found.
 Normal termination of Gaussian 09 at Mon Jan 27 11:19:19 2020.

 ----------------------------------------------------------------------
 #N Geom=AllCheck Guess=TCheck SCRF=Check GenChk RB3LYP/6-31G(2df,p) Fr
 eq
 ----------------------------------------------------------------------

 Structure from the checkpoint file:  "/scratch/puck/g09_88fe93b8-4414-4c87-842d-d8d7b1fa8d6a/Gau-32182.chk"
 -----
 titel
 -----
 Charge =  0 Multiplicity = 1

                         Standard orientation:
 ---------------------------------------------------------------------
 Center     Atomic      Atomic             Coordinates (Angstroms)
 Number     Number       Type             X           Y           Z
 ---------------------------------------------------------------------
      1          6           0       -1.240367   -0.632712   -1.000311
      2          6           0       -1.381803    0.689697   -0.202625
      3          6           0       -1.335562   -0.159079    1.101594
      4          6           0       -0.641329   -1.286399    0.275649
      5          6           0        0.876178   -1.184117    0.351063
      6          8           0        1.602722   -0.737597   -0.807732
      7          6           0        1.579452    0.105656    0.341613
      8          6           0        0.902597    1.464961    0.271505
      9          8           0       -0.303790    1.582151   -0.445012
     10          1           0       -2.214318   -1.064090   -1.246624
     11          1           0       -0.608147   -0.590069   -1.886363
     12          1           0       -2.286171    1.279362   -0.373881
     13          1           0       -0.814542    0.237307    1.975940
     14          1           0       -2.350174   -0.437891    1.397862
     15          1           0       -0.950797   -2.311529    0.491187
     16          1           0        1.366335   -2.006897    0.872607
     17          1           0        2.534856    0.167852    0.871146
     18          1           0        0.790949    1.815967    1.312059
     19          1           0        1.585551    2.165522   -0.222914
 ---------------------------------------------------------------------

 SCF Done:  E(RB3LYP) =  -423.148486004     A.U. after    1 cycles

 The electronic state is 1-A.
 Alpha  occ. eigenvalues --  -19.14853 -19.13862 -10.23614 -10.23581 -10.23498
 Alpha  occ. eigenvalues --  -10.23290 -10.19446 -10.18743 -10.17446  -1.07049
 Alpha  occ. eigenvalues --   -1.02846  -0.84457  -0.74543  -0.68741  -0.66370
 Alpha  occ. eigenvalues --   -0.64553  -0.55238  -0.54525  -0.52987  -0.49652
 Alpha  occ. eigenvalues --   -0.47528  -0.46034  -0.43208  -0.41561  -0.40253
 Alpha  occ. eigenvalues --   -0.38500  -0.37601  -0.36096  -0.32527  -0.32255
 Alpha  occ. eigenvalues --   -0.29555  -0.28502  -0.26624  -0.24205
 Alpha virt. eigenvalues --    0.07173   0.08230   0.10117   0.11576   0.11995
 Alpha virt. eigenvalues --    0.13374   0.14714   0.15783   0.16591   0.17503
 Alpha virt. eigenvalues --    0.18397   0.18664   0.19531   0.20038   0.22082

 Mulliken charges:
               1
     1  C   -0.226435
     2  C    0.129348
     3  C   -0.268364
     4  C   -0.057349
     5  C    0.040605
     6  O   -0.248692
     7  C    0.046772
     8  C   -0.117040
     9  O   -0.266200
    10  H    0.094058
    11  H    0.126568
    12  H    0.079394
    13  H    0.102277
    14  H    0.105206
    15  H    0.065526
    16  H    0.089513
    17  H    0.089369
    18  H    0.094493
    19  H    0.120951
 Sum of Mulliken charges =   0.00000

 Dipole moment (field-independent basis, Debye):
    X=             -0.6642    Y=             -0.5538    Z=              2.2133  Tot=              2.3762
 Quadrupole moment (field-independent basis, Debye-Ang):
   XX=            -50.8619   YY=            -53.6902   ZZ=            -54.2868
   XY=              2.9534   XZ=              2.8556   YZ=              0.0300

  Exact polarizability:  80.626   4.578  75.030   2.722   0.333  65.708
 Approx polarizability: 110.634   6.353 109.282   0.718   0.223 104.571

                      1                      2                      3
                      A                      A                      A
 Frequencies --    154.7345               226.8659               313.4152
 Red. masses --      4.1299                 3.5402                 3.3914
 Frc consts  --      0.0583                 0.1074                 0.1963
 IR Inten    --      2.0067                 3.3606                 4.6004

                      4                      5                      6
                      A                      A                      A
 Frequencies --    326.9941               385.4110               419.5532
 Red. masses --      2.8430                 3.0750                 2.2894
 Frc consts  --      0.1791                 0.2691                 0.2374
 IR Inten    --      0.6900                 3.1806                 0.9174

                      7                      8                      9
                      A                      A                      A
 Frequencies --    490.9547               541.8416               716.8583
 Red. masses --      2.8822                 3.1549                 4.3754
 Frc consts  --      0.4093                 0.5457                 1.3248
 IR Inten    --      4.0456                 4.5435                15.3257

                     10                     11                     12
                      A                      A                      A
 Frequencies --    735.6265               770.3752               779.1140
 Red. masses --      3.3444                 3.3412                 1.8449
 Frc consts  --      1.0663                 1.1683                 0.6598
 IR Inten    --      2.3549                 4.6144                 0.1973

                     13                     14                     15
                      A                      A                      A
 Frequencies --    818.6334               882.6248               907.2172
 Red. masses --      2.7040                 4.5172                 3.0814
 Frc consts  --      1.0677                 2.0733                 1.4943
 IR Inten    --     22.6924                 0.5569                14.3326

                     16                     17                     18
                      A                      A                      A
 Frequencies --    925.6467               937.4337               939.5158
 Red. masses --      2.1856                 2.0106                 3.2618
 Frc consts  --      1.1034                 1.0410                 1.6963
 IR Inten    --      2.8203                 9.5361                17.3231

                     19                     20                     21
                      A                      A                      A
 Frequencies --    994.9514              1036.7447              1077.4657
 Red. masses --      2.0058                 1.8078                 2.3408
 Frc consts  --      1.1699                 1.1448                 1.6011
 IR Inten    --      4.0979                 9.9092                 1.2329

                     22                     23                     24
                      A                      A                      A
 Frequencies --   1085.1492              1092.1957              1125.0051
 Red. masses --      1.8721                 1.2394                 1.8885
 Frc consts  --      1.2988                 0.8711                 1.4082
 IR Inten    --     14.3478                 1.9114                30.4624

                     25                     26                     27
                      A                      A                      A
 Frequencies --   1148.2491              1162.5734              1170.4201
 Red. masses --      1.4029                 1.6066                 1.5602
 Frc consts  --      1.0898                 1.2794                 1.2592
 IR Inten    --      8.9560                15.5610                 4.0730

                     28                     29                     30
                      A                      A                      A
 Frequencies --   1234.2307              1256.0251              1274.7934
 Red. masses --      2.2024                 1.3535                 1.6514
 Frc consts  --      1.9767                 1.2581                 1.5812
 IR Inten    --     78.6550                 2.0313                16.8622

                     31                     32                     33
                      A                      A                      A
 Frequencies --   1276.4869              1292.2355              1320.8738
 Red. masses --      1.4263                 1.3270                 1.1951
 Frc consts  --      1.3693                 1.3056                 1.2285
 IR Inten    --      0.4005                 4.5397                10.6299

                     34                     35                     36
                      A                      A                      A
 Frequencies --   1361.0907              1379.1834              1389.1982
 Red. masses --      1.5620                 1.2781                 1.3024
 Frc consts  --      1.7049                 1.4323                 1.4808
 IR Inten    --      0.5602                 3.9440                 5.0321

                     37                     38                     39
                      A                      A                      A
 Frequencies --   1413.3834              1456.8454              1476.9192
 Red. masses --      1.4592                 1.1057                 1.3730
 Frc consts  --      1.7174                 1.3827                 1.7646
 IR Inten    --      6.5442                 7.1782                 6.4990

                     40                     41                     42
                      A                      A                      A
 Frequencies --   1493.8960              1499.9956              2957.3081
 Red. masses --      1.3988                 1.3552                 1.0715
 Frc consts  --      1.8393                 1.7965                 5.5213
 IR Inten    --      2.8888                 9.4925                51.4178

                     43                     44                     45
                      A                      A                      A
 Frequencies --   3055.8726              3060.7153              3064.9983
 Red. masses --      1.0877                 1.0704                 1.0627
 Frc consts  --      5.9846                 5.9083                 5.8820
 IR Inten    --     11.6258                13.7415                29.0890

                     46                     47                     48
                      A                      A                      A
 Frequencies --   3066.8940              3072.0790              3080.9688
 Red. masses --      1.0853                 1.0865                 1.0784
 Frc consts  --      6.0146                 6.0414                 6.0312
 IR Inten    --     53.4734                49.0115                53.4419

                     49                     50                     51
                      A                      A                      A
 Frequencies --   3104.2428              3117.3355              3150.4833
 Red. masses --      1.0900                 1.1069                 1.1033
 Frc consts  --      6.1883                 6.3374                 6.4520
 IR Inten    --     52.5364                28.2132                 7.7824

 - Thermochemistry -
 -------------------
 Temperature   298.150 Kelvin.  Pressure   1.00000 Atm.
 Atom     1 has atomic number  6 and mass  12.00000

 Molecular mass:   126.06808 amu.
 Principal axes and moments of inertia in atomic units:
                           1         2         3
     Eigenvalues --   722.61796 889.207711183.89352
           X            0.99308   0.11433   0.02684
           Y           -0.11472   0.99331   0.01316
           Z           -0.02516  -0.01615   0.99955
 This molecule is an asymmetric top.
 Rotational symmetry number  1.
 Warning -- assumption of classical behavior for rotation
           may cause significant error
 Rotational temperatures (Kelvin)      0.11986     0.09741     0.07316
 Rotational constants (GHZ):           2.49750     2.02961     1.52441
 Zero-point vibrational energy     424803.7 (Joules/Mol)
                                  101.53051 (Kcal/Mol)
 Warning -- explicit consideration of   8 degrees of freedom as
           vibrations may cause significant error
 Vibrational temperatures:    222.63   326.41   450.93   470.47   554.52
          (Kelvin)            603.64   706.37   779.59  1031.40  1058.40
                             1108.40  1120.97  1177.83  1269.90  1305.28
                             1331.80  1348.76  1351.75  1431.51  1491.64
                             1550.23  1561.29  1571.42  1618.63  1652.07
                             1672.68  1683.97  1775.78  1807.14  1834.14
                             1836.58  1859.24  1900.44  1958.30  1984.33
                             1998.74  2033.54  2096.07  2124.95  2149.38
                             2158.16  4254.90  4396.71  4403.68  4409.84
                             4412.57  4420.03  4432.82  4466.31  4485.14
                             4532.84

 Zero-point correction=                           0.161799 (Hartree/Particle)
 Thermal correction to Energy=                    0.168679
 Thermal correction to Enthalpy=                  0.169623
 Thermal correction to Gibbs Free Energy=         0.130870
 Sum of electronic and zero-point Energies=           -422.986687
 Sum of electronic and thermal Energies=              -422.979807
 Sum of electronic and thermal Enthalpies=            -422.978863
 Sum of electronic and thermal Free Energies=         -423.017616

                     E (Thermal)             CV                S
                      KCal/Mol        Cal/Mol-Kelvin    Cal/Mol-Kelvin
 Total                  105.848             28.521             81.562
 Electronic               0.000              0.000              0.000
 Translational            0.889              2.981             40.409
 Rotational               0.889              2.981             28.122
 Vibrational            104.070             22.559             13.032
 Vibration     1          0.620              1.897              2.613
 Vibration     2          0.651              1.800              1.904
 Vibration     3          0.701              1.648              1.344
 Vibration     4          0.711              1.622              1.275
 Vibration     5          0.754              1.501              1.018
 Vibration     6          0.782              1.428              0.893
 Vibration     7          0.847              1.270              0.681
 Vibration     8          0.897              1.158              0.561

 Normal termination of Gaussian 09 at Mon Jan 27 12:08:39 2020.
