 Gaussian 09, Revision D.01,
 Gaussian 09:  ES64L-G09RevD.01 24-Apr-2013

 -----------------------------
 # b3lyp 6-31G(2df,p) opt Freq
 -----------------------------

 -----
 titel
 -----
 Symbolic Z-matrix:
 Charge =  0 Multiplicity = 1

 SCF Done:  E(RB3LYP) =  -423.162594355     A.U. after   14 cycles
 Optimization completed.
    -- Stationary point found.
 Normal termination of Gaussian 09 at Mon Jan 27 15:37:02 2020.

 ----------------------------------------------------------------------
 #N Geom=AllCheck Guess=TCheck SCRF=Check GenChk RB3LYP/6-31G(2df,p) Fr
 eq
 ----------------------------------------------------------------------

 Structure from the checkpoint file:  "/scratch/puck/g09_faa2dca1-c6d9-4c23-93d3-accc9646fad6/Gau-35275.chk"
 -----
 titel
 -----
 Charge =  0 Multiplicity = 1

                         Standard orientation:
 ---------------------------------------------------------------------
 Center     Atomic      Atomic             Coordinates (Angstroms)
 Number     Number       Type             X           Y           Z
 ---------------------------------------------------------------------
      1          6           0       -2.967786    1.147385    0.500425
      2          6           0       -2.022054    0.257981   -0.306788
      3          8           0       -2.528560   -1.068713   -0.421165
      4          6           0       -0.595475    0.269594    0.262436
      5          6           0        0.372492   -0.602303   -0.558733
      6          6           0        1.759547   -0.625512    0.052056
      7          8           0        2.211571   -1.582613    0.642437
      8          6           0        2.532004    0.603190   -0.088663
      9          6           0        3.165733    1.619158   -0.215045
     10          1           0       -3.015850    0.815590    1.545300
     11          1           0       -2.633407    2.189782    0.498063
     12          1           0       -3.976459    1.103895    0.081281
     13          1           0       -1.986935    0.620965   -1.342114
     14          1           0       -2.644677   -1.415933    0.470817
     15          1           0       -0.229902    1.302418    0.301944
     16          1           0       -0.622555   -0.094419    1.299264
     17          1           0        0.003472   -1.628709   -0.601273
     18          1           0        0.435998   -0.208224   -1.580585
     19          1           0        3.739460    2.508293   -0.316997
 ---------------------------------------------------------------------

 SCF Done:  E(RB3LYP) =  -423.162594355     A.U. after    1 cycles

 The electronic state is 1-A.
 Alpha  occ. eigenvalues --  -19.13982 -19.13884 -10.29030 -10.24030 -10.20699
 Alpha  occ. eigenvalues --  -10.20026 -10.19605 -10.19369 -10.18312  -1.04883
 Alpha  occ. eigenvalues --   -1.02232  -0.80850  -0.77436  -0.74525  -0.67506
 Alpha  occ. eigenvalues --   -0.62209  -0.60388  -0.53513  -0.49421  -0.48282
 Alpha  occ. eigenvalues --   -0.47565  -0.45224  -0.43104  -0.42323  -0.40959
 Alpha  occ. eigenvalues --   -0.38853  -0.37605  -0.35515  -0.35213  -0.32338
 Alpha  occ. eigenvalues --   -0.29718  -0.29579  -0.27625  -0.25852
 Alpha virt. eigenvalues --   -0.05677   0.03512   0.06766   0.09029   0.10868
 Alpha virt. eigenvalues --    0.11025   0.11820   0.13182   0.14653   0.15918
 Alpha virt. eigenvalues --    0.16766   0.17061   0.18635   0.20811   0.21800

 Mulliken charges:
               1
     1  C   -0.405659
     2  C    0.138829
     3  O   -0.425164
     4  C   -0.203763
     5  C   -0.293813
     6  C    0.245398
     7  O   -0.278933
     8  C    0.280571
     9  C   -0.463827
    10  H    0.109539
    11  H    0.118595
    12  H    0.127788
    13  H    0.091170
    14  H    0.279021
    15  H    0.111765
    16  H    0.101422
    17  H    0.134872
    18  H    0.115666
    19  H    0.216524
 Sum of Mulliken charges =   0.00000

 Dipole moment (field-independent basis, Debye):
    X=             -1.1531    Y=              3.0119    Z=              0.0236  Tot=              3.2252
 Quadrupole moment (field-independent basis, Debye-Ang):
   XX=            -55.1033   YY=            -52.7864   ZZ=            -53.4491
   XY=              7.3234   XZ=             -6.8296   YZ=             -1.1411

  Exact polarizability:  91.998   9.623  86.268  -1.186  -5.015  60.236
 Approx polarizability: 112.544  19.929 148.028   0.090 -15.824  94.956

                      1                      2                      3
                      A                      A                      A
 Frequencies --     28.3632                51.1902               115.5175
 Red. masses --      4.3646                 4.1734                 4.0109
 Frc consts  --      0.0021                 0.0064                 0.0315
 IR Inten    --      1.4765                 1.5752                 2.6795

                      4                      5                      6
                      A                      A                      A
 Frequencies --    123.1021               165.4180               231.6722
 Red. masses --      2.7356                 3.3305                 2.9955
 Frc consts  --      0.0244                 0.0537                 0.0947
 IR Inten    --      0.8924                 2.0433                 1.9539

                      7                      8                      9
                      A                      A                      A
 Frequencies --    246.3431               274.8560               311.4832
 Red. masses --      1.1895                 4.7684                 1.0907
 Frc consts  --      0.0425                 0.2122                 0.0623
 IR Inten    --      0.7191                 2.4578               105.8878

                     10                     11                     12
                      A                      A                      A
 Frequencies --    355.4171               435.5350               470.5575
 Red. masses --      2.9004                 3.1812                 2.1077
 Frc consts  --      0.2159                 0.3555                 0.2750
 IR Inten    --      3.1249                16.0779                 3.8493

                     13                     14                     15
                      A                      A                      A
 Frequencies --    476.1615               616.0937               647.1298
 Red. masses --      3.6384                 6.6852                 1.2429
 Frc consts  --      0.4860                 1.4951                 0.3067
 IR Inten    --     14.9364                 5.7617                43.7249

                     16                     17                     18
                      A                      A                      A
 Frequencies --    704.0383               717.1663               748.9856
 Red. masses --      1.8272                 2.3623                 2.1150
 Frc consts  --      0.5336                 0.7159                 0.6991
 IR Inten    --     15.2636                17.4479                12.1953

                     19                     20                     21
                      A                      A                      A
 Frequencies --    814.5010               858.1210               937.0055
 Red. masses --      1.7822                 2.8119                 1.8785
 Frc consts  --      0.6966                 1.2200                 0.9717
 IR Inten    --     10.3490                 2.6149                 6.1121

                     22                     23                     24
                      A                      A                      A
 Frequencies --    960.9312              1029.8654              1053.9370
 Red. masses --      1.5848                 3.4203                 2.0064
 Frc consts  --      0.8622                 2.1373                 1.3131
 IR Inten    --      2.7118                 5.3142               112.7820

                     25                     26                     27
                      A                      A                      A
 Frequencies --   1085.7957              1134.6154              1157.3372
 Red. masses --      1.7990                 1.8245                 2.3907
 Frc consts  --      1.2496                 1.3838                 1.8867
 IR Inten    --      2.2572                23.1919               109.3872

                     28                     29                     30
                      A                      A                      A
 Frequencies --   1223.6206              1263.5620              1290.9438
 Red. masses --      1.9670                 1.4159                 1.2900
 Frc consts  --      1.7352                 1.3320                 1.2667
 IR Inten    --     72.5915                 6.7326                 7.1375

                     31                     32                     33
                      A                      A                      A
 Frequencies --   1339.1510              1347.9143              1385.8643
 Red. masses --      1.3411                 1.3382                 1.4972
 Frc consts  --      1.4170                 1.4325                 1.6943
 IR Inten    --     25.1630                 3.8880                 2.6010

                     34                     35                     36
                      A                      A                      A
 Frequencies --   1404.5185              1421.9889              1469.4545
 Red. masses --      1.2417                 1.1958                 1.0878
 Frc consts  --      1.4432                 1.4246                 1.3839
 IR Inten    --      4.9492                45.2567                 2.7888

                     37                     38                     39
                      A                      A                      A
 Frequencies --   1485.9331              1494.1502              1496.7317
 Red. masses --      1.0861                 1.0648                 1.0581
 Frc consts  --      1.4129                 1.4006                 1.3966
 IR Inten    --      2.8822                 8.7080                 1.1669

                     40                     41                     42
                      A                      A                      A
 Frequencies --   1768.9154              2207.8574              3010.4972
 Red. masses --     11.8904                 5.9134                 1.0646
 Frc consts  --     21.9211                16.9834                 5.6850
 IR Inten    --    180.2530                55.5459                 5.5423

                     43                     44                     45
                      A                      A                      A
 Frequencies --   3024.3157              3033.2113              3039.6630
 Red. masses --      1.0490                 1.0705                 1.0658
 Frc consts  --      5.6532                 5.8028                 5.8021
 IR Inten    --      7.1996                19.9191                30.4315

                     46                     47                     48
                      A                      A                      A
 Frequencies --   3067.2885              3095.9382              3120.7089
 Red. masses --      1.0973                 1.0976                 1.1017
 Frc consts  --      6.0826                 6.1984                 6.3212
 IR Inten    --     13.9679                37.7235                20.7077

                     49                     50                     51
                      A                      A                      A
 Frequencies --   3126.8187              3494.3706              3792.5680
 Red. masses --      1.0976                 1.1616                 1.0658
 Frc consts  --      6.3228                 8.3568                 9.0323
 IR Inten    --      9.6796                51.8651                14.4899

 - Thermochemistry -
 -------------------
 Temperature   298.150 Kelvin.  Pressure   1.00000 Atm.
 Atom     1 has atomic number  6 and mass  12.00000

 Molecular mass:   126.06808 amu.
 Principal axes and moments of inertia in atomic units:
                           1         2         3
     Eigenvalues --   602.033632359.470652760.21726
           X            0.99992  -0.00281  -0.01259
           Y            0.00300   0.99988   0.01552
           Z            0.01255  -0.01555   0.99980
 This molecule is an asymmetric top.
 Rotational symmetry number  1.
 Warning -- assumption of classical behavior for rotation
           may cause significant error
 Rotational temperatures (Kelvin)      0.14387     0.03671     0.03138
 Rotational constants (GHZ):           2.99774     0.76489     0.65384
 Zero-point vibrational energy     407670.1 (Joules/Mol)
                                   97.43550 (Kcal/Mol)
 Warning -- explicit consideration of  14 degrees of freedom as
           vibrations may cause significant error
 Vibrational temperatures:     40.81    73.65   166.20   177.12   238.00
          (Kelvin)            333.32   354.43   395.46   448.15   511.37
                              626.64   677.03   685.09   886.42   931.07
                             1012.95  1031.84  1077.62  1171.88  1234.64
                             1348.14  1382.56  1481.74  1516.38  1562.22
                             1632.46  1665.15  1760.51  1817.98  1857.38
                             1926.74  1939.35  1993.95  2020.79  2045.92
                             2114.21  2137.92  2149.75  2153.46  2545.07
                             3176.61  4331.43  4351.31  4364.11  4373.39
                             4413.14  4454.36  4490.00  4498.79  5027.61
                             5456.65

 Zero-point correction=                           0.155273 (Hartree/Particle)
 Thermal correction to Energy=                    0.165876
 Thermal correction to Enthalpy=                  0.166821
 Thermal correction to Gibbs Free Energy=         0.118180
 Sum of electronic and zero-point Energies=           -423.007321
 Sum of electronic and thermal Energies=              -422.996718
 Sum of electronic and thermal Enthalpies=            -422.995774
 Sum of electronic and thermal Free Energies=         -423.044414

                     E (Thermal)             CV                S
                      KCal/Mol        Cal/Mol-Kelvin    Cal/Mol-Kelvin
 Total                  104.089             37.405            102.373
 Electronic               0.000              0.000              0.000
 Translational            0.889              2.981             40.409
 Rotational               0.889              2.981             29.751
 Vibrational            102.312             31.443             32.213
 Vibration     1          0.593              1.984              5.941
 Vibration     2          0.595              1.977              4.771
 Vibration     3          0.608              1.937              3.174
 Vibration     4          0.610              1.930              3.051
 Vibration     5          0.624              1.885              2.487
 Vibration     6          0.653              1.793              1.866
 Vibration     7          0.661              1.769              1.757
 Vibration     8          0.677              1.720              1.565
 Vibration     9          0.700              1.652              1.354
 Vibration    10          0.731              1.564              1.142
 Vibration    11          0.796              1.393              0.841
 Vibration    12          0.828              1.315              0.736
 Vibration    13          0.833              1.303              0.720
 Vibration    14          0.976              0.998              0.423

 Optimization completed.
    -- Stationary point found.
 Normal termination of Gaussian 09 at Mon Jan 27 16:14:40 2020.
