 Gaussian 09, Revision D.01,
 Gaussian 09:  ES64L-G09RevD.01 24-Apr-2013

 -----------------------------
 # b3lyp 6-31G(2df,p) opt Freq
 -----------------------------

 -----
 titel
 -----
 Symbolic Z-matrix:
 Charge =  0 Multiplicity = 1

 SCF Done:  E(RB3LYP) =  -423.152124001     A.U. after   14 cycles
 Optimization completed.
    -- Stationary point found.
 Normal termination of Gaussian 09 at Mon Jan 27 22:00:55 2020.

 ----------------------------------------------------------------------
 #N Geom=AllCheck Guess=TCheck SCRF=Check GenChk RB3LYP/6-31G(2df,p) Fr
 eq
 ----------------------------------------------------------------------

 Structure from the checkpoint file:  "/scratch/puck/g09_210fe11b-7e48-4075-8ee4-4b06b751f8ea/Gau-98602.chk"
 -----
 titel
 -----
 Charge =  0 Multiplicity = 1

                         Standard orientation:
 ---------------------------------------------------------------------
 Center     Atomic      Atomic             Coordinates (Angstroms)
 Number     Number       Type             X           Y           Z
 ---------------------------------------------------------------------
      1          6           0       -0.000037    2.152046    0.760206
      2          6           0       -0.000012    1.110929   -0.345843
      3          6           0       -0.941083   -0.128600   -0.292365
      4          6           0       -2.409919   -0.254122   -0.524631
      5          8           0        0.000013   -0.813511   -1.234290
      6          6           0        0.941090   -0.128580   -0.292364
      7          6           0        2.409930   -0.254073   -0.524625
      8          6           0        0.000010   -0.729202    0.788015
      9          8           0        0.000018   -1.401277    1.768782
     10          1           0        0.882722    2.795804    0.689784
     11          1           0       -0.882989    2.795562    0.689966
     12          1           0        0.000127    1.690900    1.753650
     13          1           0       -0.000015    1.537728   -1.353670
     14          1           0       -2.714578   -1.303951   -0.490192
     15          1           0       -2.956799    0.286433    0.254233
     16          1           0       -2.690599    0.161388   -1.497062
     17          1           0        2.714607   -1.303897   -0.490183
     18          1           0        2.690605    0.161441   -1.497056
     19          1           0        2.956797    0.286493    0.254240
 ---------------------------------------------------------------------

 SCF Done:  E(RB3LYP) =  -423.152124001     A.U. after    1 cycles

 The electronic state is 1-A.
 Alpha  occ. eigenvalues --  -19.15219 -19.14272 -10.27345 -10.25340 -10.25339
 Alpha  occ. eigenvalues --  -10.20716 -10.19253 -10.19253 -10.19031  -1.07458
 Alpha  occ. eigenvalues --   -1.04245  -0.80728  -0.76894  -0.73609  -0.70640
 Alpha  occ. eigenvalues --   -0.62504  -0.58540  -0.48403  -0.46649  -0.46618
 Alpha  occ. eigenvalues --   -0.45815  -0.45629  -0.44658  -0.41633  -0.41090
 Alpha  occ. eigenvalues --   -0.40429  -0.39406  -0.38717  -0.36481  -0.35749
 Alpha  occ. eigenvalues --   -0.33430  -0.31575  -0.25794  -0.24238
 Alpha virt. eigenvalues --   -0.00084   0.08469   0.09605   0.10963   0.12262
 Alpha virt. eigenvalues --    0.12462   0.13320   0.13564   0.14155   0.15565
 Alpha virt. eigenvalues --    0.16817   0.16843   0.19111   0.19636   0.21076

 Mulliken charges:
               1
     1  C   -0.446885
     2  C   -0.055418
     3  C    0.275049
     4  C   -0.523692
     5  O   -0.373253
     6  C    0.275048
     7  C   -0.523691
     8  C    0.381668
     9  O   -0.326849
    10  H    0.127526
    11  H    0.127526
    12  H    0.134583
    13  H    0.086713
    14  H    0.146906
    15  H    0.137431
    16  H    0.136500
    17  H    0.146906
    18  H    0.136500
    19  H    0.137431
 Sum of Mulliken charges =   0.00000

 Dipole moment (field-independent basis, Debye):
    X=              0.0000    Y=              2.7009    Z=             -0.9901  Tot=              2.8766
 Quadrupole moment (field-independent basis, Debye-Ang):
   XX=            -47.0856   YY=            -54.8296   ZZ=            -59.1104
   XY=              0.0001   XZ=              0.0000   YZ=              2.2435

  Exact polarizability:  85.020   0.000  73.903   0.000  -2.458  71.320
 Approx polarizability: 112.217   0.000 108.546   0.000  -5.967 121.604

                      1                      2                      3
                      A                      A                      A
 Frequencies --    129.9034               161.4293               162.8694
 Red. masses --      4.4193                 1.1188                 1.0675
 Frc consts  --      0.0439                 0.0172                 0.0167
 IR Inten    --      3.3674                 0.1471                 0.0108

                      4                      5                      6
                      A                      A                      A
 Frequencies --    181.4483               199.5481               207.7181
 Red. masses --      1.7976                 1.1799                 2.6499
 Frc consts  --      0.0349                 0.0277                 0.0674
 IR Inten    --      0.3921                 0.1005                 1.9038

                      7                      8                      9
                      A                      A                      A
 Frequencies --    212.0853               219.5463               309.4601
 Red. masses --      3.9665                 2.5624                 4.2486
 Frc consts  --      0.1051                 0.0728                 0.2397
 IR Inten    --      0.8482                 0.7464                 3.4672

                     10                     11                     12
                      A                      A                      A
 Frequencies --    439.3127               513.3291               565.2068
 Red. masses --      2.8898                 3.0486                 5.3342
 Frc consts  --      0.3286                 0.4733                 1.0040
 IR Inten    --      5.3249                 3.5820                 4.7720

                     13                     14                     15
                      A                      A                      A
 Frequencies --    604.1363               670.7387               691.3120
 Red. masses --      3.8807                 4.1061                 5.0084
 Frc consts  --      0.8345                 1.0884                 1.4103
 IR Inten    --      0.7974                 1.0243                25.0871

                     16                     17                     18
                      A                      A                      A
 Frequencies --    745.9628               796.3517               822.7896
 Red. masses --      3.0953                 3.1679                 2.1753
 Frc consts  --      1.0148                 1.1837                 0.8677
 IR Inten    --      2.0262                 1.7381                 0.9164

                     19                     20                     21
                      A                      A                      A
 Frequencies --    867.6412               883.7209              1015.3598
 Red. masses --      5.8202                 3.9822                 1.2329
 Frc consts  --      2.5815                 1.8323                 0.7489
 IR Inten    --     60.0659                18.3348                 0.7159

                     22                     23                     24
                      A                      A                      A
 Frequencies --   1041.3203              1060.8584              1112.1914
 Red. masses --      1.5038                 1.6606                 1.8662
 Frc consts  --      0.9608                 1.1011                 1.3601
 IR Inten    --     11.9090                 2.0032                 0.1168

                     25                     26                     27
                      A                      A                      A
 Frequencies --   1125.6236              1150.4578              1162.8889
 Red. masses --      2.5526                 2.4214                 1.7926
 Frc consts  --      1.9056                 1.8882                 1.4283
 IR Inten    --     23.0005                 0.9982                 4.8813

                     28                     29                     30
                      A                      A                      A
 Frequencies --   1207.5697              1293.2374              1332.7753
 Red. masses --      2.4943                 2.9291                 1.6245
 Frc consts  --      2.1430                 2.8863                 1.7002
 IR Inten    --      6.4200                11.3801                 8.3001

                     31                     32                     33
                      A                      A                      A
 Frequencies --   1393.9394              1409.1257              1414.4419
 Red. masses --      1.2931                 1.3747                 1.2505
 Frc consts  --      1.4804                 1.6083                 1.4740
 IR Inten    --      0.8596                12.0008                 6.2765

                     34                     35                     36
                      A                      A                      A
 Frequencies --   1454.4646              1474.9995              1475.8935
 Red. masses --      4.2709                 1.0447                 1.0466
 Frc consts  --      5.3233                 1.3392                 1.3433
 IR Inten    --      0.7115                 0.3347                 8.2864

                     37                     38                     39
                      A                      A                      A
 Frequencies --   1487.1832              1488.5316              1493.1317
 Red. masses --      1.0463                 1.0471                 1.0474
 Frc consts  --      1.3634                 1.3670                 1.3758
 IR Inten    --      3.0392                 8.4725                 3.3401

                     40                     41                     42
                      A                      A                      A
 Frequencies --   1501.5013              1918.5560              3033.1354
 Red. masses --      1.0847                12.8868                 1.0354
 Frc consts  --      1.4408                27.9476                 5.6123
 IR Inten    --      3.0733               324.6200                16.5454

                     43                     44                     45
                      A                      A                      A
 Frequencies --   3042.1871              3042.3411              3072.1922
 Red. masses --      1.0348                 1.0348                 1.0857
 Frc consts  --      5.6428                 5.6429                 6.0376
 IR Inten    --     25.5764                 0.7926                 7.0998

                     46                     47                     48
                      A                      A                      A
 Frequencies --   3101.7513              3104.1674              3114.5948
 Red. masses --      1.1010                 1.1004                 1.1009
 Frc consts  --      6.2412                 6.2472                 6.2922
 IR Inten    --     16.2333                22.3797                20.9860

                     49                     50                     51
                      A                      A                      A
 Frequencies --   3114.7246              3119.8793              3119.9988
 Red. masses --      1.1011                 1.1015                 1.1017
 Frc consts  --      6.2941                 6.3170                 6.3189
 IR Inten    --      0.0009                17.6885                 0.0002

 - Thermochemistry -
 -------------------
 Temperature   298.150 Kelvin.  Pressure   1.00000 Atm.
 Atom     1 has atomic number  6 and mass  12.00000

 Molecular mass:   126.06808 amu.
 Principal axes and moments of inertia in atomic units:
                           1         2         3
     Eigenvalues --   910.191071136.777111268.11624
           X            1.00000   0.00000   0.00000
           Y            0.00000   0.98833   0.15231
           Z            0.00000  -0.15231   0.98833
 This molecule is an asymmetric top.
 Rotational symmetry number  1.
 Warning -- assumption of classical behavior for rotation
           may cause significant error
 Rotational temperatures (Kelvin)      0.09516     0.07619     0.06830
 Rotational constants (GHZ):           1.98282     1.58759     1.42317
 Zero-point vibrational energy     408306.6 (Joules/Mol)
                                   97.58762 (Kcal/Mol)
 Warning -- explicit consideration of  13 degrees of freedom as
           vibrations may cause significant error
 Vibrational temperatures:    186.90   232.26   234.33   261.06   287.10
          (Kelvin)            298.86   305.14   315.88   445.24   632.07
                              738.57   813.21   869.22   965.04   994.64
                             1073.27  1145.77  1183.81  1248.34  1271.48
                             1460.87  1498.23  1526.34  1600.19  1619.52
                             1655.25  1673.14  1737.42  1860.68  1917.56
                             2005.57  2027.42  2035.06  2092.65  2122.19
                             2123.48  2139.72  2141.66  2148.28  2160.32
                             2760.37  4364.00  4377.02  4377.24  4420.19
                             4462.72  4466.20  4481.20  4481.39  4488.80
                             4488.98

 Zero-point correction=                           0.155516 (Hartree/Particle)
 Thermal correction to Energy=                    0.165165
 Thermal correction to Enthalpy=                  0.166109
 Thermal correction to Gibbs Free Energy=         0.121608
 Sum of electronic and zero-point Energies=           -422.996608
 Sum of electronic and thermal Energies=              -422.986959
 Sum of electronic and thermal Enthalpies=            -422.986015
 Sum of electronic and thermal Free Energies=         -423.030516

                     E (Thermal)             CV                S
                      KCal/Mol        Cal/Mol-Kelvin    Cal/Mol-Kelvin
 Total                  103.642             35.416             93.660
 Electronic               0.000              0.000              0.000
 Translational            0.889              2.981             40.409
 Rotational               0.889              2.981             28.664
 Vibrational            101.865             29.455             24.588
 Vibration     1          0.612              1.923              2.947
 Vibration     2          0.622              1.890              2.533
 Vibration     3          0.623              1.888              2.516
 Vibration     4          0.630              1.865              2.313
 Vibration     5          0.638              1.841              2.137
 Vibration     6          0.641              1.829              2.064
 Vibration     7          0.643              1.822              2.026
 Vibration     8          0.647              1.811              1.963
 Vibration     9          0.699              1.656              1.365
 Vibration    10          0.799              1.384              0.829
 Vibration    11          0.868              1.220              0.626
 Vibration    12          0.921              1.107              0.514
 Vibration    13          0.963              1.023              0.443

 Optimization completed.
    -- Stationary point found.
 Normal termination of Gaussian 09 at Mon Jan 27 22:44:13 2020.
