 Gaussian 09, Revision D.01,
 Gaussian 09:  ES64L-G09RevD.01 24-Apr-2013

 -----------------------------
 # b3lyp 6-31G(2df,p) opt Freq
 -----------------------------

 -----
 titel
 -----
 Symbolic Z-matrix:
 Charge =  0 Multiplicity = 1

 SCF Done:  E(RB3LYP) =  -423.193301248     A.U. after   13 cycles
 Optimization completed.
    -- Stationary point found.
 Normal termination of Gaussian 09 at Mon Jan 27 12:28:06 2020.

 ----------------------------------------------------------------------
 #N Geom=AllCheck Guess=TCheck SCRF=Check GenChk RB3LYP/6-31G(2df,p) Fr
 eq
 ----------------------------------------------------------------------

 Structure from the checkpoint file:  "/scratch/puck/g09_25149a48-9791-497b-b859-a93e50edf17d/Gau-134092.chk"
 -----
 titel
 -----
 Charge =  0 Multiplicity = 1

                         Standard orientation:
 ---------------------------------------------------------------------
 Center     Atomic      Atomic             Coordinates (Angstroms)
 Number     Number       Type             X           Y           Z
 ---------------------------------------------------------------------
      1          6           0       -2.371033   -0.035464   -0.089805
      2          8           0       -1.513809   -1.175604   -0.033153
      3          6           0       -0.210947   -0.663951   -0.274746
      4          6           0        0.970729   -1.437958    0.264918
      5          6           0        2.243248   -0.621247   -0.104394
      6          6           0        2.058569    0.885126   -0.139479
      7          6           0        0.898514    1.520538    0.045472
      8          6           0       -0.298756    0.695008    0.391508
      9          8           0       -1.569882    1.142542   -0.066970
     10          1           0       -2.957233   -0.020536   -1.018848
     11          1           0       -3.043125   -0.081271    0.779273
     12          1           0       -0.072229   -0.502364   -1.356821
     13          1           0        0.878545   -1.542467    1.351636
     14          1           0        1.031077   -2.445638   -0.155863
     15          1           0        3.056314   -0.871437    0.588232
     16          1           0        2.606009   -0.936629   -1.093080
     17          1           0        2.957871    1.460128   -0.348632
     18          1           0        0.818374    2.602000    0.007990
     19          1           0       -0.348032    0.550394    1.486256
 ---------------------------------------------------------------------

 SCF Done:  E(RB3LYP) =  -423.193301248     A.U. after    1 cycles

 The electronic state is 1-A.
 Alpha  occ. eigenvalues --  -19.14382 -19.14271 -10.27151 -10.23072 -10.22831
 Alpha  occ. eigenvalues --  -10.19764 -10.19160 -10.19016 -10.18606  -1.08232
 Alpha  occ. eigenvalues --   -0.98951  -0.83992  -0.74875  -0.74558  -0.64805
 Alpha  occ. eigenvalues --   -0.61952  -0.60107  -0.54453  -0.50064  -0.48722
 Alpha  occ. eigenvalues --   -0.48219  -0.46777  -0.43848  -0.41659  -0.41020
 Alpha  occ. eigenvalues --   -0.39527  -0.37992  -0.35584  -0.34860  -0.33528
 Alpha  occ. eigenvalues --   -0.30939  -0.27370  -0.25626  -0.24024
 Alpha virt. eigenvalues --    0.01248   0.08529   0.10593   0.12118   0.12430
 Alpha virt. eigenvalues --    0.13230   0.15011   0.15895   0.16759   0.17025
 Alpha virt. eigenvalues --    0.17773   0.18334   0.19508   0.21218   0.21404

 Mulliken charges:
               1
     1  C    0.009146
     2  O   -0.295361
     3  C    0.150060
     4  C   -0.268220
     5  C   -0.260804
     6  C   -0.029119
     7  C   -0.141920
     8  C    0.120148
     9  O   -0.290602
    10  H    0.105477
    11  H    0.102006
    12  H    0.073437
    13  H    0.109650
    14  H    0.108014
    15  H    0.114859
    16  H    0.119078
    17  H    0.093861
    18  H    0.102004
    19  H    0.078286
 Sum of Mulliken charges =   0.00000

 Dipole moment (field-independent basis, Debye):
    X=              1.5096    Y=             -0.2140    Z=              0.1177  Tot=              1.5292
 Quadrupole moment (field-independent basis, Debye-Ang):
   XX=            -49.7228   YY=            -55.7719   ZZ=            -52.7767
   XY=             -0.5210   XZ=             -0.3711   YZ=              0.5672

  Exact polarizability:  96.528  -3.621  73.179  -2.464   0.069  58.860
 Approx polarizability: 130.898 -10.154 108.509  -4.898   0.513  92.715

                      1                      2                      3
                      A                      A                      A
 Frequencies --     82.3265               145.4795               211.8563
 Red. masses --      2.2508                 2.3986                 3.4408
 Frc consts  --      0.0090                 0.0299                 0.0910
 IR Inten    --      6.7149                 1.0371                 0.9068

                      4                      5                      6
                      A                      A                      A
 Frequencies --    306.3254               350.9188               432.9319
 Red. masses --      3.0016                 3.8059                 2.4308
 Frc consts  --      0.1659                 0.2761                 0.2684
 IR Inten    --      1.9591                 0.9517                 0.1934

                      7                      8                      9
                      A                      A                      A
 Frequencies --    452.6467               554.7861               577.7976
 Red. masses --      4.7000                 5.1363                 2.6852
 Frc consts  --      0.5674                 0.9314                 0.5282
 IR Inten    --      2.2683                 4.5348                 6.9176

                     10                     11                     12
                      A                      A                      A
 Frequencies --    691.5021               725.7215               768.9365
 Red. masses --      1.5991                 7.9257                 2.3943
 Frc consts  --      0.4505                 2.4594                 0.8341
 IR Inten    --     20.5899                 3.0800                 5.4370

                     13                     14                     15
                      A                      A                      A
 Frequencies --    841.8786               873.4663               914.0308
 Red. masses --      2.8255                 2.0088                 2.1012
 Frc consts  --      1.1799                 0.9030                 1.0343
 IR Inten    --      3.3228                 3.0314                 8.8547

                     16                     17                     18
                      A                      A                      A
 Frequencies --    960.9786               991.8915              1003.4270
 Red. masses --      7.0803                 1.5638                 2.1629
 Frc consts  --      3.8524                 0.9065                 1.2831
 IR Inten    --     48.8726                 3.8200                 8.1155

                     19                     20                     21
                      A                      A                      A
 Frequencies --   1024.4396              1065.7011              1068.4306
 Red. masses --      2.7197                 2.5342                 2.9339
 Frc consts  --      1.6817                 1.6957                 1.9733
 IR Inten    --      3.2571                19.2240                 6.8691

                     22                     23                     24
                      A                      A                      A
 Frequencies --   1111.7209              1127.3893              1142.9573
 Red. masses --      1.8276                 2.0930                 1.5953
 Frc consts  --      1.3308                 1.5674                 1.2279
 IR Inten    --     59.2933                77.2110                24.8602

                     25                     26                     27
                      A                      A                      A
 Frequencies --   1155.4591              1195.6345              1205.9868
 Red. masses --      2.3234                 1.1977                 1.5160
 Frc consts  --      1.8276                 1.0088                 1.2991
 IR Inten    --    100.4649                 5.3377                19.2561

                     28                     29                     30
                      A                      A                      A
 Frequencies --   1218.6760              1245.1523              1297.4037
 Red. masses --      1.2931                 1.2634                 1.3883
 Frc consts  --      1.1315                 1.1541                 1.3768
 IR Inten    --     24.8936                 6.8103                 2.6844

                     31                     32                     33
                      A                      A                      A
 Frequencies --   1326.3057              1358.4300              1371.3765
 Red. masses --      1.3118                 1.3248                 1.2632
 Frc consts  --      1.3596                 1.4404                 1.3997
 IR Inten    --      0.4231                 8.6173                18.2830

                     34                     35                     36
                      A                      A                      A
 Frequencies --   1392.5179              1412.0338              1417.0293
 Red. masses --      1.5573                 1.5538                 1.4725
 Frc consts  --      1.7792                 1.8253                 1.7420
 IR Inten    --      4.5369                10.7622                11.9639

                     37                     38                     39
                      A                      A                      A
 Frequencies --   1435.6127              1474.6893              1506.6666
 Red. masses --      1.3692                 1.0854                 1.1074
 Frc consts  --      1.6626                 1.3907                 1.4811
 IR Inten    --      1.9150                 4.0789                 4.3561

                     40                     41                     42
                      A                      A                      A
 Frequencies --   1544.9469              1699.5528              2927.0660
 Red. masses --      1.1059                 6.7951                 1.0790
 Frc consts  --      1.5552                11.5642                 5.4469
 IR Inten    --      2.9812                 3.5207                26.5578

                     43                     44                     45
                      A                      A                      A
 Frequencies --   2965.2957              2991.2722              3010.2798
 Red. masses --      1.0826                 1.0541                 1.0675
 Frc consts  --      5.6084                 5.5573                 5.6992
 IR Inten    --     49.5212               119.2462                24.6435

                     46                     47                     48
                      A                      A                      A
 Frequencies --   3031.2575              3039.6602              3052.5090
 Red. masses --      1.1134                 1.0822                 1.0715
 Frc consts  --      6.0279                 5.8910                 5.8825
 IR Inten    --     60.1180                 9.1196                43.0329

                     49                     50                     51
                      A                      A                      A
 Frequencies --   3094.8635              3151.2953              3188.7087
 Red. masses --      1.1038                 1.0862                 1.0954
 Frc consts  --      6.2288                 6.3551                 6.5623
 IR Inten    --     29.1321                12.4631                17.0926

 - Thermochemistry -
 -------------------
 Temperature   298.150 Kelvin.  Pressure   1.00000 Atm.
 Atom     1 has atomic number  6 and mass  12.00000

 Molecular mass:   126.06808 amu.
 Principal axes and moments of inertia in atomic units:
                           1         2         3
     Eigenvalues --   548.781611201.791261654.57906
           X            0.99991  -0.01330  -0.00260
           Y            0.01329   0.99991  -0.00173
           Z            0.00263   0.00169   1.00000
 This molecule is an asymmetric top.
 Rotational symmetry number  1.
 Warning -- assumption of classical behavior for rotation
           may cause significant error
 Rotational temperatures (Kelvin)      0.15783     0.07207     0.05235
 Rotational constants (GHZ):           3.28863     1.50171     1.09076
 Zero-point vibrational energy     425495.1 (Joules/Mol)
                                  101.69576 (Kcal/Mol)
 Warning -- explicit consideration of   9 degrees of freedom as
           vibrations may cause significant error
 Vibrational temperatures:    118.45   209.31   304.81   440.73   504.89
          (Kelvin)            622.89   651.26   798.21   831.32   994.92
                             1044.15  1106.33  1211.27  1256.72  1315.08
                             1382.63  1427.11  1443.71  1473.94  1533.30
                             1537.23  1599.52  1622.06  1644.46  1662.45
                             1720.25  1735.14  1753.40  1791.49  1866.67
                             1908.26  1954.48  1973.10  2003.52  2031.60
                             2038.79  2065.52  2121.75  2167.75  2222.83
                             2445.27  4211.39  4266.39  4303.77  4331.12
                             4361.30  4373.39  4391.87  4452.81  4534.01
                             4587.83

 Zero-point correction=                           0.162063 (Hartree/Particle)
 Thermal correction to Energy=                    0.169455
 Thermal correction to Enthalpy=                  0.170399
 Thermal correction to Gibbs Free Energy=         0.129977
 Sum of electronic and zero-point Energies=           -423.031239
 Sum of electronic and thermal Energies=              -423.023846
 Sum of electronic and thermal Enthalpies=            -423.022902
 Sum of electronic and thermal Free Energies=         -423.063324

                     E (Thermal)             CV                S
                      KCal/Mol        Cal/Mol-Kelvin    Cal/Mol-Kelvin
 Total                  106.335             28.906             85.076
 Electronic               0.000              0.000              0.000
 Translational            0.889              2.981             40.409
 Rotational               0.889              2.981             28.480
 Vibrational            104.557             22.945             16.187
 Vibration     1          0.600              1.961              3.835
 Vibration     2          0.617              1.908              2.731
 Vibration     3          0.643              1.823              2.028
 Vibration     4          0.697              1.662              1.382
 Vibration     5          0.728              1.573              1.162
 Vibration     6          0.794              1.398              0.849
 Vibration     7          0.811              1.355              0.788
 Vibration     8          0.910              1.129              0.534
 Vibration     9          0.934              1.079              0.489

 Optimization completed.
    -- Stationary point found.
 Normal termination of Gaussian 09 at Mon Jan 27 13:26:53 2020.
