 Gaussian 09, Revision D.01,
 Gaussian 09:  ES64L-G09RevD.01 24-Apr-2013

 -----------------------------
 # b3lyp 6-31G(2df,p) opt Freq
 -----------------------------

 -----
 titel
 -----
 Symbolic Z-matrix:
 Charge =  0 Multiplicity = 1

 SCF Done:  E(RB3LYP) =  -423.219886949     A.U. after   14 cycles
 Optimization completed.
    -- Stationary point found.
 Normal termination of Gaussian 09 at Tue Jan 28 00:46:45 2020.

 ----------------------------------------------------------------------
 #N Geom=AllCheck Guess=TCheck SCRF=Check GenChk RB3LYP/6-31G(2df,p) Fr
 eq
 ----------------------------------------------------------------------

 Structure from the checkpoint file:  "/scratch/puck/g09_0513db6e-d9aa-4e1e-a233-388ba2547f4c/Gau-38349.chk"
 -----
 titel
 -----
 Charge =  0 Multiplicity = 1

                         Standard orientation:
 ---------------------------------------------------------------------
 Center     Atomic      Atomic             Coordinates (Angstroms)
 Number     Number       Type             X           Y           Z
 ---------------------------------------------------------------------
      1          6           0       -0.441824    1.970664    0.917678
      2          6           0       -0.706231    1.008506   -0.249374
      3          6           0        0.580707    0.649407   -1.011388
      4          6           0        1.518015   -0.226962   -0.192974
      5          8           0        2.727019   -0.152987   -0.277106
      6          6           0        0.861660   -1.226015    0.685242
      7          6           0       -0.462084   -1.258817    0.866011
      8          6           0       -1.411789   -0.282415    0.214245
      9          8           0       -2.006760   -0.990258   -0.877169
     10          1           0        0.018977    2.895279    0.557147
     11          1           0       -1.373137    2.237996    1.428131
     12          1           0        0.231544    1.532692    1.661213
     13          1           0       -1.391447    1.509021   -0.947095
     14          1           0        0.312142    0.070026   -1.904310
     15          1           0        1.129098    1.534729   -1.342574
     16          1           0        1.527032   -1.932657    1.172149
     17          1           0       -0.913965   -2.029508    1.485201
     18          1           0       -2.188583   -0.015683    0.948644
     19          1           0       -2.744463   -0.462144   -1.200946
 ---------------------------------------------------------------------

 SCF Done:  E(RB3LYP) =  -423.219886949     A.U. after    1 cycles

 The electronic state is 1-A.
 Alpha  occ. eigenvalues --  -19.14845 -19.12133 -10.26223 -10.24819 -10.20900
 Alpha  occ. eigenvalues --  -10.20120 -10.19459 -10.18575 -10.18392  -1.03110
 Alpha  occ. eigenvalues --   -1.02871  -0.83933  -0.77742  -0.72424  -0.68815
 Alpha  occ. eigenvalues --   -0.61043  -0.59118  -0.52430  -0.51203  -0.47797
 Alpha  occ. eigenvalues --   -0.46171  -0.45001  -0.43333  -0.41272  -0.41105
 Alpha  occ. eigenvalues --   -0.39249  -0.38157  -0.36089  -0.35262  -0.34201
 Alpha  occ. eigenvalues --   -0.32663  -0.28320  -0.27570  -0.23819
 Alpha virt. eigenvalues --   -0.05482   0.05643   0.06562   0.10023   0.11631
 Alpha virt. eigenvalues --    0.13118   0.14647   0.14986   0.15240   0.16931
 Alpha virt. eigenvalues --    0.18133   0.19535   0.19857   0.21135   0.22810

 Mulliken charges:
               1
     1  C   -0.406647
     2  C   -0.034051
     3  C   -0.321043
     4  C    0.376513
     5  O   -0.329713
     6  C   -0.134344
     7  C   -0.039795
     8  C    0.069962
     9  O   -0.440622
    10  H    0.123348
    11  H    0.113467
    12  H    0.130889
    13  H    0.066248
    14  H    0.135095
    15  H    0.114834
    16  H    0.109831
    17  H    0.112471
    18  H    0.069589
    19  H    0.283966
 Sum of Mulliken charges =   0.00000

 Dipole moment (field-independent basis, Debye):
    X=             -3.7754    Y=              1.0589    Z=              0.6507  Tot=              3.9747
 Quadrupole moment (field-independent basis, Debye-Ang):
   XX=            -58.8405   YY=            -52.7483   ZZ=            -51.6345
   XY=             -2.3613   XZ=              1.5018   YZ=             -3.0933

  Exact polarizability:  94.914   0.386  72.309  -2.346  -6.196  65.643
 Approx polarizability: 158.365   5.487 100.361  -6.563  -8.218  98.085

                      1                      2                      3
                      A                      A                      A
 Frequencies --     77.0491               138.0357               203.4979
 Red. masses --      5.7675                 3.1666                 1.4114
 Frc consts  --      0.0202                 0.0355                 0.0344
 IR Inten    --      1.9005                 0.9072                 0.2735

                      4                      5                      6
                      A                      A                      A
 Frequencies --    221.1333               261.1999               293.4188
 Red. masses --      2.1280                 2.9996                 1.1297
 Frc consts  --      0.0613                 0.1206                 0.0573
 IR Inten    --      1.8727                 2.8140               103.5728

                      7                      8                      9
                      A                      A                      A
 Frequencies --    322.5575               412.7092               457.2760
 Red. masses --      2.3078                 2.3172                 4.9133
 Frc consts  --      0.1415                 0.2325                 0.6053
 IR Inten    --      5.5723                 7.8968                 4.4415

                     10                     11                     12
                      A                      A                      A
 Frequencies --    462.6482               511.2222               557.9333
 Red. masses --      4.2562                 3.4872                 4.5463
 Frc consts  --      0.5368                 0.5370                 0.8338
 IR Inten    --      6.2322                 4.1044                 2.9339

                     13                     14                     15
                      A                      A                      A
 Frequencies --    648.8629               723.8746               787.8264
 Red. masses --      2.9732                 4.6229                 1.6845
 Frc consts  --      0.7375                 1.4272                 0.6160
 IR Inten    --      9.5165                 1.8270                 6.3044

                     16                     17                     18
                      A                      A                      A
 Frequencies --    816.6024               885.6061               909.2515
 Red. masses --      2.3215                 2.4110                 2.2189
 Frc consts  --      0.9121                 1.1141                 1.0808
 IR Inten    --      4.8557                 6.3850                 6.2594

                     19                     20                     21
                      A                      A                      A
 Frequencies --    957.8413               991.0285              1029.6615
 Red. masses --      2.0520                 2.1384                 1.2945
 Frc consts  --      1.1092                 1.2374                 0.8086
 IR Inten    --      5.5245                18.2333                 2.1882

                     22                     23                     24
                      A                      A                      A
 Frequencies --   1037.3523              1057.8852              1098.6718
 Red. masses --      1.7176                 4.1057                 1.9102
 Frc consts  --      1.0890                 2.7072                 1.3585
 IR Inten    --      3.2069                65.3324                 5.7619

                     25                     26                     27
                      A                      A                      A
 Frequencies --   1138.2922              1140.8665              1220.8263
 Red. masses --      1.2803                 1.7731                 1.2395
 Frc consts  --      0.9774                 1.3597                 1.0884
 IR Inten    --     19.9584                13.3117                 6.7212

                     28                     29                     30
                      A                      A                      A
 Frequencies --   1236.9889              1255.1831              1285.8089
 Red. masses --      1.0851                 1.8477                 1.9085
 Frc consts  --      0.9782                 1.7152                 1.8591
 IR Inten    --     62.9016                32.6722                 5.5827

                     31                     32                     33
                      A                      A                      A
 Frequencies --   1334.6990              1363.4873              1381.4632
 Red. masses --      1.3074                 1.6876                 1.3554
 Frc consts  --      1.3722                 1.8485                 1.5241
 IR Inten    --      1.1344                 5.6029                 3.6095

                     34                     35                     36
                      A                      A                      A
 Frequencies --   1400.0253              1414.3379              1444.0863
 Red. masses --      1.5521                 1.2462                 1.6128
 Frc consts  --      1.7924                 1.4688                 1.9816
 IR Inten    --     15.6958                 8.3776                15.0366

                     37                     38                     39
                      A                      A                      A
 Frequencies --   1455.8561              1497.5258              1503.2457
 Red. masses --      1.0949                 1.0461                 1.0563
 Frc consts  --      1.3673                 1.3822                 1.4064
 IR Inten    --      6.9451                 4.6803                 2.4516

                     40                     41                     42
                      A                      A                      A
 Frequencies --   1692.7036              1783.1720              2967.4480
 Red. masses --      7.1434                11.4376                 1.0828
 Frc consts  --     12.0592                21.4276                 5.6179
 IR Inten    --      3.8234               205.7590                48.9706

                     43                     44                     45
                      A                      A                      A
 Frequencies --   3005.9196              3035.4999              3037.3452
 Red. masses --      1.0831                 1.0475                 1.0530
 Frc consts  --      5.7659                 5.6867                 5.7236
 IR Inten    --     37.7050                26.0094                 3.9562

                     46                     47                     48
                      A                      A                      A
 Frequencies --   3102.2926              3104.6275              3111.2665
 Red. masses --      1.1008                 1.0977                 1.1011
 Frc consts  --      6.2417                 6.2337                 6.2798
 IR Inten    --     17.6300                16.2714                26.5962

                     49                     50                     51
                      A                      A                      A
 Frequencies --   3160.5149              3187.8994              3806.1798
 Red. masses --      1.0860                 1.0968                 1.0661
 Frc consts  --      6.3912                 6.5676                 9.0999
 IR Inten    --      7.9193                12.1354                16.1087

 - Thermochemistry -
 -------------------
 Temperature   298.150 Kelvin.  Pressure   1.00000 Atm.
 Atom     1 has atomic number  6 and mass  12.00000

 Molecular mass:   126.06808 amu.
 Principal axes and moments of inertia in atomic units:
                           1         2         3
     Eigenvalues --   773.817291247.257471522.93361
           X            0.99974  -0.02267  -0.00352
           Y            0.02263   0.99967  -0.01174
           Z            0.00378   0.01166   0.99992
 This molecule is an asymmetric top.
 Rotational symmetry number  1.
 Warning -- assumption of classical behavior for rotation
           may cause significant error
 Rotational temperatures (Kelvin)      0.11193     0.06944     0.05687
 Rotational constants (GHZ):           2.33226     1.44697     1.18504
 Zero-point vibrational energy     418278.5 (Joules/Mol)
                                   99.97096 (Kcal/Mol)
 Warning -- explicit consideration of  12 degrees of freedom as
           vibrations may cause significant error
 Vibrational temperatures:    110.86   198.60   292.79   318.16   375.81
          (Kelvin)            422.16   464.09   593.80   657.92   665.65
                              735.53   802.74   933.57  1041.49  1133.51
                             1174.91  1274.19  1308.21  1378.12  1425.87
                             1481.45  1492.52  1522.06  1580.74  1637.75
                             1641.45  1756.49  1779.75  1805.93  1849.99
                             1920.33  1961.75  1987.61  2014.32  2034.91
                             2077.72  2094.65  2154.60  2162.83  2435.42
                             2565.58  4269.49  4324.84  4367.40  4370.06
                             4463.50  4466.86  4476.41  4547.27  4586.67
                             5476.24

 Zero-point correction=                           0.159314 (Hartree/Particle)
 Thermal correction to Energy=                    0.168043
 Thermal correction to Enthalpy=                  0.168987
 Thermal correction to Gibbs Free Energy=         0.126083
 Sum of electronic and zero-point Energies=           -423.060573
 Sum of electronic and thermal Energies=              -423.051844
 Sum of electronic and thermal Enthalpies=            -423.050900
 Sum of electronic and thermal Free Energies=         -423.093804

                     E (Thermal)             CV                S
                      KCal/Mol        Cal/Mol-Kelvin    Cal/Mol-Kelvin
 Total                  105.449             33.287             90.300
 Electronic               0.000              0.000              0.000
 Translational            0.889              2.981             40.409
 Rotational               0.889              2.981             28.776
 Vibrational            103.671             27.325             21.115
 Vibration     1          0.599              1.964              3.965
 Vibration     2          0.614              1.915              2.831
 Vibration     3          0.639              1.835              2.101
 Vibration     4          0.648              1.809              1.950
 Vibration     5          0.669              1.744              1.654
 Vibration     6          0.688              1.686              1.454
 Vibration     7          0.708              1.630              1.297
 Vibration     8          0.776              1.443              0.917
 Vibration     9          0.815              1.345              0.774
 Vibration    10          0.820              1.333              0.758
 Vibration    11          0.866              1.225              0.631
 Vibration    12          0.913              1.122              0.528

 Optimization completed.
    -- Stationary point found.
 Normal termination of Gaussian 09 at Tue Jan 28 02:57:06 2020.
