 Gaussian 09, Revision D.01,
 Gaussian 09:  ES64L-G09RevD.01 24-Apr-2013

 -----------------------------
 # b3lyp 6-31G(2df,p) opt Freq
 -----------------------------

 -----
 titel
 -----
 Symbolic Z-matrix:
 Charge =  0 Multiplicity = 1

 SCF Done:  E(RB3LYP) =  -423.149869103     A.U. after   14 cycles
 Optimization completed.
    -- Stationary point found.
 Normal termination of Gaussian 09 at Tue Jan 28 02:55:46 2020.

 ----------------------------------------------------------------------
 #N Geom=AllCheck Guess=TCheck SCRF=Check GenChk RB3LYP/6-31G(2df,p) Fr
 eq
 ----------------------------------------------------------------------

 Structure from the checkpoint file:  "/scratch/puck/g09_18b742df-3980-4048-ba11-3bde5b91f81f/Gau-65337.chk"
 -----
 titel
 -----
 Charge =  0 Multiplicity = 1

                         Standard orientation:
 ---------------------------------------------------------------------
 Center     Atomic      Atomic             Coordinates (Angstroms)
 Number     Number       Type             X           Y           Z
 ---------------------------------------------------------------------
      1          6           0        2.637971   -0.354680   -0.306970
      2          6           0        1.223065    0.101492   -0.659838
      3          6           0        0.763714    1.404170    0.067611
      4          6           0       -0.712540    1.163737    0.375295
      5          6           0       -1.038648   -0.082650    1.211290
      6          8           0        0.075825   -0.976251    1.199982
      7          6           0        0.126559   -0.888841   -0.265883
      8          6           0       -1.209408   -0.096667   -0.276617
      9          8           0       -2.262756   -0.166148   -1.157641
     10          1           0        2.919011   -1.254152   -0.865451
     11          1           0        3.372738    0.423129   -0.538692
     12          1           0        2.705223   -0.582293    0.761081
     13          1           0        1.144968    0.251924   -1.745761
     14          1           0        1.342527    1.558858    0.984070
     15          1           0        0.903656    2.288539   -0.560497
     16          1           0       -1.411625    1.986570    0.479906
     17          1           0       -1.710463   -0.104270    2.061143
     18          1           0        0.170224   -1.881011   -0.722610
     19          1           0       -2.685082   -1.027456   -1.061255
 ---------------------------------------------------------------------

 SCF Done:  E(RB3LYP) =  -423.149869103     A.U. after    1 cycles

 The electronic state is 1-A.
 Alpha  occ. eigenvalues --  -19.15828 -19.13422 -10.23615 -10.23205 -10.23045
 Alpha  occ. eigenvalues --  -10.18769 -10.18700 -10.17952 -10.16997  -1.05824
 Alpha  occ. eigenvalues --   -1.03135  -0.84102  -0.78589  -0.69368  -0.68307
 Alpha  occ. eigenvalues --   -0.58912  -0.56962  -0.55522  -0.53442  -0.47956
 Alpha  occ. eigenvalues --   -0.47513  -0.41880  -0.41514  -0.40707  -0.39541
 Alpha  occ. eigenvalues --   -0.38747  -0.36406  -0.35690  -0.34488  -0.33734
 Alpha  occ. eigenvalues --   -0.31959  -0.27311  -0.25803  -0.22209
 Alpha virt. eigenvalues --    0.06842   0.08306   0.10623   0.12054   0.13012
 Alpha virt. eigenvalues --    0.14388   0.14987   0.15668   0.16312   0.17571
 Alpha virt. eigenvalues --    0.17730   0.18401   0.19606   0.22243   0.23135

 Mulliken charges:
               1
     1  C   -0.413683
     2  C    0.040932
     3  C   -0.247914
     4  C   -0.126917
     5  C   -0.003271
     6  O   -0.306690
     7  C    0.003897
     8  C    0.308394
     9  O   -0.455232
    10  H    0.108389
    11  H    0.112569
    12  H    0.134733
    13  H    0.075898
    14  H    0.107419
    15  H    0.101021
    16  H    0.092944
    17  H    0.105972
    18  H    0.071883
    19  H    0.289655
 Sum of Mulliken charges =   0.00000

 Dipole moment (field-independent basis, Debye):
    X=             -0.6187    Y=             -0.2626    Z=             -0.5301  Tot=              0.8560
 Quadrupole moment (field-independent basis, Debye-Ang):
   XX=            -50.7534   YY=            -51.1825   ZZ=            -55.1270
   XY=              3.6560   XZ=             -3.1866   YZ=              3.6306

  Exact polarizability:  81.669   0.520  71.904  -2.986   2.467  67.751
 Approx polarizability: 106.501   0.266 108.508   0.002   0.920 108.886

                      1                      2                      3
                      A                      A                      A
 Frequencies --    125.7417               217.6045               248.9735
 Red. masses --      3.1145                 2.0838                 1.9178
 Frc consts  --      0.0290                 0.0581                 0.0700
 IR Inten    --      0.3603                 3.9413                 0.4484

                      4                      5                      6
                      A                      A                      A
 Frequencies --    252.0867               333.2928               358.0885
 Red. masses --      1.4804                 4.4088                 1.2151
 Frc consts  --      0.0554                 0.2885                 0.0918
 IR Inten    --      2.8144                 9.3668                71.9337

                      7                      8                      9
                      A                      A                      A
 Frequencies --    377.0110               484.2844               523.1547
 Red. masses --      2.4783                 3.7312                 2.9183
 Frc consts  --      0.2075                 0.5156                 0.4706
 IR Inten    --     24.5146                 2.5198                 6.8278

                     10                     11                     12
                      A                      A                      A
 Frequencies --    615.9965               631.8984               710.3067
 Red. masses --      4.0273                 3.5665                 3.6179
 Frc consts  --      0.9004                 0.8390                 1.0755
 IR Inten    --      6.4854                 1.4171                 0.7622

                     13                     14                     15
                      A                      A                      A
 Frequencies --    763.5986               837.1511               853.9547
 Red. masses --      3.9632                 2.9345                 2.9269
 Frc consts  --      1.3615                 1.2117                 1.2576
 IR Inten    --      5.1044                 3.6707                14.3095

                     16                     17                     18
                      A                      A                      A
 Frequencies --    897.2690               916.1404               938.1890
 Red. masses --      1.9301                 1.8233                 1.8824
 Frc consts  --      0.9156                 0.9016                 0.9762
 IR Inten    --     11.1996                13.4387                13.8559

                     19                     20                     21
                      A                      A                      A
 Frequencies --    950.7303               978.4394              1007.1907
 Red. masses --      1.8255                 2.2655                 2.0290
 Frc consts  --      0.9722                 1.2779                 1.2127
 IR Inten    --      6.2331                27.0388                13.7179

                     22                     23                     24
                      A                      A                      A
 Frequencies --   1018.2450              1043.2459              1082.2596
 Red. masses --      1.9134                 2.2202                 2.1756
 Frc consts  --      1.1689                 1.4237                 1.5014
 IR Inten    --     13.0069                12.5313                 8.3146

                     25                     26                     27
                      A                      A                      A
 Frequencies --   1112.0514              1136.6364              1155.2212
 Red. masses --      1.9439                 1.7715                 1.7533
 Frc consts  --      1.4164                 1.3484                 1.3786
 IR Inten    --      0.3603                 1.2710                 1.6432

                     28                     29                     30
                      A                      A                      A
 Frequencies --   1199.1847              1220.6595              1247.8079
 Red. masses --      1.8407                 1.6284                 1.5762
 Frc consts  --      1.5596                 1.4295                 1.4459
 IR Inten    --     28.8504                11.9625                16.6615

                     31                     32                     33
                      A                      A                      A
 Frequencies --   1272.5117              1291.7786              1310.2526
 Red. masses --      1.7214                 1.7319                 1.3595
 Frc consts  --      1.6423                 1.7027                 1.3751
 IR Inten    --     19.3335                19.7573                 3.5407

                     34                     35                     36
                      A                      A                      A
 Frequencies --   1324.9797              1346.9714              1364.1477
 Red. masses --      1.4244                 1.4628                 1.6937
 Frc consts  --      1.4733                 1.5637                 1.8570
 IR Inten    --     87.2656                 9.7829                 3.0719

                     37                     38                     39
                      A                      A                      A
 Frequencies --   1405.4082              1487.6604              1493.6414
 Red. masses --      1.2447                 1.6749                 1.2523
 Frc consts  --      1.4485                 2.1840                 1.6460
 IR Inten    --      3.7294                17.3418                 6.8611

                     40                     41                     42
                      A                      A                      A
 Frequencies --   1499.7925              1505.4532              3009.0672
 Red. masses --      1.3773                 1.0568                 1.0829
 Frc consts  --      1.8254                 1.4112                 5.7772
 IR Inten    --     27.2811                 3.3727                20.7921

                     43                     44                     45
                      A                      A                      A
 Frequencies --   3032.7498              3048.1781              3083.9193
 Red. masses --      1.0356                 1.0598                 1.0901
 Frc consts  --      5.6118                 5.8016                 6.1082
 IR Inten    --     27.4033                36.5420                36.7214

                     46                     47                     48
                      A                      A                      A
 Frequencies --   3089.9226              3097.0679              3113.9038
 Red. masses --      1.1039                 1.1013                 1.1013
 Frc consts  --      6.2097                 6.2237                 6.2914
 IR Inten    --     21.5566                29.3575                23.9072

                     49                     50                     51
                      A                      A                      A
 Frequencies --   3177.6153              3189.0360              3787.1872
 Red. masses --      1.0895                 1.0948                 1.0660
 Frc consts  --      6.4816                 6.5601                 9.0083
 IR Inten    --      4.5992                24.2174                23.9192

 - Thermochemistry -
 -------------------
 Temperature   298.150 Kelvin.  Pressure   1.00000 Atm.
 Atom     1 has atomic number  6 and mass  12.00000

 Molecular mass:   126.06808 amu.
 Principal axes and moments of inertia in atomic units:
                           1         2         3
     Eigenvalues --   604.819541256.662891281.13600
           X            0.99964   0.01938  -0.01856
           Y           -0.00339   0.77741   0.62899
           Z            0.02662  -0.62870   0.77719
 This molecule is an asymmetric top.
 Rotational symmetry number  1.
 Warning -- assumption of classical behavior for rotation
           may cause significant error
 Rotational temperatures (Kelvin)      0.14321     0.06892     0.06761
 Rotational constants (GHZ):           2.98393     1.43614     1.40870
 Zero-point vibrational energy     419695.8 (Joules/Mol)
                                  100.30970 (Kcal/Mol)
 Warning -- explicit consideration of  10 degrees of freedom as
           vibrations may cause significant error
 Vibrational temperatures:    180.91   313.08   358.22   362.70   479.53
          (Kelvin)            515.21   542.43   696.78   752.70   886.28
                              909.16  1021.97  1098.65  1204.47  1228.65
                             1290.97  1318.12  1349.84  1367.89  1407.75
                             1449.12  1465.03  1501.00  1557.13  1599.99
                             1635.36  1662.10  1725.36  1756.25  1795.31
                             1830.86  1858.58  1885.16  1906.35  1937.99
                             1962.70  2022.07  2140.41  2149.01  2157.86
                             2166.01  4329.37  4363.45  4385.64  4437.07
                             4445.70  4455.98  4480.21  4571.87  4588.31
                             5448.91

 Zero-point correction=                           0.159854 (Hartree/Particle)
 Thermal correction to Energy=                    0.167578
 Thermal correction to Enthalpy=                  0.168522
 Thermal correction to Gibbs Free Energy=         0.128101
 Sum of electronic and zero-point Energies=           -422.990015
 Sum of electronic and thermal Energies=              -422.982291
 Sum of electronic and thermal Enthalpies=            -422.981347
 Sum of electronic and thermal Free Energies=         -423.021768

                     E (Thermal)             CV                S
                      KCal/Mol        Cal/Mol-Kelvin    Cal/Mol-Kelvin
 Total                  105.157             31.239             85.072
 Electronic               0.000              0.000              0.000
 Translational            0.889              2.981             40.409
 Rotational               0.889              2.981             28.367
 Vibrational            103.379             25.278             16.296
 Vibration     1          0.611              1.927              3.010
 Vibration     2          0.646              1.814              1.979
 Vibration     3          0.662              1.764              1.738
 Vibration     4          0.664              1.759              1.716
 Vibration     5          0.715              1.609              1.244
 Vibration     6          0.733              1.559              1.130
 Vibration     7          0.748              1.519              1.051
 Vibration     8          0.840              1.285              0.699
 Vibration     9          0.878              1.199              0.603
 Vibration    10          0.976              0.998              0.423

 Optimization completed.
    -- Stationary point found.
 Normal termination of Gaussian 09 at Tue Jan 28 03:56:35 2020.
