 Gaussian 09, Revision D.01,
 Gaussian 09:  ES64L-G09RevD.01 24-Apr-2013

 -----------------------------
 # b3lyp 6-31G(2df,p) opt Freq
 -----------------------------

 -----
 titel
 -----
 Symbolic Z-matrix:
 Charge =  0 Multiplicity = 1

 SCF Done:  E(RB3LYP) =  -423.190325086     A.U. after   14 cycles
 Optimization completed.
    -- Stationary point found.
 Normal termination of Gaussian 09 at Mon Jan 27 17:14:30 2020.

 ----------------------------------------------------------------------
 #N Geom=AllCheck Guess=TCheck SCRF=Check GenChk RB3LYP/6-31G(2df,p) Fr
 eq
 ----------------------------------------------------------------------

 Structure from the checkpoint file:  "/scratch/puck/g09_3c349df6-b378-494c-9cf5-849658c6b289/Gau-168202.chk"
 -----
 titel
 -----
 Charge =  0 Multiplicity = 1

                         Standard orientation:
 ---------------------------------------------------------------------
 Center     Atomic      Atomic             Coordinates (Angstroms)
 Number     Number       Type             X           Y           Z
 ---------------------------------------------------------------------
      1          8           0        0.430116    1.922301   -0.348207
      2          6           0       -0.246716    0.735632   -0.125988
      3          6           0       -1.707972    0.572433   -0.611727
      4          6           0       -1.698325   -0.605962    0.407711
      5          6           0       -0.769955    0.279440    1.280403
      6          6           0       -0.698451   -1.595508   -0.232349
      7          6           0        0.402460   -0.568818   -0.659471
      8          6           0        1.783150   -0.826321   -0.118123
      9          8           0        2.480155    0.020647    0.394454
     10          1           0        1.331894    1.780076   -0.026381
     11          1           0       -2.337949    1.403324   -0.288444
     12          1           0       -1.880014    0.350015   -1.669386
     13          1           0       -2.622903   -1.026783    0.798999
     14          1           0       -1.303047    1.088368    1.782927
     15          1           0       -0.076290   -0.209051    1.970747
     16          1           0       -0.330336   -2.335210    0.487163
     17          1           0       -1.120028   -2.135143   -1.084111
     18          1           0        0.509976   -0.536931   -1.753345
     19          1           0        2.161388   -1.867620   -0.230875
 ---------------------------------------------------------------------

 SCF Done:  E(RB3LYP) =  -423.190325086     A.U. after    1 cycles

 The electronic state is 1-A.
 Alpha  occ. eigenvalues --  -19.15577 -19.13097 -10.28308 -10.24233 -10.20136
 Alpha  occ. eigenvalues --  -10.19906 -10.19844 -10.18338 -10.18038  -1.06134
 Alpha  occ. eigenvalues --   -1.02100  -0.89023  -0.75963  -0.69539  -0.66641
 Alpha  occ. eigenvalues --   -0.61611  -0.56875  -0.54353  -0.52074  -0.49200
 Alpha  occ. eigenvalues --   -0.47271  -0.45674  -0.43201  -0.41411  -0.40386
 Alpha  occ. eigenvalues --   -0.38228  -0.36912  -0.35712  -0.34773  -0.33490
 Alpha  occ. eigenvalues --   -0.31666  -0.30831  -0.25946  -0.25308
 Alpha virt. eigenvalues --   -0.03576   0.08845   0.09955   0.11548   0.12132
 Alpha virt. eigenvalues --    0.13407   0.14887   0.15400   0.15838   0.16750
 Alpha virt. eigenvalues --    0.17246   0.19448   0.19949   0.20562   0.21796

 Mulliken charges:
               1
     1  O   -0.498853
     2  C    0.438648
     3  C   -0.272414
     4  C   -0.018880
     5  C   -0.293261
     6  C   -0.249567
     7  C   -0.139089
     8  C    0.143229
     9  O   -0.267114
    10  H    0.288797
    11  H    0.107667
    12  H    0.088510
    13  H    0.069352
    14  H    0.105684
    15  H    0.092075
    16  H    0.102464
    17  H    0.106264
    18  H    0.105938
    19  H    0.090548
 Sum of Mulliken charges =   0.00000

 Dipole moment (field-independent basis, Debye):
    X=             -1.1795    Y=             -2.5003    Z=             -0.4510  Tot=              2.8011
 Quadrupole moment (field-independent basis, Debye-Ang):
   XX=            -55.8330   YY=            -54.8776   ZZ=            -52.5096
   XY=             -1.4796   XZ=             -1.9754   YZ=              1.8759

  Exact polarizability:  81.207  -0.712  76.129   2.086   2.453  66.654
 Approx polarizability: 114.767   5.032 114.942   6.558   4.319 104.253

                      1                      2                      3
                      A                      A                      A
 Frequencies --     82.9487               162.9682               208.5733
 Red. masses --      4.6372                 2.5434                 5.5507
 Frc consts  --      0.0188                 0.0398                 0.1423
 IR Inten    --      2.7978                 1.4147                 7.3949

                      4                      5                      6
                      A                      A                      A
 Frequencies --    336.3316               361.6744               400.6894
 Red. masses --      3.8954                 3.2234                 1.8779
 Frc consts  --      0.2596                 0.2484                 0.1776
 IR Inten    --      1.7290                 5.6571                 0.2811

                      7                      8                      9
                      A                      A                      A
 Frequencies --    428.7940               513.8314               539.6351
 Red. masses --      3.3447                 1.8620                 1.1615
 Frc consts  --      0.3623                 0.2896                 0.1993
 IR Inten    --      2.5412                 4.6541               102.8974

                     10                     11                     12
                      A                      A                      A
 Frequencies --    578.2226               661.0009               686.8009
 Red. masses --      3.6395                 3.9977                 3.7528
 Frc consts  --      0.7169                 1.0291                 1.0430
 IR Inten    --      7.4689                 6.5591                 6.2878

                     13                     14                     15
                      A                      A                      A
 Frequencies --    774.6297               821.9473               881.5093
 Red. masses --      2.8058                 2.7241                 2.0694
 Frc consts  --      0.9920                 1.0843                 0.9474
 IR Inten    --      5.1913                 2.1896                 5.3913

                     16                     17                     18
                      A                      A                      A
 Frequencies --    894.5699               904.6781               949.9913
 Red. masses --      2.5598                 1.5325                 1.9099
 Frc consts  --      1.2069                 0.7390                 1.0155
 IR Inten    --      2.2248                 1.3959                 5.7004

                     19                     20                     21
                      A                      A                      A
 Frequencies --    962.6661              1001.6244              1003.5817
 Red. masses --      1.5892                 1.9762                 1.2215
 Frc consts  --      0.8677                 1.1681                 0.7249
 IR Inten    --      0.4287                 1.0724                 3.3069

                     22                     23                     24
                      A                      A                      A
 Frequencies --   1024.5619              1065.2632              1091.9589
 Red. masses --      2.6828                 1.9185                 1.3751
 Frc consts  --      1.6592                 1.2827                 0.9661
 IR Inten    --      2.6842                 9.4682                 3.7093

                     25                     26                     27
                      A                      A                      A
 Frequencies --   1100.3725              1138.8296              1157.9976
 Red. masses --      1.3696                 1.6357                 2.1545
 Frc consts  --      0.9771                 1.2499                 1.7022
 IR Inten    --      6.2851                10.8856                37.1885

                     28                     29                     30
                      A                      A                      A
 Frequencies --   1188.2537              1213.5737              1231.2560
 Red. masses --      1.3928                 1.3605                 1.7020
 Frc consts  --      1.1587                 1.1805                 1.5202
 IR Inten    --      0.5805                 0.8865                 6.2619

                     31                     32                     33
                      A                      A                      A
 Frequencies --   1253.8555              1278.7207              1309.2889
 Red. masses --      1.6360                 2.1178                 1.7241
 Frc consts  --      1.5154                 2.0403                 1.7413
 IR Inten    --      3.0842                33.7353                77.4280

                     34                     35                     36
                      A                      A                      A
 Frequencies --   1316.9619              1343.7221              1406.8849
 Red. masses --      1.5518                 2.1607                 1.5322
 Frc consts  --      1.5857                 2.2986                 1.7868
 IR Inten    --     39.2683                45.7065                43.5603

                     37                     38                     39
                      A                      A                      A
 Frequencies --   1423.3982              1487.3764              1500.2346
 Red. masses --      1.2958                 1.0981                 1.1000
 Frc consts  --      1.5469                 1.4313                 1.4586
 IR Inten    --     16.7968                 2.8079                 3.0100

                     40                     41                     42
                      A                      A                      A
 Frequencies --   1529.3921              1797.5486              2877.9609
 Red. masses --      1.1502                10.3968                 1.0834
 Frc consts  --      1.5852                19.7930                 5.2871
 IR Inten    --      3.1117               147.7169               119.3163

                     43                     44                     45
                      A                      A                      A
 Frequencies --   3009.9275              3043.5950              3052.1697
 Red. masses --      1.0815                 1.0623                 1.0594
 Frc consts  --      5.7728                 5.7977                 5.8145
 IR Inten    --     16.4253                37.8604                55.5963

                     46                     47                     48
                      A                      A                      A
 Frequencies --   3060.5340              3096.6303              3123.2425
 Red. masses --      1.0600                 1.1029                 1.1068
 Frc consts  --      5.8501                 6.2310                 6.3609
 IR Inten    --      8.2393                23.9121                12.3236

                     49                     50                     51
                      A                      A                      A
 Frequencies --   3127.3327              3132.3656              3738.4394
 Red. masses --      1.0990                 1.0975                 1.0649
 Frc consts  --      6.3329                 6.3448                 8.7687
 IR Inten    --     27.6180                47.9865                83.6208

 - Thermochemistry -
 -------------------
 Temperature   298.150 Kelvin.  Pressure   1.00000 Atm.
 Atom     1 has atomic number  8 and mass  15.99491

 Molecular mass:   126.06808 amu.
 Principal axes and moments of inertia in atomic units:
                           1         2         3
     Eigenvalues --   681.824041079.765471390.34961
           X            0.99992  -0.01101  -0.00579
           Y            0.01115   0.99962   0.02540
           Z            0.00551  -0.02546   0.99966
 This molecule is an asymmetric top.
 Rotational symmetry number  1.
 Warning -- assumption of classical behavior for rotation
           may cause significant error
 Rotational temperatures (Kelvin)      0.12703     0.08022     0.06230
 Rotational constants (GHZ):           2.64693     1.67142     1.29805
 Zero-point vibrational energy     420357.7 (Joules/Mol)
                                  100.46790 (Kcal/Mol)
 Warning -- explicit consideration of  10 degrees of freedom as
           vibrations may cause significant error
 Vibrational temperatures:    119.34   234.47   300.09   483.91   520.37
          (Kelvin)            576.50   616.94   739.29   776.41   831.93
                              951.03   988.15  1114.52  1182.60  1268.29
                             1287.09  1301.63  1366.82  1385.06  1441.11
                             1443.93  1474.11  1532.67  1571.08  1583.19
                             1638.52  1666.10  1709.63  1746.06  1771.50
                             1804.02  1839.79  1883.77  1894.81  1933.31
                             2024.19  2047.95  2140.00  2158.50  2200.45
                             2586.27  4140.74  4330.61  4379.05  4391.39
                             4403.42  4455.35  4493.64  4499.53  4506.77
                             5378.77

 Zero-point correction=                           0.160106 (Hartree/Particle)
 Thermal correction to Energy=                    0.167794
 Thermal correction to Enthalpy=                  0.168738
 Thermal correction to Gibbs Free Energy=         0.128014
 Sum of electronic and zero-point Energies=           -423.030219
 Sum of electronic and thermal Energies=              -423.022531
 Sum of electronic and thermal Enthalpies=            -423.021587
 Sum of electronic and thermal Free Energies=         -423.062311

                     E (Thermal)             CV                S
                      KCal/Mol        Cal/Mol-Kelvin    Cal/Mol-Kelvin
 Total                  105.292             30.825             85.711
 Electronic               0.000              0.000              0.000
 Translational            0.889              2.981             40.409
 Rotational               0.889              2.981             28.417
 Vibrational            103.515             24.864             16.886
 Vibration     1          0.600              1.961              3.820
 Vibration     2          0.623              1.888              2.515
 Vibration     3          0.642              1.828              2.056
 Vibration     4          0.717              1.603              1.230
 Vibration     5          0.736              1.551              1.115
 Vibration     6          0.767              1.469              0.960
 Vibration     7          0.790              1.408              0.863
 Vibration     8          0.869              1.219              0.624
 Vibration     9          0.895              1.162              0.566
 Vibration    10          0.935              1.078              0.489

 Optimization completed.
    -- Stationary point found.
 Normal termination of Gaussian 09 at Mon Jan 27 18:00:13 2020.
