 Gaussian 09, Revision D.01,
 Gaussian 09:  ES64L-G09RevD.01 24-Apr-2013

 -----------------------------
 # b3lyp 6-31G(2df,p) opt Freq
 -----------------------------

 -----
 titel
 -----
 Symbolic Z-matrix:
 Charge =  0 Multiplicity = 1

 SCF Done:  E(RB3LYP) =  -423.161813489     A.U. after   13 cycles
 Optimization completed.
    -- Stationary point found.
 Normal termination of Gaussian 09 at Mon Jan 27 11:30:01 2020.

 ----------------------------------------------------------------------
 #N Geom=AllCheck Guess=TCheck SCRF=Check GenChk RB3LYP/6-31G(2df,p) Fr
 eq
 ----------------------------------------------------------------------

 Structure from the checkpoint file:  "/scratch/puck/g09_de79b7f9-a7c9-4061-b0e7-745db8be967f/Gau-61242.chk"
 -----
 titel
 -----
 Charge =  0 Multiplicity = 1

                         Standard orientation:
 ---------------------------------------------------------------------
 Center     Atomic      Atomic             Coordinates (Angstroms)
 Number     Number       Type             X           Y           Z
 ---------------------------------------------------------------------
      1          6           0        1.962129    0.248936   -0.540568
      2          8           0        1.602281   -1.145795   -0.368058
      3          6           0        0.592803   -0.818683    0.634337
      4          6           0       -0.742069   -1.547722    0.490544
      5          6           0       -1.700412   -0.869448   -0.502068
      6          6           0       -1.853306    0.636636   -0.196362
      7          6           0       -0.508933    1.323441   -0.371097
      8          8           0        0.212632    1.773487    0.807540
      9          6           0        0.658644    0.621152    0.146034
     10          1           0        2.866227    0.512138    0.025677
     11          1           0        2.091113    0.521903   -1.592977
     12          1           0        1.013928   -0.959435    1.639826
     13          1           0       -0.542712   -2.585503    0.201563
     14          1           0       -1.216810   -1.581727    1.479312
     15          1           0       -1.322385   -0.990504   -1.524823
     16          1           0       -2.676475   -1.363917   -0.466625
     17          1           0       -2.601685    1.089827   -0.853210
     18          1           0       -2.197471    0.780585    0.834391
     19          1           0       -0.386172    1.989227   -1.223911
 ---------------------------------------------------------------------

 SCF Done:  E(RB3LYP) =  -423.161813489     A.U. after    1 cycles

 The electronic state is 1-A.
 Alpha  occ. eigenvalues --  -19.15712 -19.13886 -10.24027 -10.23755 -10.23340
 Alpha  occ. eigenvalues --  -10.23337 -10.19083 -10.18896 -10.18705  -1.07988
 Alpha  occ. eigenvalues --   -1.03647  -0.81192  -0.74001  -0.71411  -0.67824
 Alpha  occ. eigenvalues --   -0.62184  -0.59816  -0.53177  -0.50038  -0.48975
 Alpha  occ. eigenvalues --   -0.47634  -0.45362  -0.44636  -0.42888  -0.39888
 Alpha  occ. eigenvalues --   -0.38664  -0.38181  -0.34943  -0.34531  -0.32147
 Alpha  occ. eigenvalues --   -0.31596  -0.29352  -0.26782  -0.25115
 Alpha virt. eigenvalues --    0.07248   0.07967   0.09292   0.11456   0.12102
 Alpha virt. eigenvalues --    0.13227   0.13966   0.15035   0.15879   0.17051
 Alpha virt. eigenvalues --    0.17786   0.19187   0.19577   0.20713   0.21223

 Mulliken charges:
               1
     1  C   -0.170104
     2  O   -0.299462
     3  C    0.074841
     4  C   -0.231147
     5  C   -0.207691
     6  C   -0.235190
     7  C   -0.034107
     8  O   -0.297444
     9  C    0.357534
    10  H    0.107482
    11  H    0.111885
    12  H    0.078095
    13  H    0.115846
    14  H    0.104228
    15  H    0.108939
    16  H    0.098412
    17  H    0.102330
    18  H    0.116358
    19  H    0.099195
 Sum of Mulliken charges =   0.00000

 Dipole moment (field-independent basis, Debye):
    X=             -1.2456    Y=             -0.0925    Z=             -0.7274  Tot=              1.4455
 Quadrupole moment (field-independent basis, Debye-Ang):
   XX=            -51.4180   YY=            -57.1151   ZZ=            -52.4347
   XY=              2.4787   XZ=              0.4171   YZ=             -4.7927

  Exact polarizability:  83.297   1.396  72.674   0.220  -4.476  66.466
 Approx polarizability: 110.987  -0.776 106.799   0.172  -0.879 105.195

                      1                      2                      3
                      A                      A                      A
 Frequencies --    123.9256               198.9148               234.3211
 Red. masses --      2.9982                 2.3471                 3.2002
 Frc consts  --      0.0271                 0.0547                 0.1035
 IR Inten    --      2.4437                 1.2607                 4.8999

                      4                      5                      6
                      A                      A                      A
 Frequencies --    322.3133               371.5214               436.1920
 Red. masses --      2.1153                 2.3823                 2.9268
 Frc consts  --      0.1295                 0.1937                 0.3281
 IR Inten    --      1.8981                 2.5698                 0.9373

                      7                      8                      9
                      A                      A                      A
 Frequencies --    455.3024               487.4084               575.6561
 Red. masses --      3.8980                 3.6548                 6.1146
 Frc consts  --      0.4761                 0.5116                 1.1938
 IR Inten    --     10.9056                 1.7563                 1.5304

                     10                     11                     12
                      A                      A                      A
 Frequencies --    633.0778               782.9380               808.7297
 Red. masses --      2.3608                 2.5279                 3.2535
 Frc consts  --      0.5575                 0.9130                 1.2537
 IR Inten    --      1.2701                 1.9877                 8.4283

                     13                     14                     15
                      A                      A                      A
 Frequencies --    813.3909               868.2330               903.6812
 Red. masses --      2.5718                 2.1543                 2.7602
 Frc consts  --      1.0025                 0.9568                 1.3281
 IR Inten    --      3.9357                 7.3938                24.1074

                     16                     17                     18
                      A                      A                      A
 Frequencies --    942.3954               956.7375               972.4701
 Red. masses --      2.1107                 2.3159                 3.3305
 Frc consts  --      1.1045                 1.2490                 1.8557
 IR Inten    --     13.6613                38.6771                38.7558

                     19                     20                     21
                      A                      A                      A
 Frequencies --    986.5459              1038.1489              1076.3603
 Red. masses --      2.8680                 1.8754                 1.8963
 Frc consts  --      1.6446                 1.1909                 1.2944
 IR Inten    --     22.6135                 5.2893                16.4720

                     22                     23                     24
                      A                      A                      A
 Frequencies --   1085.4854              1093.3443              1111.8393
 Red. masses --      2.4247                 1.9289                 2.6375
 Frc consts  --      1.6833                 1.3586                 1.9210
 IR Inten    --      7.2990                 8.6594                 5.8723

                     25                     26                     27
                      A                      A                      A
 Frequencies --   1150.5869              1173.2298              1184.6403
 Red. masses --      1.3607                 1.6183                 1.4568
 Frc consts  --      1.0613                 1.3125                 1.2046
 IR Inten    --      7.0339                 0.3504                 6.7059

                     28                     29                     30
                      A                      A                      A
 Frequencies --   1215.7066              1274.4757              1291.8794
 Red. masses --      1.5374                 1.3337                 1.3656
 Frc consts  --      1.3388                 1.2764                 1.3428
 IR Inten    --      3.9203                 0.9010                 3.5656

                     31                     32                     33
                      A                      A                      A
 Frequencies --   1317.5177              1346.7349              1354.3279
 Red. masses --      1.3143                 1.2869                 1.4811
 Frc consts  --      1.3441                 1.3752                 1.6006
 IR Inten    --      5.7940                 0.6873                 2.5490

                     34                     35                     36
                      A                      A                      A
 Frequencies --   1366.4203              1373.3815              1398.4324
 Red. masses --      1.4665                 1.4313                 1.4619
 Frc consts  --      1.6132                 1.5906                 1.6844
 IR Inten    --      3.3629                 0.6730                 6.1105

                     37                     38                     39
                      A                      A                      A
 Frequencies --   1464.0739              1480.9197              1491.4463
 Red. masses --      1.0870                 1.0975                 1.1071
 Frc consts  --      1.3728                 1.4181                 1.4509
 IR Inten    --      2.5411                 4.3669                 2.2991

                     40                     41                     42
                      A                      A                      A
 Frequencies --   1514.6156              1530.7785              2998.4536
 Red. masses --      1.2189                 3.9732                 1.0793
 Frc consts  --      1.6475                 5.4855                 5.7170
 IR Inten    --      3.8648                30.1765                32.8002

                     43                     44                     45
                      A                      A                      A
 Frequencies --   3010.0142              3031.0102              3033.0041
 Red. masses --      1.0636                 1.0684                 1.0615
 Frc consts  --      5.6776                 5.7831                 5.7533
 IR Inten    --     77.4870                16.5781                37.7695

                     46                     47                     48
                      A                      A                      A
 Frequencies --   3042.1451              3074.7692              3075.4435
 Red. masses --      1.0611                 1.1042                 1.0960
 Frc consts  --      5.7858                 6.1509                 6.1076
 IR Inten    --     17.7679                30.7618                21.0081

                     49                     50                     51
                      A                      A                      A
 Frequencies --   3082.0745              3089.5373              3125.1688
 Red. masses --      1.1009                 1.1030                 1.0900
 Frc consts  --      6.1614                 6.2031                 6.2725
 IR Inten    --     39.8234                18.0183                31.7133

 - Thermochemistry -
 -------------------
 Temperature   298.150 Kelvin.  Pressure   1.00000 Atm.
 Atom     1 has atomic number  6 and mass  12.00000

 Molecular mass:   126.06808 amu.
 Principal axes and moments of inertia in atomic units:
                           1         2         3
     Eigenvalues --   748.35386 934.033971382.71210
           X            0.99598   0.08957   0.00260
           Y           -0.08936   0.99496  -0.04544
           Z           -0.00665   0.04502   0.99896
 This molecule is an asymmetric top.
 Rotational symmetry number  1.
 Warning -- assumption of classical behavior for rotation
           may cause significant error
 Rotational temperatures (Kelvin)      0.11574     0.09273     0.06264
 Rotational constants (GHZ):           2.41161     1.93220     1.30522
 Zero-point vibrational energy     423296.9 (Joules/Mol)
                                  101.17039 (Kcal/Mol)
 Warning -- explicit consideration of   9 degrees of freedom as
           vibrations may cause significant error
 Vibrational temperatures:    178.30   286.19   337.14   463.74   534.54
          (Kelvin)            627.58   655.08   701.27   828.24   910.86
                             1126.47  1163.58  1170.29  1249.19  1300.19
                             1355.90  1376.53  1399.17  1419.42  1493.66
                             1548.64  1561.77  1573.08  1599.69  1655.44
                             1688.01  1704.43  1749.13  1833.68  1858.72
                             1895.61  1937.65  1948.57  1965.97  1975.99
                             2012.03  2106.47  2130.71  2145.86  2179.19
                             2202.45  4314.10  4330.73  4360.94  4363.81
                             4376.96  4423.90  4424.87  4434.41  4445.15
                             4496.42

 Zero-point correction=                           0.161225 (Hartree/Particle)
 Thermal correction to Energy=                    0.168462
 Thermal correction to Enthalpy=                  0.169406
 Thermal correction to Gibbs Free Energy=         0.129743
 Sum of electronic and zero-point Energies=           -423.000588
 Sum of electronic and thermal Energies=              -422.993351
 Sum of electronic and thermal Enthalpies=            -422.992407
 Sum of electronic and thermal Free Energies=         -423.032070

                     E (Thermal)             CV                S
                      KCal/Mol        Cal/Mol-Kelvin    Cal/Mol-Kelvin
 Total                  105.712             29.188             83.478
 Electronic               0.000              0.000              0.000
 Translational            0.889              2.981             40.409
 Rotational               0.889              2.981             28.360
 Vibrational            103.934             23.227             14.710
 Vibration     1          0.610              1.929              3.038
 Vibration     2          0.637              1.841              2.143
 Vibration     3          0.654              1.788              1.846
 Vibration     4          0.707              1.631              1.298
 Vibration     5          0.743              1.531              1.074
 Vibration     6          0.797              1.391              0.839
 Vibration     7          0.814              1.349              0.780
 Vibration     8          0.843              1.278              0.690
 Vibration     9          0.932              1.084              0.493

 Optimization completed.
    -- Stationary point found.
 Normal termination of Gaussian 09 at Mon Jan 27 13:41:28 2020.
