 Gaussian 09, Revision D.01,
 Gaussian 09:  ES64L-G09RevD.01 24-Apr-2013

 -----------------------------
 # b3lyp 6-31G(2df,p) opt Freq
 -----------------------------

 -----
 titel
 -----
 Symbolic Z-matrix:
 Charge =  0 Multiplicity = 1

 SCF Done:  E(RB3LYP) =  -423.176795852     A.U. after   14 cycles
 Optimization completed.
    -- Stationary point found.
 Normal termination of Gaussian 09 at Tue Jan 28 00:06:31 2020.

 ----------------------------------------------------------------------
 #N Geom=AllCheck Guess=TCheck SCRF=Check GenChk RB3LYP/6-31G(2df,p) Fr
 eq
 ----------------------------------------------------------------------

 Structure from the checkpoint file:  "/scratch/puck/g09_e511deaf-998a-4ef1-aa4c-24975606551f/Gau-21329.chk"
 -----
 titel
 -----
 Charge =  0 Multiplicity = 1

                         Standard orientation:
 ---------------------------------------------------------------------
 Center     Atomic      Atomic             Coordinates (Angstroms)
 Number     Number       Type             X           Y           Z
 ---------------------------------------------------------------------
      1          8           0        2.626659   -0.097531   -0.482890
      2          6           0        1.525837    0.026599    0.415686
      3          6           0        0.831840    1.365209    0.276367
      4          6           0       -0.479186    1.388144    0.035395
      5          6           0       -1.223865    0.068512   -0.073080
      6          8           0       -2.609748    0.198188   -0.239286
      7          6           0       -0.393816   -0.869182   -1.005615
      8          6           0        0.500633   -1.110902    0.246964
      9          6           0       -0.769065   -0.830812    1.105676
     10          1           0        2.291277    0.064815   -1.371549
     11          1           0        1.984876   -0.053162    1.409812
     12          1           0        1.433544    2.264466    0.366342
     13          1           0       -1.049099    2.308456   -0.062970
     14          1           0       -2.774551    0.740700   -1.018258
     15          1           0       -0.962817   -1.765255   -1.265505
     16          1           0        0.050377   -0.433955   -1.906236
     17          1           0        0.988342   -2.081296    0.345429
     18          1           0       -1.401555   -1.718421    1.189290
     19          1           0       -0.649952   -0.357006    2.082695
 ---------------------------------------------------------------------

 SCF Done:  E(RB3LYP) =  -423.176795852     A.U. after    1 cycles

 The electronic state is 1-A.
 Alpha  occ. eigenvalues --  -19.14177 -19.13371 -10.24319 -10.23324 -10.19067
 Alpha  occ. eigenvalues --  -10.18780 -10.18310 -10.18237 -10.18179  -1.02794
 Alpha  occ. eigenvalues --   -1.01529  -0.86947  -0.76538  -0.71011  -0.66560
 Alpha  occ. eigenvalues --   -0.60380  -0.59148  -0.53540  -0.52915  -0.49151
 Alpha  occ. eigenvalues --   -0.45481  -0.44139  -0.42670  -0.41874  -0.41064
 Alpha  occ. eigenvalues --   -0.38404  -0.36502  -0.34756  -0.32291  -0.31960
 Alpha  occ. eigenvalues --   -0.30705  -0.27524  -0.26192  -0.24406
 Alpha virt. eigenvalues --    0.00205   0.07871   0.08443   0.09446   0.12790
 Alpha virt. eigenvalues --    0.13547   0.14405   0.14887   0.17660   0.18478
 Alpha virt. eigenvalues --    0.19394   0.19657   0.21183   0.21564   0.22021

 Mulliken charges:
               1
     1  O   -0.439961
     2  C    0.108267
     3  C   -0.126344
     4  C   -0.136566
     5  C    0.398532
     6  O   -0.496003
     7  C   -0.290297
     8  C   -0.057448
     9  C   -0.258400
    10  H    0.276364
    11  H    0.093816
    12  H    0.098360
    13  H    0.091869
    14  H    0.275333
    15  H    0.104809
    16  H    0.075623
    17  H    0.075982
    18  H    0.106626
    19  H    0.099437
 Sum of Mulliken charges =   0.00000

 Dipole moment (field-independent basis, Debye):
    X=             -0.7024    Y=              0.7743    Z=             -1.2288  Tot=              1.6133
 Quadrupole moment (field-independent basis, Debye-Ang):
   XX=            -61.9059   YY=            -50.6841   ZZ=            -49.4255
   XY=             -0.9182   XZ=              2.8186   YZ=             -1.7670

  Exact polarizability:  87.178   0.230  73.459   2.749  -0.876  65.937
 Approx polarizability: 134.656  -1.298 104.487   4.985  -1.792 102.051

                      1                      2                      3
                      A                      A                      A
 Frequencies --    140.6506               240.6926               244.9270
 Red. masses --      4.6809                 1.2558                 1.6048
 Frc consts  --      0.0546                 0.0429                 0.0567
 IR Inten    --      1.8769                22.8815                42.2356

                      4                      5                      6
                      A                      A                      A
 Frequencies --    313.6332               315.9344               342.7872
 Red. masses --      1.4807                 3.4849                 2.9347
 Frc consts  --      0.0858                 0.2049                 0.2032
 IR Inten    --    104.5047                19.9108                 3.1978

                      7                      8                      9
                      A                      A                      A
 Frequencies --    415.0446               428.5185               465.4429
 Red. masses --      2.7516                 4.2000                 2.3727
 Frc consts  --      0.2793                 0.4544                 0.3029
 IR Inten    --      1.3631                 4.1279                 3.1485

                     10                     11                     12
                      A                      A                      A
 Frequencies --    487.2824               613.6378               640.0686
 Red. masses --      2.9037                 3.9757                 3.5550
 Frc consts  --      0.4062                 0.8820                 0.8581
 IR Inten    --      4.0997                 0.1015                 1.1773

                     13                     14                     15
                      A                      A                      A
 Frequencies --    706.7335               741.8937               815.6782
 Red. masses --      3.1888                 1.7193                 2.6381
 Frc consts  --      0.9384                 0.5575                 1.0342
 IR Inten    --      5.8809                18.2302                10.9843

                     16                     17                     18
                      A                      A                      A
 Frequencies --    870.5860               899.6498               933.9790
 Red. masses --      1.7986                 3.4480                 2.4181
 Frc consts  --      0.8032                 1.6442                 1.2428
 IR Inten    --      1.7454                11.7406                12.6966

                     19                     20                     21
                      A                      A                      A
 Frequencies --    949.8880               969.1172               982.4782
 Red. masses --      2.0058                 1.7986                 1.5560
 Frc consts  --      1.0663                 0.9952                 0.8849
 IR Inten    --     12.1992                 7.9315                 4.6815

                     22                     23                     24
                      A                      A                      A
 Frequencies --   1017.8120              1022.1364              1060.9930
 Red. masses --      2.2160                 1.9740                 1.9077
 Frc consts  --      1.3525                 1.2151                 1.2653
 IR Inten    --      5.6267                30.0058                28.7191

                     25                     26                     27
                      A                      A                      A
 Frequencies --   1065.0107              1122.9687              1151.6518
 Red. masses --      1.5524                 1.2954                 1.3872
 Frc consts  --      1.0374                 0.9625                 1.0840
 IR Inten    --     61.4948                 4.9691                56.6608

                     28                     29                     30
                      A                      A                      A
 Frequencies --   1167.5748              1191.3104              1237.1692
 Red. masses --      1.3193                 2.1146                 1.6673
 Frc consts  --      1.0597                 1.7682                 1.5036
 IR Inten    --     11.6520                33.1693                 5.4965

                     31                     32                     33
                      A                      A                      A
 Frequencies --   1243.2696              1263.2204              1269.5579
 Red. masses --      1.4843                 1.3557                 2.1288
 Frc consts  --      1.3517                 1.2746                 2.0215
 IR Inten    --      5.2329                 3.1006               107.3116

                     34                     35                     36
                      A                      A                      A
 Frequencies --   1320.1460              1351.6993              1361.0095
 Red. masses --      1.9001                 1.4791                 1.7389
 Frc consts  --      1.9511                 1.5922                 1.8978
 IR Inten    --      1.4304                 5.8336                24.0401

                     37                     38                     39
                      A                      A                      A
 Frequencies --   1390.2727              1421.6321              1476.4707
 Red. masses --      1.5123                 1.2961                 1.0945
 Frc consts  --      1.7222                 1.5434                 1.4058
 IR Inten    --      5.0235                80.8712                 5.6914

                     40                     41                     42
                      A                      A                      A
 Frequencies --   1508.4934              1690.1541              3025.1939
 Red. masses --      1.1447                 7.0465                 1.0836
 Frc consts  --      1.5347                11.8598                 5.8427
 IR Inten    --      2.0880                 1.7874                27.9033

                     43                     44                     45
                      A                      A                      A
 Frequencies --   3044.6230              3061.1703              3102.4085
 Red. masses --      1.0581                 1.0573                 1.0918
 Frc consts  --      5.7790                 5.8373                 6.1913
 IR Inten    --     46.8897                22.5591                27.1317

                     46                     47                     48
                      A                      A                      A
 Frequencies --   3110.8466              3122.1764              3156.7323
 Red. masses --      1.1043                 1.1091                 1.0855
 Frc consts  --      6.2963                 6.3697                 6.3734
 IR Inten    --     28.8369                28.9124                 8.1644

                     49                     50                     51
                      A                      A                      A
 Frequencies --   3184.2811              3801.8456              3801.8910
 Red. masses --      1.0992                 1.0658                 1.0658
 Frc consts  --      6.5668                 9.0764                 9.0770
 IR Inten    --     18.4498                19.0951                 8.4772

 - Thermochemistry -
 -------------------
 Temperature   298.150 Kelvin.  Pressure   1.00000 Atm.
 Atom     1 has atomic number  8 and mass  15.99491

 Molecular mass:   126.06808 amu.
 Principal axes and moments of inertia in atomic units:
                           1         2         3
     Eigenvalues --   542.434751300.871891475.41119
           X            0.99997   0.00510   0.00569
           Y           -0.00502   0.99989  -0.01362
           Z           -0.00576   0.01359   0.99989
 This molecule is an asymmetric top.
 Rotational symmetry number  1.
 Warning -- assumption of classical behavior for rotation
           may cause significant error
 Rotational temperatures (Kelvin)      0.15968     0.06658     0.05870
 Rotational constants (GHZ):           3.32711     1.38733     1.22321
 Zero-point vibrational energy     420262.1 (Joules/Mol)
                                  100.44506 (Kcal/Mol)
 Warning -- explicit consideration of  11 degrees of freedom as
           vibrations may cause significant error
 Vibrational temperatures:    202.36   346.30   352.39   451.25   454.56
          (Kelvin)            493.19   597.16   616.54   669.67   701.09
                              882.89   920.91  1016.83  1067.42  1173.58
                             1252.58  1294.39  1343.79  1366.68  1394.34
                             1413.57  1464.40  1470.62  1526.53  1532.31
                             1615.70  1656.97  1679.88  1714.03  1780.01
                             1788.79  1817.49  1826.61  1899.39  1944.79
                             1958.19  2000.29  2045.41  2124.31  2170.38
                             2431.75  4352.57  4380.53  4404.34  4463.67
                             4475.81  4492.11  4541.83  4581.46  5470.00
                             5470.07

 Zero-point correction=                           0.160069 (Hartree/Particle)
 Thermal correction to Energy=                    0.167965
 Thermal correction to Enthalpy=                  0.168910
 Thermal correction to Gibbs Free Energy=         0.128345
 Sum of electronic and zero-point Energies=           -423.016726
 Sum of electronic and thermal Energies=              -423.008830
 Sum of electronic and thermal Enthalpies=            -423.007886
 Sum of electronic and thermal Free Energies=         -423.048451

                     E (Thermal)             CV                S
                      KCal/Mol        Cal/Mol-Kelvin    Cal/Mol-Kelvin
 Total                  105.400             32.391             85.375
 Electronic               0.000              0.000              0.000
 Translational            0.889              2.981             40.409
 Rotational               0.889              2.981             28.434
 Vibrational            103.622             26.430             16.532
 Vibration     1          0.615              1.913              2.795
 Vibration     2          0.658              1.778              1.798
 Vibration     3          0.660              1.771              1.767
 Vibration     4          0.701              1.648              1.343
 Vibration     5          0.703              1.643              1.331
 Vibration     6          0.722              1.590              1.199
 Vibration     7          0.778              1.438              0.909
 Vibration     8          0.790              1.408              0.864
 Vibration     9          0.823              1.327              0.750
 Vibration    10          0.843              1.278              0.691
 Vibration    11          0.973              1.003              0.427

 Normal termination of Gaussian 09 at Tue Jan 28 00:59:50 2020.
