 Gaussian 09, Revision D.01,
 Gaussian 09:  ES64L-G09RevD.01 24-Apr-2013

 -----------------------------
 # b3lyp 6-31G(2df,p) opt Freq
 -----------------------------

 -----
 titel
 -----
 Symbolic Z-matrix:
 Charge =  0 Multiplicity = 1

 SCF Done:  E(RB3LYP) =  -423.223604642     A.U. after   14 cycles
 Optimization completed.
    -- Stationary point found.
 Normal termination of Gaussian 09 at Mon Jan 27 23:04:41 2020.

 ----------------------------------------------------------------------
 #N Geom=AllCheck Guess=TCheck SCRF=Check GenChk RB3LYP/6-31G(2df,p) Fr
 eq
 ----------------------------------------------------------------------

 Structure from the checkpoint file:  "/scratch/puck/g09_bb629dfb-42f0-4de2-b930-dabf3d530cf4/Gau-101801.chk"
 -----
 titel
 -----
 Charge =  0 Multiplicity = 1

                         Standard orientation:
 ---------------------------------------------------------------------
 Center     Atomic      Atomic             Coordinates (Angstroms)
 Number     Number       Type             X           Y           Z
 ---------------------------------------------------------------------
      1          6           0       -1.215683    1.826968    0.439947
      2          6           0       -1.160116    0.614274   -0.477142
      3          6           0       -1.240586   -0.842060    0.073079
      4          6           0       -0.432433   -1.281479   -1.174206
      5          6           0        0.182199    0.147998   -1.131720
      6          6           0        1.282241    0.162552   -0.091343
      7          8           0        2.371598    0.640635   -0.243370
      8          8           0        0.967280   -0.430316    1.095413
      9          6           0       -0.350260   -0.983299    1.298714
     10          1           0       -1.037252    2.746217   -0.127548
     11          1           0       -2.202931    1.914440    0.906967
     12          1           0       -0.468309    1.781971    1.237214
     13          1           0       -1.899702    0.722393   -1.277672
     14          1           0       -2.220908   -1.285519    0.265588
     15          1           0        0.244804   -2.133894   -1.076564
     16          1           0       -1.067018   -1.414108   -2.052939
     17          1           0        0.540136    0.624074   -2.043249
     18          1           0       -0.212745   -2.038186    1.561585
     19          1           0       -0.779274   -0.469662    2.166297
 ---------------------------------------------------------------------

 SCF Done:  E(RB3LYP) =  -423.223604642     A.U. after    1 cycles

 The electronic state is 1-A.
 Alpha  occ. eigenvalues --  -19.17466 -19.11413 -10.29837 -10.24876 -10.20887
 Alpha  occ. eigenvalues --  -10.20828 -10.20527 -10.20187 -10.18464  -1.08983
 Alpha  occ. eigenvalues --   -1.01031  -0.87869  -0.75407  -0.74272  -0.65872
 Alpha  occ. eigenvalues --   -0.63534  -0.61174  -0.52336  -0.50184  -0.49317
 Alpha  occ. eigenvalues --   -0.47731  -0.44630  -0.44150  -0.42018  -0.41094
 Alpha  occ. eigenvalues --   -0.40193  -0.39658  -0.37002  -0.33643  -0.32635
 Alpha  occ. eigenvalues --   -0.32396  -0.31234  -0.28715  -0.25704
 Alpha virt. eigenvalues --    0.01706   0.06926   0.10482   0.11061   0.11791
 Alpha virt. eigenvalues --    0.13201   0.14322   0.14694   0.15408   0.15842
 Alpha virt. eigenvalues --    0.17091   0.17604   0.19151   0.19456   0.21751

 Mulliken charges:
               1
     1  C   -0.440871
     2  C    0.035172
     3  C   -0.058542
     4  C   -0.242686
     5  C   -0.162996
     6  C    0.432087
     7  O   -0.338733
     8  O   -0.241341
     9  C   -0.075918
    10  H    0.127935
    11  H    0.118252
    12  H    0.139086
    13  H    0.083060
    14  H    0.074080
    15  H    0.111652
    16  H    0.109828
    17  H    0.091169
    18  H    0.119607
    19  H    0.119161
 Sum of Mulliken charges =   0.00000

 Dipole moment (field-independent basis, Debye):
    X=             -4.3505    Y=             -1.2185    Z=             -0.3973  Tot=              4.5354
 Quadrupole moment (field-independent basis, Debye-Ang):
   XX=            -61.4361   YY=            -51.2951   ZZ=            -51.4993
   XY=             -2.1757   XZ=             -0.9254   YZ=             -0.2769

  Exact polarizability:  77.983   2.977  74.035  -3.190  -1.608  71.861
 Approx polarizability: 119.396   9.236 105.619  -5.764  -5.301 106.648

                      1                      2                      3
                      A                      A                      A
 Frequencies --    118.7200               180.7434               208.0541
 Red. masses --      6.0905                 4.4005                 1.1846
 Frc consts  --      0.0506                 0.0847                 0.0302
 IR Inten    --      1.2702                 2.7712                 0.0475

                      4                      5                      6
                      A                      A                      A
 Frequencies --    251.9593               304.8669               386.3892
 Red. masses --      1.8064                 2.6059                 2.0092
 Frc consts  --      0.0676                 0.1427                 0.1767
 IR Inten    --      0.9526                 1.0863                 0.1333

                      7                      8                      9
                      A                      A                      A
 Frequencies --    454.1348               503.7726               530.2768
 Red. masses --      7.0613                 3.6164                 4.5242
 Frc consts  --      0.8580                 0.5408                 0.7495
 IR Inten    --      4.9046                 0.3216                 1.4033

                     10                     11                     12
                      A                      A                      A
 Frequencies --    604.3324               740.1025               756.9676
 Red. masses --      4.3266                 3.8409                 4.3729
 Frc consts  --      0.9310                 1.2396                 1.4763
 IR Inten    --      1.1792                 1.1170                 4.2442

                     13                     14                     15
                      A                      A                      A
 Frequencies --    781.7880               839.6852               872.9646
 Red. masses --      2.6660                 2.4669                 2.6712
 Frc consts  --      0.9600                 1.0248                 1.1994
 IR Inten    --      3.3608                 1.8876                 1.0474

                     16                     17                     18
                      A                      A                      A
 Frequencies --    899.3884               942.9551               971.0389
 Red. masses --      2.7090                 1.7455                 1.5607
 Frc consts  --      1.2911                 0.9144                 0.8670
 IR Inten    --     14.7411                 1.5915                 6.9524

                     19                     20                     21
                      A                      A                      A
 Frequencies --   1014.1639              1033.5216              1059.2249
 Red. masses --      1.9440                 2.4538                 1.6761
 Frc consts  --      1.1781                 1.5443                 1.1080
 IR Inten    --     10.3100                10.7712               126.6970

                     22                     23                     24
                      A                      A                      A
 Frequencies --   1062.4478              1088.6576              1130.6200
 Red. masses --      1.5615                 1.4875                 2.1568
 Frc consts  --      1.0385                 1.0387                 1.6244
 IR Inten    --      3.3595                 0.0553                19.4375

                     25                     26                     27
                      A                      A                      A
 Frequencies --   1144.8172              1166.7738              1206.3179
 Red. masses --      1.7186                 2.5552                 1.8566
 Frc consts  --      1.3271                 2.0495                 1.5918
 IR Inten    --      1.1344                 7.5596                48.9147

                     28                     29                     30
                      A                      A                      A
 Frequencies --   1230.6148              1247.3374              1270.2777
 Red. masses --      1.2275                 1.3870                 1.8679
 Frc consts  --      1.0952                 1.2714                 1.7758
 IR Inten    --      6.4015                15.3039                23.6346

                     31                     32                     33
                      A                      A                      A
 Frequencies --   1295.9003              1329.8041              1350.2473
 Red. masses --      1.3595                 1.9344                 1.6703
 Frc consts  --      1.3452                 2.0155                 1.7942
 IR Inten    --      0.1356                20.2558                 2.4421

                     34                     35                     36
                      A                      A                      A
 Frequencies --   1382.5872              1417.3324              1424.9811
 Red. masses --      1.3345                 1.3076                 1.4135
 Frc consts  --      1.5030                 1.5476                 1.6911
 IR Inten    --      3.1963                 7.8986                14.6375

                     37                     38                     39
                      A                      A                      A
 Frequencies --   1496.5019              1499.2210              1502.6923
 Red. masses --      1.0547                 1.0703                 1.0989
 Frc consts  --      1.3916                 1.4173                 1.4620
 IR Inten    --      1.4821                 7.4784                 3.6315

                     40                     41                     42
                      A                      A                      A
 Frequencies --   1518.5479              1855.7075              3033.9768
 Red. masses --      1.0812                12.2666                 1.0482
 Frc consts  --      1.4690                24.8882                 5.6850
 IR Inten    --      2.2390               351.7115                26.0083

                     43                     44                     45
                      A                      A                      A
 Frequencies --   3035.6873              3045.8789              3062.3790
 Red. masses --      1.0467                 1.0836                 1.0589
 Frc consts  --      5.6830                 5.9232                 5.8506
 IR Inten    --     33.9910                18.1901                27.2080

                     46                     47                     48
                      A                      A                      A
 Frequencies --   3074.2835              3080.6224              3097.5587
 Red. masses --      1.1085                 1.0864                 1.1005
 Frc consts  --      6.1727                 6.0745                 6.2212
 IR Inten    --     27.4000                47.9532                17.4504

                     49                     50                     51
                      A                      A                      A
 Frequencies --   3114.9195              3120.6952              3130.7186
 Red. masses --      1.1007                 1.1085                 1.0897
 Frc consts  --      6.2923                 6.3607                 6.2927
 IR Inten    --     16.4313                22.0061                21.1040

 - Thermochemistry -
 -------------------
 Temperature   298.150 Kelvin.  Pressure   1.00000 Atm.
 Atom     1 has atomic number  6 and mass  12.00000

 Molecular mass:   126.06808 amu.
 Principal axes and moments of inertia in atomic units:
                           1         2         3
     Eigenvalues --   788.316251056.783391143.65541
           X            0.99826  -0.05487  -0.02138
           Y            0.05652   0.99463   0.08670
           Z            0.01651  -0.08776   0.99600
 This molecule is an asymmetric top.
 Rotational symmetry number  1.
 Warning -- assumption of classical behavior for rotation
           may cause significant error
 Rotational temperatures (Kelvin)      0.10987     0.08196     0.07573
 Rotational constants (GHZ):           2.28936     1.70777     1.57805
 Zero-point vibrational energy     423915.6 (Joules/Mol)
                                  101.31826 (Kcal/Mol)
 Warning -- explicit consideration of  10 degrees of freedom as
           vibrations may cause significant error
 Vibrational temperatures:    170.81   260.05   299.34   362.51   438.63
          (Kelvin)            555.93   653.40   724.82   762.95   869.50
                             1064.84  1089.11  1124.82  1208.12  1256.00
                             1294.02  1356.70  1397.11  1459.15  1487.01
                             1523.99  1528.62  1566.33  1626.71  1647.13
                             1678.73  1735.62  1770.58  1794.64  1827.64
                             1864.51  1913.29  1942.70  1989.23  2039.22
                             2050.23  2153.13  2157.04  2162.04  2184.85
                             2669.95  4365.21  4367.67  4382.33  4406.07
                             4423.20  4432.32  4456.69  4481.67  4489.98
                             4504.40

 Zero-point correction=                           0.161461 (Hartree/Particle)
 Thermal correction to Energy=                    0.169081
 Thermal correction to Enthalpy=                  0.170025
 Thermal correction to Gibbs Free Energy=         0.129583
 Sum of electronic and zero-point Energies=           -423.062144
 Sum of electronic and thermal Energies=              -423.054524
 Sum of electronic and thermal Enthalpies=            -423.053580
 Sum of electronic and thermal Free Energies=         -423.094021

                     E (Thermal)             CV                S
                      KCal/Mol        Cal/Mol-Kelvin    Cal/Mol-Kelvin
 Total                  106.100             30.064             85.117
 Electronic               0.000              0.000              0.000
 Translational            0.889              2.981             40.409
 Rotational               0.889              2.981             28.346
 Vibrational            104.322             24.103             16.363
 Vibration     1          0.609              1.934              3.121
 Vibration     2          0.630              1.866              2.321
 Vibration     3          0.641              1.828              2.061
 Vibration     4          0.664              1.759              1.717
 Vibration     5          0.696              1.664              1.390
 Vibration     6          0.755              1.499              1.014
 Vibration     7          0.813              1.352              0.783
 Vibration     8          0.859              1.242              0.649
 Vibration     9          0.885              1.183              0.587
 Vibration    10          0.963              1.023              0.442

 Optimization completed.
    -- Stationary point found.
 Normal termination of Gaussian 09 at Mon Jan 27 23:53:55 2020.
