 Gaussian 09, Revision D.01,
 Gaussian 09:  ES64L-G09RevD.01 24-Apr-2013

 -----------------------------
 # b3lyp 6-31G(2df,p) opt Freq
 -----------------------------

 -----
 titel
 -----
 Symbolic Z-matrix:
 Charge =  0 Multiplicity = 1

 SCF Done:  E(RB3LYP) =  -423.161451574     A.U. after   14 cycles
 Optimization completed.
    -- Stationary point found.
 Normal termination of Gaussian 09 at Tue Jan 28 04:00:40 2020.

 ----------------------------------------------------------------------
 #N Geom=AllCheck Guess=TCheck SCRF=Check GenChk RB3LYP/6-31G(2df,p) Fr
 eq
 ----------------------------------------------------------------------

 Structure from the checkpoint file:  "/scratch/puck/g09_85b49ab8-eeac-4ee8-89ed-70c3c3562088/Gau-90809.chk"
 -----
 titel
 -----
 Charge =  0 Multiplicity = 1

                         Standard orientation:
 ---------------------------------------------------------------------
 Center     Atomic      Atomic             Coordinates (Angstroms)
 Number     Number       Type             X           Y           Z
 ---------------------------------------------------------------------
      1          8           0       -1.494521   -1.210107   -0.898982
      2          6           0       -0.227778   -1.192237   -0.224757
      3          6           0       -0.383537   -0.956487    1.286737
      4          6           0       -0.538207    0.580097    1.455875
      5          6           0       -0.264026    1.210065    0.061673
      6          8           0       -1.444850    1.592473   -0.613983
      7          6           0        0.490572    0.084131   -0.718804
      8          6           0        1.912128    0.048037   -0.408351
      9          6           0        3.081202    0.029751   -0.126935
     10          1           0       -2.040667   -1.889430   -0.490546
     11          1           0        0.332803   -2.104488   -0.459519
     12          1           0       -1.226747   -1.525262    1.692829
     13          1           0        0.516288   -1.313951    1.795246
     14          1           0       -1.539333    0.874050    1.778648
     15          1           0        0.167749    0.958333    2.199416
     16          1           0        0.345231    2.113071    0.135227
     17          1           0       -1.921236    0.773664   -0.810909
     18          1           0        0.341496    0.218226   -1.794690
     19          1           0        4.117266    0.016714    0.105396
 ---------------------------------------------------------------------

 SCF Done:  E(RB3LYP) =  -423.161451574     A.U. after    1 cycles

 The electronic state is 1-A.
 Alpha  occ. eigenvalues --  -19.15865 -19.11912 -10.24487 -10.22988 -10.20657
 Alpha  occ. eigenvalues --  -10.18848 -10.18352 -10.17881 -10.17423  -1.03988
 Alpha  occ. eigenvalues --   -1.00494  -0.83550  -0.75824  -0.70978  -0.69862
 Alpha  occ. eigenvalues --   -0.60034  -0.58656  -0.54052  -0.51203  -0.50941
 Alpha  occ. eigenvalues --   -0.46895  -0.45273  -0.43934  -0.41256  -0.38850
 Alpha  occ. eigenvalues --   -0.37683  -0.36634  -0.35307  -0.33895  -0.31802
 Alpha  occ. eigenvalues --   -0.28307  -0.27686  -0.26708  -0.24534
 Alpha virt. eigenvalues --    0.04777   0.05090   0.06083   0.10004   0.11037
 Alpha virt. eigenvalues --    0.12707   0.14445   0.15257   0.16008   0.16218
 Alpha virt. eigenvalues --    0.16586   0.17279   0.18392   0.21617   0.24223

 Mulliken charges:
               1
     1  O   -0.447358
     2  C    0.112008
     3  C   -0.243482
     4  C   -0.231436
     5  C    0.141430
     6  O   -0.446576
     7  C   -0.236922
     8  C    0.315171
     9  C   -0.447003
    10  H    0.288909
    11  H    0.080936
    12  H    0.089226
    13  H    0.119408
    14  H    0.110698
    15  H    0.110094
    16  H    0.090328
    17  H    0.282552
    18  H    0.116973
    19  H    0.195044
 Sum of Mulliken charges =   0.00000

 Dipole moment (field-independent basis, Debye):
    X=              0.0411    Y=             -2.5593    Z=              1.4929  Tot=              2.9631
 Quadrupole moment (field-independent basis, Debye-Ang):
   XX=            -48.5033   YY=            -53.6986   ZZ=            -54.5960
   XY=              5.6602   XZ=             -0.5023   YZ=              0.6625

  Exact polarizability:  96.014   1.096  67.559   2.823  -0.318  64.624
 Approx polarizability: 145.517  -0.020  96.475  12.239  -1.387  94.737

                      1                      2                      3
                      A                      A                      A
 Frequencies --     73.6744               120.4617               142.3344
 Red. masses --      2.3386                 3.7314                 3.7917
 Frc consts  --      0.0075                 0.0319                 0.0453
 IR Inten    --      0.8970                 0.5732                 1.0977

                      4                      5                      6
                      A                      A                      A
 Frequencies --    215.1685               323.5580               359.6379
 Red. masses --      5.0271                 1.1445                 3.3310
 Frc consts  --      0.1371                 0.0706                 0.2538
 IR Inten    --      0.9123                70.8687                 1.9976

                      7                      8                      9
                      A                      A                      A
 Frequencies --    361.5814               381.7228               404.9769
 Red. masses --      3.8843                 4.1854                 3.4726
 Frc consts  --      0.2992                 0.3593                 0.3356
 IR Inten    --      5.9428                 3.6737                 3.0858

                     10                     11                     12
                      A                      A                      A
 Frequencies --    515.6638               521.5467               571.4491
 Red. masses --      5.0762                 4.1404                 1.1127
 Frc consts  --      0.7953                 0.6636                 0.2141
 IR Inten    --      6.7760                 2.3935               118.5152

                     13                     14                     15
                      A                      A                      A
 Frequencies --    632.2824               640.7273               722.4013
 Red. masses --      1.2439                 1.2450                 2.8152
 Frc consts  --      0.2930                 0.3011                 0.8656
 IR Inten    --     43.7999                39.8110                 5.9618

                     16                     17                     18
                      A                      A                      A
 Frequencies --    759.8991               797.7133               848.6327
 Red. masses --      2.7884                 2.9653                 2.4762
 Frc consts  --      0.9487                 1.1118                 1.0507
 IR Inten    --      1.0820                 3.8128                 2.4356

                     19                     20                     21
                      A                      A                      A
 Frequencies --    885.9361               913.6870               957.1929
 Red. masses --      2.8319                 2.4862                 2.4960
 Frc consts  --      1.3096                 1.2229                 1.3474
 IR Inten    --      4.1789                15.6299                19.4400

                     22                     23                     24
                      A                      A                      A
 Frequencies --   1009.1844              1035.9209              1050.2108
 Red. masses --      3.5062                 2.3113                 1.9887
 Frc consts  --      2.1039                 1.4613                 1.2923
 IR Inten    --     47.2279                15.2795                 0.7241

                     25                     26                     27
                      A                      A                      A
 Frequencies --   1067.8921              1095.4694              1161.1834
 Red. masses --      2.3612                 3.1056                 1.3239
 Frc consts  --      1.5865                 2.1958                 1.0517
 IR Inten    --     45.4743                27.6642                14.3160

                     28                     29                     30
                      A                      A                      A
 Frequencies --   1187.2434              1231.8674              1235.9390
 Red. masses --      1.4238                 1.1693                 1.3848
 Frc consts  --      1.1824                 1.0454                 1.2463
 IR Inten    --     79.9085                11.9026                15.3622

                     31                     32                     33
                      A                      A                      A
 Frequencies --   1270.1783              1282.3657              1317.7047
 Red. masses --      1.2496                 1.2127                 1.3646
 Frc consts  --      1.1878                 1.1750                 1.3960
 IR Inten    --     13.3669                 4.8135                10.5113

                     34                     35                     36
                      A                      A                      A
 Frequencies --   1338.7507              1342.0775              1367.1801
 Red. masses --      1.4197                 1.5187                 1.4085
 Frc consts  --      1.4991                 1.6116                 1.5511
 IR Inten    --      1.5273                 3.9681                11.6650

                     37                     38                     39
                      A                      A                      A
 Frequencies --   1413.7345              1468.8349              1475.4570
 Red. masses --      1.4852                 1.1748                 1.0861
 Frc consts  --      1.7490                 1.4933                 1.3931
 IR Inten    --      3.5416                82.7797                 5.9762

                     40                     41                     42
                      A                      A                      A
 Frequencies --   1494.5754              2233.1628              3035.5731
 Red. masses --      1.0995                 5.9579                 1.0812
 Frc consts  --      1.4471                17.5058                 5.8699
 IR Inten    --     11.8682                 4.9443                28.6681

                     43                     44                     45
                      A                      A                      A
 Frequencies --   3050.2771              3067.6573              3069.7644
 Red. masses --      1.0675                 1.0772                 1.0704
 Frc consts  --      5.8519                 5.9727                 5.9427
 IR Inten    --     46.6660                18.4743                 7.8840

                     46                     47                     48
                      A                      A                      A
 Frequencies --   3090.5435              3095.1204              3119.4730
 Red. masses --      1.1001                 1.0879                 1.1042
 Frc consts  --      6.1908                 6.1406                 6.3309
 IR Inten    --      9.5029                22.1501                30.4160

                     49                     50                     51
                      A                      A                      A
 Frequencies --   3503.6346              3736.2594              3820.0143
 Red. masses --      1.1613                 1.0653                 1.0662
 Frc consts  --      8.3993                 8.7621                 9.1666
 IR Inten    --     72.0434                88.7863                24.4195

 - Thermochemistry -
 -------------------
 Temperature   298.150 Kelvin.  Pressure   1.00000 Atm.
 Atom     1 has atomic number  8 and mass  15.99491

 Molecular mass:   126.06808 amu.
 Principal axes and moments of inertia in atomic units:
                           1         2         3
     Eigenvalues --   801.441831277.956841424.06950
           X            0.99979   0.01900  -0.00726
           Y           -0.01903   0.99981  -0.00473
           Z            0.00717   0.00487   0.99996
 This molecule is an asymmetric top.
 Rotational symmetry number  1.
 Warning -- assumption of classical behavior for rotation
           may cause significant error
 Rotational temperatures (Kelvin)      0.10807     0.06778     0.06082
 Rotational constants (GHZ):           2.25187     1.41221     1.26731
 Zero-point vibrational energy     417601.4 (Joules/Mol)
                                   99.80912 (Kcal/Mol)
 Warning -- explicit consideration of  12 degrees of freedom as
           vibrations may cause significant error
 Vibrational temperatures:    106.00   173.32   204.79   309.58   465.53
          (Kelvin)            517.44   520.23   549.21   582.67   741.92
                              750.39   822.19   909.71   921.86  1039.37
                             1093.32  1147.73  1220.99  1274.66  1314.59
                             1377.19  1451.99  1490.46  1511.02  1536.46
                             1576.13  1670.68  1708.18  1772.38  1778.24
                             1827.50  1845.04  1895.88  1926.16  1930.95
                             1967.06  2034.05  2113.32  2122.85  2150.36
                             3213.02  4367.51  4388.66  4413.67  4416.70
                             4446.60  4453.18  4488.22  5040.94  5375.64
                             5496.14

 Zero-point correction=                           0.159056 (Hartree/Particle)
 Thermal correction to Energy=                    0.167963
 Thermal correction to Enthalpy=                  0.168907
 Thermal correction to Gibbs Free Energy=         0.125593
 Sum of electronic and zero-point Energies=           -423.002396
 Sum of electronic and thermal Energies=              -422.993489
 Sum of electronic and thermal Enthalpies=            -422.992545
 Sum of electronic and thermal Free Energies=         -423.035858

                     E (Thermal)             CV                S
                      KCal/Mol        Cal/Mol-Kelvin    Cal/Mol-Kelvin
 Total                  105.398             34.499             91.161
 Electronic               0.000              0.000              0.000
 Translational            0.889              2.981             40.409
 Rotational               0.889              2.981             28.769
 Vibrational            103.621             28.537             21.984
 Vibration     1          0.599              1.966              4.053
 Vibration     2          0.609              1.932              3.093
 Vibration     3          0.616              1.911              2.772
 Vibration     4          0.645              1.818              1.999
 Vibration     5          0.708              1.628              1.292
 Vibration     6          0.734              1.555              1.124
 Vibration     7          0.736              1.551              1.115
 Vibration     8          0.751              1.509              1.032
 Vibration     9          0.770              1.459              0.945
 Vibration    10          0.871              1.215              0.620
 Vibration    11          0.877              1.202              0.606
 Vibration    12          0.928              1.093              0.501

 Optimization completed.
    -- Stationary point found.
 Normal termination of Gaussian 09 at Tue Jan 28 04:42:30 2020.
