 Gaussian 09, Revision D.01,
 Gaussian 09:  ES64L-G09RevD.01 24-Apr-2013

 -----------------------------
 # b3lyp 6-31G(2df,p) opt Freq
 -----------------------------

 -----
 titel
 -----
 Symbolic Z-matrix:
 Charge =  0 Multiplicity = 1

 SCF Done:  E(RB3LYP) =  -423.153317739     A.U. after   13 cycles
 Optimization completed.
    -- Stationary point found.
 Normal termination of Gaussian 09 at Mon Jan 27 22:01:20 2020.

 ----------------------------------------------------------------------
 #N Geom=AllCheck Guess=TCheck SCRF=Check GenChk RB3LYP/6-31G(2df,p) Fr
 eq
 ----------------------------------------------------------------------

 Structure from the checkpoint file:  "/scratch/puck/g09_3ba406f2-d1b2-402a-8c55-958a12891c92/Gau-26419.chk"
 -----
 titel
 -----
 Charge =  0 Multiplicity = 1

                         Standard orientation:
 ---------------------------------------------------------------------
 Center     Atomic      Atomic             Coordinates (Angstroms)
 Number     Number       Type             X           Y           Z
 ---------------------------------------------------------------------
      1          8           0        2.391374    0.325897   -0.275001
      2          6           0        1.021862    0.177111    0.011510
      3          6           0        0.325295    1.495648    0.302894
      4          6           0       -1.211590    1.395880    0.338612
      5          8           0       -1.742804    0.477426   -0.603710
      6          6           0       -1.128719   -0.793681   -0.558563
      7          6           0       -0.801363   -1.398653    0.856585
      8          6           0        0.682537   -1.197430    0.566935
      9          6           0        0.375043   -0.811948   -0.893394
     10          1           0        2.839462    0.554736    0.546948
     11          1           0        0.677097    1.929239    1.248793
     12          1           0        0.634623    2.178376   -0.496825
     13          1           0       -1.547801    1.132964    1.350924
     14          1           0       -1.656728    2.364048    0.093842
     15          1           0       -1.742755   -1.443179   -1.182873
     16          1           0       -1.237130   -0.924325    1.739741
     17          1           0       -1.063047   -2.460025    0.875587
     18          1           0        1.491004   -1.824956    0.922805
     19          1           0        0.838318   -1.135029   -1.816731
 ---------------------------------------------------------------------

 SCF Done:  E(RB3LYP) =  -423.153317739     A.U. after    1 cycles

 The electronic state is 1-A.
 Alpha  occ. eigenvalues --  -19.14229 -19.13619 -10.24075 -10.23343 -10.22652
 Alpha  occ. eigenvalues --  -10.19073 -10.18396 -10.18363 -10.18118  -1.03558
 Alpha  occ. eigenvalues --   -1.02564  -0.88065  -0.77066  -0.70423  -0.67088
 Alpha  occ. eigenvalues --   -0.61848  -0.56179  -0.53354  -0.52730  -0.48580
 Alpha  occ. eigenvalues --   -0.45759  -0.45235  -0.44097  -0.41357  -0.40119
 Alpha  occ. eigenvalues --   -0.39728  -0.38010  -0.35289  -0.33867  -0.30435
 Alpha  occ. eigenvalues --   -0.29963  -0.26397  -0.24809  -0.24311
 Alpha virt. eigenvalues --    0.07310   0.08868   0.10060   0.10547   0.13155
 Alpha virt. eigenvalues --    0.14202   0.14903   0.15497   0.16631   0.18207
 Alpha virt. eigenvalues --    0.18483   0.19572   0.20721   0.21995   0.22989

 Mulliken charges:
               1
     1  O   -0.475056
     2  C    0.406027
     3  C   -0.301296
     4  C   -0.085837
     5  O   -0.258808
     6  C    0.086931
     7  C   -0.290500
     8  C   -0.130712
     9  C   -0.115620
    10  H    0.280622
    11  H    0.087930
    12  H    0.117404
    13  H    0.095945
    14  H    0.109195
    15  H    0.090353
    16  H    0.098774
    17  H    0.106990
    18  H    0.084824
    19  H    0.092834
 Sum of Mulliken charges =   0.00000

 Dipole moment (field-independent basis, Debye):
    X=              0.5914    Y=             -0.0896    Z=              1.8752  Tot=              1.9683
 Quadrupole moment (field-independent basis, Debye-Ang):
   XX=            -55.6478   YY=            -49.9516   ZZ=            -52.4975
   XY=              1.4802   XZ=              2.4047   YZ=              2.1711

  Exact polarizability:  76.336   1.748  78.176   0.316   0.880  66.989
 Approx polarizability: 108.006   2.500 108.957   2.785   0.181 108.514

                      1                      2                      3
                      A                      A                      A
 Frequencies --    164.8453               245.8830               300.4772
 Red. masses --      2.2409                 2.5382                 1.2350
 Frc consts  --      0.0359                 0.0904                 0.0657
 IR Inten    --      1.3973                 8.4786                68.9350

                      4                      5                      6
                      A                      A                      A
 Frequencies --    332.8141               371.9760               411.2449
 Red. masses --      2.5432                 5.0676                 2.9997
 Frc consts  --      0.1660                 0.4131                 0.2989
 IR Inten    --      4.9168                20.6090                 1.7093

                      7                      8                      9
                      A                      A                      A
 Frequencies --    421.9625               497.9294               525.6794
 Red. masses --      3.1476                 3.3502                 3.7194
 Frc consts  --      0.3302                 0.4894                 0.6056
 IR Inten    --      8.9381                 2.8193                 0.0566

                     10                     11                     12
                      A                      A                      A
 Frequencies --    619.8844               699.2103               725.4502
 Red. masses --      4.2473                 2.3121                 3.9255
 Frc consts  --      0.9616                 0.6660                 1.2172
 IR Inten    --     11.9721                 6.1918                 5.1185

                     13                     14                     15
                      A                      A                      A
 Frequencies --    819.2425               843.7035               881.0609
 Red. masses --      2.2378                 1.4398                 2.1945
 Frc consts  --      0.8849                 0.6038                 1.0037
 IR Inten    --      1.3730                 9.3340                 4.8490

                     16                     17                     18
                      A                      A                      A
 Frequencies --    889.9842               929.0002               959.7453
 Red. masses --      2.3039                 1.9784                 1.9579
 Frc consts  --      1.0752                 1.0060                 1.0626
 IR Inten    --      6.0317                13.7921                 4.0475

                     19                     20                     21
                      A                      A                      A
 Frequencies --    984.9244              1008.7613              1020.0913
 Red. masses --      1.6278                 1.8946                 2.2818
 Frc consts  --      0.9304                 1.1359                 1.3989
 IR Inten    --     21.1499                 0.6429                11.1586

                     22                     23                     24
                      A                      A                      A
 Frequencies --   1030.7634              1073.0330              1094.0828
 Red. masses --      2.2673                 2.4429                 2.3538
 Frc consts  --      1.4193                 1.6572                 1.6601
 IR Inten    --     17.1907                18.9361                19.8990

                     25                     26                     27
                      A                      A                      A
 Frequencies --   1111.3807              1147.9111              1182.7359
 Red. masses --      1.7542                 4.3261                 1.7790
 Frc consts  --      1.2766                 3.3586                 1.4662
 IR Inten    --      4.8173                83.5832                26.8008

                     28                     29                     30
                      A                      A                      A
 Frequencies --   1219.9626              1231.9077              1247.2621
 Red. masses --      1.3339                 2.1618                 1.4000
 Frc consts  --      1.1697                 1.9330                 1.2832
 IR Inten    --     13.7767                27.7115                 9.9927

                     31                     32                     33
                      A                      A                      A
 Frequencies --   1261.2588              1270.9999              1290.2507
 Red. masses --      1.5292                 1.5765                 1.2910
 Frc consts  --      1.4333                 1.5005                 1.2663
 IR Inten    --     23.7025                 8.8180                16.8908

                     34                     35                     36
                      A                      A                      A
 Frequencies --   1325.3649              1365.0286              1376.7668
 Red. masses --      1.5115                 1.5245                 1.3636
 Frc consts  --      1.5643                 1.6737                 1.5229
 IR Inten    --     40.5256                 9.1272                18.6370

                     37                     38                     39
                      A                      A                      A
 Frequencies --   1417.3311              1449.5027              1486.7874
 Red. masses --      1.3201                 2.5611                 1.1305
 Frc consts  --      1.5625                 3.1704                 1.4724
 IR Inten    --      8.8940                11.1418                 6.0376

                     40                     41                     42
                      A                      A                      A
 Frequencies --   1489.6539              1521.0858              3001.9884
 Red. masses --      1.1393                 1.0859                 1.0706
 Frc consts  --      1.4896                 1.4803                 5.6844
 IR Inten    --      0.6969                 2.1679                27.0683

                     43                     44                     45
                      A                      A                      A
 Frequencies --   3017.5488              3057.4376              3063.2826
 Red. masses --      1.0625                 1.0597                 1.0952
 Frc consts  --      5.7000                 5.8366                 6.0550
 IR Inten    --     46.2130                35.7269                33.4219

                     46                     47                     48
                      A                      A                      A
 Frequencies --   3088.1426              3098.5856              3110.5595
 Red. masses --      1.0956                 1.1035                 1.0924
 Frc consts  --      6.1562                 6.2423                 6.2273
 IR Inten    --     48.3450                12.3672                45.0237

                     49                     50                     51
                      A                      A                      A
 Frequencies --   3181.8562              3200.2754              3793.7975
 Red. masses --      1.0898                 1.0958                 1.0661
 Frc consts  --      6.5006                 6.6122                 9.0404
 IR Inten    --     17.6168                 8.1127                17.1343

 - Thermochemistry -
 -------------------
 Temperature   298.150 Kelvin.  Pressure   1.00000 Atm.
 Atom     1 has atomic number  8 and mass  15.99491

 Molecular mass:   126.06808 amu.
 Principal axes and moments of inertia in atomic units:
                           1         2         3
     Eigenvalues --   679.78068 976.302301307.80293
           X            0.99987   0.01454  -0.00749
           Y           -0.01440   0.99973   0.01822
           Z            0.00775  -0.01811   0.99981
 This molecule is an asymmetric top.
 Rotational symmetry number  1.
 Warning -- assumption of classical behavior for rotation
           may cause significant error
 Rotational temperatures (Kelvin)      0.12741     0.08872     0.06623
 Rotational constants (GHZ):           2.65489     1.84855     1.37998
 Zero-point vibrational energy     423839.4 (Joules/Mol)
                                  101.30005 (Kcal/Mol)
 Warning -- explicit consideration of  10 degrees of freedom as
           vibrations may cause significant error
 Vibrational temperatures:    237.18   353.77   432.32   478.84   535.19
          (Kelvin)            591.69   607.11   716.41   756.33   891.87
                             1006.01  1043.76  1178.71  1213.90  1267.65
                             1280.49  1336.62  1380.86  1417.08  1451.38
                             1467.68  1483.04  1543.85  1574.14  1599.03
                             1651.59  1701.69  1755.25  1772.44  1794.53
                             1814.67  1828.68  1856.38  1906.90  1963.97
                             1980.86  2039.22  2085.51  2139.15  2143.28
                             2188.50  4319.19  4341.57  4398.97  4407.37
                             4443.14  4458.17  4475.40  4577.98  4604.48
                             5458.42

 Zero-point correction=                           0.161432 (Hartree/Particle)
 Thermal correction to Energy=                    0.168635
 Thermal correction to Enthalpy=                  0.169579
 Thermal correction to Gibbs Free Energy=         0.130337
 Sum of electronic and zero-point Energies=           -422.991886
 Sum of electronic and thermal Energies=              -422.984683
 Sum of electronic and thermal Enthalpies=            -422.983739
 Sum of electronic and thermal Free Energies=         -423.022981

                     E (Thermal)             CV                S
                      KCal/Mol        Cal/Mol-Kelvin    Cal/Mol-Kelvin
 Total                  105.820             30.076             82.592
 Electronic               0.000              0.000              0.000
 Translational            0.889              2.981             40.409
 Rotational               0.889              2.981             28.253
 Vibrational            104.042             24.114             13.930
 Vibration     1          0.623              1.886              2.493
 Vibration     2          0.660              1.770              1.760
 Vibration     3          0.693              1.673              1.414
 Vibration     4          0.715              1.610              1.246
 Vibration     5          0.744              1.530              1.072
 Vibration     6          0.775              1.446              0.922
 Vibration     7          0.784              1.422              0.885
 Vibration     8          0.853              1.255              0.663
 Vibration     9          0.881              1.193              0.597
 Vibration    10          0.980              0.990              0.417

 Optimization completed.
    -- Stationary point found.
 Normal termination of Gaussian 09 at Mon Jan 27 22:51:07 2020.
