 Gaussian 09, Revision D.01,
 Gaussian 09:  ES64L-G09RevD.01 24-Apr-2013

 -----------------------------
 # b3lyp 6-31G(2df,p) opt Freq
 -----------------------------

 -----
 titel
 -----
 Symbolic Z-matrix:
 Charge =  0 Multiplicity = 1

 SCF Done:  E(RB3LYP) =  -423.169597367     A.U. after   13 cycles
 Optimization completed.
    -- Stationary point found.
 Normal termination of Gaussian 09 at Mon Jan 27 17:57:46 2020.

 ----------------------------------------------------------------------
 #N Geom=AllCheck Guess=TCheck SCRF=Check GenChk RB3LYP/6-31G(2df,p) Fr
 eq
 ----------------------------------------------------------------------

 Structure from the checkpoint file:  "/scratch/puck/g09_1bc065a6-3e8d-457a-a3fb-35f251ac0dd0/Gau-169859.chk"
 -----
 titel
 -----
 Charge =  0 Multiplicity = 1

                         Standard orientation:
 ---------------------------------------------------------------------
 Center     Atomic      Atomic             Coordinates (Angstroms)
 Number     Number       Type             X           Y           Z
 ---------------------------------------------------------------------
      1          8           0       -2.282219   -0.626764   -0.343426
      2          6           0       -1.050490   -0.131932    0.108684
      3          6           0       -1.125279    1.092342    0.979193
      4          6           0       -0.545167    1.184710   -0.421257
      5          6           0        0.935410    1.371016   -0.711580
      6          6           0        1.856304    0.585791    0.233612
      7          6           0        1.394299   -0.837575    0.465868
      8          8           0        0.853708   -1.558941   -0.644931
      9          6           0       -0.033553   -1.175641    0.431308
     10          1           0       -2.128792   -1.042132   -1.200138
     11          1           0       -2.112308    1.514009    1.130528
     12          1           0       -0.467288    1.153701    1.839449
     13          1           0       -1.209708    1.651969   -1.142577
     14          1           0        1.122413    1.038033   -1.738474
     15          1           0        1.199143    2.434757   -0.673098
     16          1           0        2.876932    0.580978   -0.166208
     17          1           0        1.917174    1.076208    1.214216
     18          1           0        2.041218   -1.437840    1.107811
     19          1           0       -0.399845   -2.016305    1.020377
 ---------------------------------------------------------------------

 SCF Done:  E(RB3LYP) =  -423.169597367     A.U. after    1 cycles

 The electronic state is 1-A.
 Alpha  occ. eigenvalues --  -19.14622 -19.14151 -10.23750 -10.23712 -10.23200
 Alpha  occ. eigenvalues --  -10.19077 -10.19039 -10.18737 -10.18546  -1.06628
 Alpha  occ. eigenvalues --   -1.02623  -0.85856  -0.77552  -0.69947  -0.66566
 Alpha  occ. eigenvalues --   -0.60618  -0.58312  -0.54769  -0.52449  -0.48475
 Alpha  occ. eigenvalues --   -0.47627  -0.46153  -0.42706  -0.40736  -0.40064
 Alpha  occ. eigenvalues --   -0.39086  -0.37096  -0.35907  -0.33775  -0.32360
 Alpha  occ. eigenvalues --   -0.29377  -0.29020  -0.25958  -0.24835
 Alpha virt. eigenvalues --    0.08205   0.08822   0.10099   0.10748   0.12062
 Alpha virt. eigenvalues --    0.12738   0.13744   0.15033   0.16386   0.17639
 Alpha virt. eigenvalues --    0.18101   0.19450   0.20335   0.21833   0.22640

 Mulliken charges:
               1
     1  O   -0.473733
     2  C    0.415567
     3  C   -0.334823
     4  C   -0.090347
     5  C   -0.226831
     6  C   -0.263022
     7  C    0.071718
     8  O   -0.270192
     9  C   -0.055379
    10  H    0.286024
    11  H    0.123423
    12  H    0.112639
    13  H    0.090034
    14  H    0.115417
    15  H    0.098647
    16  H    0.108786
    17  H    0.109182
    18  H    0.086993
    19  H    0.095898
 Sum of Mulliken charges =   0.00000

 Dipole moment (field-independent basis, Debye):
    X=              0.9605    Y=              1.0169    Z=              0.4675  Tot=              1.4749
 Quadrupole moment (field-independent basis, Debye-Ang):
   XX=            -54.7415   YY=            -53.8299   ZZ=            -50.7287
   XY=              1.1146   XZ=              3.6002   YZ=             -1.2869

  Exact polarizability:  81.309   1.417  73.372   0.026  -0.709  66.575
 Approx polarizability: 113.241   3.623 105.388  -1.547   4.203 106.897

                      1                      2                      3
                      A                      A                      A
 Frequencies --    158.9498               194.6032               264.7352
 Red. masses --      3.4095                 3.0309                 2.6671
 Frc consts  --      0.0508                 0.0676                 0.1101
 IR Inten    --      2.7374                 4.8032                 1.7886

                      4                      5                      6
                      A                      A                      A
 Frequencies --    327.2566               344.6735               379.3622
 Red. masses --      2.6843                 1.3140                 3.1927
 Frc consts  --      0.1694                 0.0920                 0.2707
 IR Inten    --      4.6754                40.2142                 4.6701

                      7                      8                      9
                      A                      A                      A
 Frequencies --    388.6406               441.2196               535.9971
 Red. masses --      3.3830                 2.7106                 3.4595
 Frc consts  --      0.3011                 0.3109                 0.5856
 IR Inten    --     54.9716                 6.2332                 1.6520

                     10                     11                     12
                      A                      A                      A
 Frequencies --    579.1912               657.5397               716.4309
 Red. masses --      4.0261                 2.4030                 3.1287
 Frc consts  --      0.7958                 0.6121                 0.9462
 IR Inten    --     11.9342                 2.4161                 5.4748

                     13                     14                     15
                      A                      A                      A
 Frequencies --    772.9988               789.4567               873.8877
 Red. masses --      3.0906                 2.3644                 2.1409
 Frc consts  --      1.0880                 0.8682                 0.9633
 IR Inten    --      5.5325                 6.4569                17.2324

                     16                     17                     18
                      A                      A                      A
 Frequencies --    894.7307               922.6962               940.1982
 Red. masses --      2.5652                 2.3100                 1.7246
 Frc consts  --      1.2099                 1.1587                 0.8982
 IR Inten    --     26.2502                 5.0396                 3.4547

                     19                     20                     21
                      A                      A                      A
 Frequencies --    957.3208               960.1058               998.6392
 Red. masses --      2.3723                 2.9709                 1.9400
 Frc consts  --      1.2809                 1.6135                 1.1399
 IR Inten    --     14.0806                 3.7152                11.3464

                     22                     23                     24
                      A                      A                      A
 Frequencies --   1062.1438              1079.3020              1087.4316
 Red. masses --      1.3338                 1.8202                 1.3056
 Frc consts  --      0.8866                 1.2493                 0.9096
 IR Inten    --      3.7739                 3.2648                 3.0282

                     25                     26                     27
                      A                      A                      A
 Frequencies --   1112.7290              1121.7403              1150.5445
 Red. masses --      1.4541                 1.8213                 1.4350
 Frc consts  --      1.0608                 1.3503                 1.1192
 IR Inten    --      1.6484                13.1669                 4.6479

                     28                     29                     30
                      A                      A                      A
 Frequencies --   1226.8724              1236.5903              1263.6144
 Red. masses --      1.3104                 1.9382                 1.5374
 Frc consts  --      1.1621                 1.7463                 1.4464
 IR Inten    --     15.9822                90.5191                12.1093

                     31                     32                     33
                      A                      A                      A
 Frequencies --   1279.0447              1297.8205              1330.9212
 Red. masses --      1.6222                 1.3565                 1.3989
 Frc consts  --      1.5636                 1.3462                 1.4599
 IR Inten    --      1.7277                 6.1960                29.4991

                     34                     35                     36
                      A                      A                      A
 Frequencies --   1368.6308              1381.5549              1401.7269
 Red. masses --      1.5765                 1.5215                 1.6888
 Frc consts  --      1.7399                 1.7110                 1.9551
 IR Inten    --      0.9876                 3.1133                 5.9707

                     37                     38                     39
                      A                      A                      A
 Frequencies --   1420.7549              1471.6889              1485.5020
 Red. masses --      1.4715                 2.0359                 1.3094
 Frc consts  --      1.7500                 2.5980                 1.7024
 IR Inten    --      2.0753                20.7667                 4.0653

                     40                     41                     42
                      A                      A                      A
 Frequencies --   1491.8677              1501.2419              3022.9189
 Red. masses --      1.3199                 1.4633                 1.0628
 Frc consts  --      1.7308                 1.9430                 5.7222
 IR Inten    --      3.1553                16.3498                15.8771

                     43                     44                     45
                      A                      A                      A
 Frequencies --   3031.6993              3058.1141              3072.8560
 Red. masses --      1.0620                 1.0979                 1.1017
 Frc consts  --      5.7508                 6.0498                 6.1289
 IR Inten    --     38.5292                23.6174                31.7594

                     46                     47                     48
                      A                      A                      A
 Frequencies --   3093.7037              3116.8121              3135.7532
 Red. masses --      1.0865                 1.0897                 1.0543
 Frc consts  --      6.1269                 6.2373                 6.1077
 IR Inten    --     35.6857                38.4496                10.4511

                     49                     50                     51
                      A                      A                      A
 Frequencies --   3148.8525              3225.3873              3788.0960
 Red. masses --      1.0885                 1.1165                 1.0660
 Frc consts  --      6.3589                 6.8433                 9.0124
 IR Inten    --     11.2888                 6.2797                20.6900

 - Thermochemistry -
 -------------------
 Temperature   298.150 Kelvin.  Pressure   1.00000 Atm.
 Atom     1 has atomic number  8 and mass  15.99491

 Molecular mass:   126.06808 amu.
 Principal axes and moments of inertia in atomic units:
                           1         2         3
     Eigenvalues --   709.984971002.113601365.30293
           X            0.99956   0.02822   0.00869
           Y           -0.02799   0.99928  -0.02542
           Z           -0.00941   0.02516   0.99964
 This molecule is an asymmetric top.
 Rotational symmetry number  1.
 Warning -- assumption of classical behavior for rotation
           may cause significant error
 Rotational temperatures (Kelvin)      0.12199     0.08643     0.06344
 Rotational constants (GHZ):           2.54194     1.80093     1.32186
 Zero-point vibrational energy     422069.7 (Joules/Mol)
                                  100.87709 (Kcal/Mol)
 Warning -- explicit consideration of  10 degrees of freedom as
           vibrations may cause significant error
 Vibrational temperatures:    228.69   279.99   380.89   470.85   495.91
          (Kelvin)            545.82   559.17   634.82   771.18   833.33
                              946.05  1030.78  1112.17  1135.85  1257.33
                             1287.32  1327.55  1352.73  1377.37  1381.38
                             1436.82  1528.19  1552.87  1564.57  1600.97
                             1613.93  1655.37  1765.19  1779.18  1818.06
                             1840.26  1867.27  1914.90  1969.15  1987.75
                             2016.77  2044.15  2117.43  2137.30  2146.46
                             2159.95  4349.30  4361.93  4399.94  4421.15
                             4451.14  4484.39  4511.64  4530.49  4640.61
                             5450.22

 Zero-point correction=                           0.160758 (Hartree/Particle)
 Thermal correction to Energy=                    0.168316
 Thermal correction to Enthalpy=                  0.169260
 Thermal correction to Gibbs Free Energy=         0.129264
 Sum of electronic and zero-point Energies=           -423.008839
 Sum of electronic and thermal Energies=              -423.001281
 Sum of electronic and thermal Enthalpies=            -423.000337
 Sum of electronic and thermal Free Energies=         -423.040334

                     E (Thermal)             CV                S
                      KCal/Mol        Cal/Mol-Kelvin    Cal/Mol-Kelvin
 Total                  105.620             30.947             84.180
 Electronic               0.000              0.000              0.000
 Translational            0.889              2.981             40.409
 Rotational               0.889              2.981             28.365
 Vibrational            103.843             24.985             15.407
 Vibration     1          0.621              1.893              2.562
 Vibration     2          0.635              1.847              2.184
 Vibration     3          0.671              1.738              1.630
 Vibration     4          0.711              1.621              1.274
 Vibration     5          0.723              1.586              1.190
 Vibration     6          0.749              1.514              1.042
 Vibration     7          0.757              1.494              1.005
 Vibration     8          0.801              1.380              0.823
 Vibration     9          0.891              1.170              0.574
 Vibration    10          0.936              1.076              0.487

 Normal termination of Gaussian 09 at Mon Jan 27 18:43:06 2020.
