 Gaussian 09, Revision D.01,
 Gaussian 09:  ES64L-G09RevD.01 24-Apr-2013

 -----------------------------
 # b3lyp 6-31G(2df,p) opt Freq
 -----------------------------

 -----
 titel
 -----
 Symbolic Z-matrix:
 Charge =  0 Multiplicity = 1

 SCF Done:  E(RB3LYP) =  -423.188171070     A.U. after   13 cycles
 SCF Done:  E(RB3LYP) =  -423.188171252     A.U. after    6 cycles
 Optimization completed.
    -- Stationary point found.
 Normal termination of Gaussian 09 at Mon Jan 27 11:17:12 2020.

 ----------------------------------------------------------------------
 #N Geom=AllCheck Guess=TCheck SCRF=Check GenChk RB3LYP/6-31G(2df,p) Fr
 eq
 ----------------------------------------------------------------------

 Structure from the checkpoint file:  "/scratch/puck/g09_d5590f23-64f3-43ea-8916-352ff445cbe3/Gau-49388.chk"
 -----
 titel
 -----
 Charge =  0 Multiplicity = 1

                         Standard orientation:
 ---------------------------------------------------------------------
 Center     Atomic      Atomic             Coordinates (Angstroms)
 Number     Number       Type             X           Y           Z
 ---------------------------------------------------------------------
      1          6           0        0.576170   -2.183421    0.000000
      2          6           0        0.120904   -1.365019    1.243260
      3          6           0        0.120904    0.057182    0.732484
      4          6           0       -0.676351    1.258991    1.173432
      5          8           0       -0.826177    2.062961    0.000000
      6          6           0       -0.676351    1.258991   -1.173432
      7          6           0        0.120904    0.057182   -0.732484
      8          6           0        0.120904   -1.365019   -1.243260
      9          8           0        1.305390    0.417624    0.000000
     10          1           0        1.665150   -2.260384    0.000000
     11          1           0        0.174642   -3.199703    0.000000
     12          1           0       -0.897804   -1.633960    1.548599
     13          1           0        0.775060   -1.523987    2.105701
     14          1           0       -1.652116    0.932023    1.568826
     15          1           0       -0.183135    1.876964    1.930345
     16          1           0       -1.652116    0.932023   -1.568826
     17          1           0       -0.183135    1.876964   -1.930345
     18          1           0       -0.897804   -1.633960   -1.548599
     19          1           0        0.775060   -1.523987   -2.105701
 ---------------------------------------------------------------------

 SCF Done:  E(RB3LYP) =  -423.188171252     A.U. after    1 cycles

 The electronic state is 1-A'.
 Alpha  occ. eigenvalues --  -19.14725 -19.13630 -10.23287 -10.23254 -10.23166
 Alpha  occ. eigenvalues --  -10.23165 -10.19422 -10.19422 -10.18989  -1.08263
 Alpha  occ. eigenvalues --   -1.01727  -0.81266  -0.75864  -0.70987  -0.69897
 Alpha  occ. eigenvalues --   -0.61195  -0.58077  -0.54799  -0.51285  -0.47876
 Alpha  occ. eigenvalues --   -0.46814  -0.46309  -0.42786  -0.41693  -0.40008
 Alpha  occ. eigenvalues --   -0.38911  -0.37225  -0.35650  -0.34830  -0.34488
 Alpha  occ. eigenvalues --   -0.32732  -0.27986  -0.26181  -0.24982
 Alpha virt. eigenvalues --    0.08440   0.09154   0.10694   0.11853   0.12414
 Alpha virt. eigenvalues --    0.12522   0.14093   0.15187   0.16341   0.16354
 Alpha virt. eigenvalues --    0.18666   0.18933   0.19317   0.19369   0.21706

 Mulliken charges:
               1
     1  C   -0.207718
     2  C   -0.317037
     3  C    0.336995
     4  C   -0.160557
     5  O   -0.262493
     6  C   -0.160557
     7  C    0.336995
     8  C   -0.317037
     9  O   -0.328435
    10  H    0.125182
    11  H    0.100850
    12  H    0.105520
    13  H    0.112271
    14  H    0.092305
    15  H    0.116810
    16  H    0.092305
    17  H    0.116810
    18  H    0.105520
    19  H    0.112271
 Sum of Mulliken charges =   0.00000

 Dipole moment (field-independent basis, Debye):
    X=             -1.2403    Y=             -2.3094    Z=              0.0000  Tot=              2.6214
 Quadrupole moment (field-independent basis, Debye-Ang):
   XX=            -55.3798   YY=            -56.2901   ZZ=            -48.5985
   XY=              0.5221   XZ=              0.0000   YZ=              0.0000

  Exact polarizability:  64.243  -4.162  77.002   0.000   0.000  79.765
 Approx polarizability: 103.803   1.332 102.883   0.000   0.000 116.886

                      1                      2                      3
                     A'                     A"                     A'
 Frequencies --    177.8796               210.0793               211.7126
 Red. masses --      2.9968                 1.9812                 1.9498
 Frc consts  --      0.0559                 0.0515                 0.0515
 IR Inten    --      2.2677                 0.0483                 2.6577

                      4                      5                      6
                     A'                     A"                     A'
 Frequencies --    295.9975               331.0134               457.2280
 Red. masses --      2.0988                 2.9792                 4.8418
 Frc consts  --      0.1083                 0.1923                 0.5964
 IR Inten    --      1.9168                 0.0136                10.7043

                      7                      8                      9
                     A"                     A'                     A"
 Frequencies --    483.9260               540.4000               635.0406
 Red. masses --      2.7113                 4.2264                 5.0418
 Frc consts  --      0.3741                 0.7272                 1.1980
 IR Inten    --      0.1943                 0.9992                 0.3850

                     10                     11                     12
                     A'                     A"                     A'
 Frequencies --    688.8973               697.1785               817.5576
 Red. masses --      1.8713                 5.1420                 3.4566
 Frc consts  --      0.5233                 1.4726                 1.3612
 IR Inten    --      6.6947                 5.5809                20.9516

                     13                     14                     15
                     A'                     A"                     A'
 Frequencies --    833.6195               882.2330               888.2840
 Red. masses --      2.6257                 1.4608                 3.4180
 Frc consts  --      1.0750                 0.6699                 1.5890
 IR Inten    --      9.4337                 0.7910                18.9899

                     16                     17                     18
                     A'                     A'                     A"
 Frequencies --    920.0383               931.3712               988.1638
 Red. masses --      2.6799                 4.6009                 2.3319
 Frc consts  --      1.3365                 2.3515                 1.3416
 IR Inten    --     12.9398                19.9717                 4.1848

                     19                     20                     21
                     A'                     A"                     A"
 Frequencies --    994.4393              1021.7730              1038.3035
 Red. masses --      1.6660                 4.2636                 1.8673
 Frc consts  --      0.9707                 2.6227                 1.1860
 IR Inten    --      0.9907                13.1766                 1.3092

                     22                     23                     24
                     A"                     A'                     A"
 Frequencies --   1070.4525              1119.3514              1164.5735
 Red. masses --      3.8563                 2.2430                 1.4312
 Frc consts  --      2.6035                 1.6558                 1.1436
 IR Inten    --     62.5828                 2.6191                 0.6827

                     25                     26                     27
                     A"                     A'                     A"
 Frequencies --   1189.8259              1209.7398              1222.8470
 Red. masses --      1.5062                 1.5788                 1.1759
 Frc consts  --      1.2563                 1.3613                 1.0360
 IR Inten    --      4.0478                 2.8620                 5.4840

                     28                     29                     30
                     A'                     A"                     A'
 Frequencies --   1234.4964              1240.5859              1268.5878
 Red. masses --      1.5005                 1.5639                 1.2522
 Frc consts  --      1.3473                 1.4181                 1.1873
 IR Inten    --      4.2436                 3.0026                 1.3967

                     31                     32                     33
                     A"                     A'                     A"
 Frequencies --   1325.0452              1332.9762              1341.8896
 Red. masses --      1.2820                 2.0088                 1.2768
 Frc consts  --      1.3262                 2.1030                 1.3546
 IR Inten    --      1.2049                12.2360                 0.0282

                     34                     35                     36
                     A"                     A'                     A'
 Frequencies --   1382.0225              1389.3776              1448.6147
 Red. masses --      2.0419                 2.1943                 2.7277
 Frc consts  --      2.2978                 2.4957                 3.3725
 IR Inten    --      0.4386                 5.1124                 9.3281

                     37                     38                     39
                     A"                     A'                     A'
 Frequencies --   1482.4529              1484.4637              1499.2302
 Red. masses --      1.1055                 1.1567                 1.1197
 Frc consts  --      1.4315                 1.5017                 1.4829
 IR Inten    --      1.1890                 0.9276                 1.4519

                     40                     41                     42
                     A"                     A'                     A"
 Frequencies --   1501.3846              1512.6913              2970.3092
 Red. masses --      1.0877                 1.1003                 1.0692
 Frc consts  --      1.4447                 1.4835                 5.5579
 IR Inten    --      0.1399                 1.6090                65.3818

                     43                     44                     45
                     A'                     A"                     A'
 Frequencies --   2977.0627              3036.9905              3038.4709
 Red. masses --      1.0714                 1.0624                 1.0638
 Frc consts  --      5.5947                 5.7735                 5.7865
 IR Inten    --     54.7361                44.3498                20.0672

                     46                     47                     48
                     A"                     A'                     A'
 Frequencies --   3072.5071              3073.1199              3075.4998
 Red. masses --      1.0910                 1.0674                 1.0926
 Frc consts  --      6.0683                 5.9395                 6.0890
 IR Inten    --     25.4831                13.1955                37.3118

                     49                     50                     51
                     A"                     A'                     A'
 Frequencies --   3086.3092              3086.7711              3122.8524
 Red. masses --      1.0999                 1.0940                 1.1054
 Frc consts  --      6.1726                 6.1416                 6.3516
 IR Inten    --     19.0968                31.3728                26.7919

 - Thermochemistry -
 -------------------
 Temperature   298.150 Kelvin.  Pressure   1.00000 Atm.
 Atom     1 has atomic number  6 and mass  12.00000

 Molecular mass:   126.06808 amu.
 Principal axes and moments of inertia in atomic units:
                           1         2         3
     Eigenvalues --   546.212731107.134401341.29257
           X           -0.30961   0.00000   0.95086
           Y            0.95086   0.00000   0.30961
           Z            0.00000   1.00000   0.00000
 This molecule is an asymmetric top.
 Rotational symmetry number  1.
 Warning -- assumption of classical behavior for rotation
           may cause significant error
 Rotational temperatures (Kelvin)      0.15857     0.07823     0.06457
 Rotational constants (GHZ):           3.30410     1.63010     1.34552
 Zero-point vibrational energy     424708.0 (Joules/Mol)
                                  101.50765 (Kcal/Mol)
 Warning -- explicit consideration of   8 degrees of freedom as
           vibrations may cause significant error
 Vibrational temperatures:    255.93   302.26   304.61   425.87   476.25
          (Kelvin)            657.85   696.26   777.51   913.68   991.17
                             1003.08  1176.28  1199.39  1269.33  1278.04
                             1323.73  1340.03  1421.75  1430.77  1470.10
                             1493.89  1540.14  1610.50  1675.56  1711.89
                             1740.54  1759.40  1776.16  1784.92  1825.21
                             1906.44  1917.85  1930.68  1988.42  1999.00
                             2084.23  2132.92  2135.81  2157.06  2160.15
                             2176.42  4273.61  4283.32  4369.55  4371.68
                             4420.65  4421.53  4424.95  4440.50  4441.17
                             4493.08

 Zero-point correction=                           0.161763 (Hartree/Particle)
 Thermal correction to Energy=                    0.168884
 Thermal correction to Enthalpy=                  0.169828
 Thermal correction to Gibbs Free Energy=         0.130564
 Sum of electronic and zero-point Energies=           -423.026409
 Sum of electronic and thermal Energies=              -423.019288
 Sum of electronic and thermal Enthalpies=            -423.018344
 Sum of electronic and thermal Free Energies=         -423.057607

                     E (Thermal)             CV                S
                      KCal/Mol        Cal/Mol-Kelvin    Cal/Mol-Kelvin
 Total                  105.976             28.885             82.637
 Electronic               0.000              0.000              0.000
 Translational            0.889              2.981             40.409
 Rotational               0.889              2.981             28.186
 Vibrational            104.199             22.923             14.043
 Vibration     1          0.628              1.870              2.351
 Vibration     2          0.642              1.825              2.043
 Vibration     3          0.643              1.823              2.029
 Vibration     4          0.690              1.681              1.439
 Vibration     5          0.713              1.614              1.255
 Vibration     6          0.815              1.345              0.774
 Vibration     7          0.840              1.286              0.700
 Vibration     8          0.895              1.161              0.564

 Optimization completed.
    -- Stationary point found.
 Normal termination of Gaussian 09 at Mon Jan 27 11:54:14 2020.
