 Gaussian 09, Revision D.01,
 Gaussian 09:  ES64L-G09RevD.01 24-Apr-2013

 -----------------------------
 # b3lyp 6-31G(2df,p) opt Freq
 -----------------------------

 -----
 titel
 -----
 Symbolic Z-matrix:
 Charge =  0 Multiplicity = 1

 SCF Done:  E(RB3LYP) =  -423.122439573     A.U. after   14 cycles
 Optimization completed.
    -- Stationary point found.
 Normal termination of Gaussian 09 at Mon Jan 27 15:46:30 2020.

 ----------------------------------------------------------------------
 #N Geom=AllCheck Guess=TCheck SCRF=Check GenChk RB3LYP/6-31G(2df,p) Fr
 eq
 ----------------------------------------------------------------------

 Structure from the checkpoint file:  "/scratch/puck/g09_adc8f7b6-9edf-4b29-90a2-f02de502a539/Gau-82031.chk"
 -----
 titel
 -----
 Charge =  0 Multiplicity = 1

                         Standard orientation:
 ---------------------------------------------------------------------
 Center     Atomic      Atomic             Coordinates (Angstroms)
 Number     Number       Type             X           Y           Z
 ---------------------------------------------------------------------
      1          8           0        0.608310    1.710553   -0.208608
      2          6           0        0.637296    0.345275    0.188908
      3          6           0       -0.696176   -0.280885   -0.207988
      4          6           0       -1.892873    0.421026    0.464584
      5          6           0       -3.171464   -0.172491    0.095410
      6          6           0       -4.212462   -0.681524   -0.224431
      7          6           0        1.810587   -0.350615   -0.463997
      8          6           0        2.686985   -1.263926    0.276342
      9          8           0        3.093344    0.081136    0.011561
     10          1           0        1.474985    2.080995   -0.005937
     11          1           0        0.766629    0.271989    1.282470
     12          1           0       -0.809956   -0.223431   -1.296117
     13          1           0       -0.689447   -1.342080    0.062734
     14          1           0       -1.772503    0.381793    1.555513
     15          1           0       -1.876869    1.481619    0.193071
     16          1           0       -5.139447   -1.119379   -0.499994
     17          1           0        1.749578   -0.444730   -1.549235
     18          1           0        2.471341   -1.488626    1.320090
     19          1           0        3.241099   -2.032818   -0.259195
 ---------------------------------------------------------------------

 SCF Done:  E(RB3LYP) =  -423.122439574     A.U. after    1 cycles

 The electronic state is 1-A.
 Alpha  occ. eigenvalues --  -19.16092 -19.14175 -10.24432 -10.24310 -10.24228
 Alpha  occ. eigenvalues --  -10.20551 -10.19356 -10.17725 -10.16588  -1.08077
 Alpha  occ. eigenvalues --   -1.02368  -0.80967  -0.75232  -0.70483  -0.66879
 Alpha  occ. eigenvalues --   -0.63293  -0.59202  -0.54080  -0.52247  -0.49654
 Alpha  occ. eigenvalues --   -0.48840  -0.45460  -0.44165  -0.42980  -0.40346
 Alpha  occ. eigenvalues --   -0.38734  -0.37215  -0.36216  -0.34322  -0.31788
 Alpha  occ. eigenvalues --   -0.28881  -0.27036  -0.25998  -0.25725
 Alpha virt. eigenvalues --    0.05577   0.06222   0.07762   0.09450   0.09826
 Alpha virt. eigenvalues --    0.11176   0.11819   0.12942   0.13602   0.15507
 Alpha virt. eigenvalues --    0.15945   0.16398   0.17990   0.20512   0.21924

 Mulliken charges:
               1
     1  O   -0.441598
     2  C    0.101232
     3  C   -0.184851
     4  C   -0.362231
     5  C    0.291756
     6  C   -0.436613
     7  C    0.057326
     8  C   -0.180802
     9  O   -0.249516
    10  H    0.296430
    11  H    0.066636
    12  H    0.118824
    13  H    0.110832
    14  H    0.125159
    15  H    0.155322
    16  H    0.192080
    17  H    0.101527
    18  H    0.116956
    19  H    0.121534
 Sum of Mulliken charges =   0.00000

 Dipole moment (field-independent basis, Debye):
    X=              0.6403    Y=             -1.5053    Z=              0.4701  Tot=              1.7020
 Quadrupole moment (field-independent basis, Debye-Ang):
   XX=            -56.7800   YY=            -51.5752   ZZ=            -52.0587
   XY=             -0.8007   XZ=              1.1002   YZ=              1.1863

  Exact polarizability: 103.609   3.893  68.943   6.132   0.737  61.597
 Approx polarizability: 134.275  14.434 105.815  13.840   1.251  94.739

                      1                      2                      3
                      A                      A                      A
 Frequencies --     49.3364                80.8192                93.1708
 Red. masses --      4.0839                 3.3653                 3.3762
 Frc consts  --      0.0059                 0.0130                 0.0173
 IR Inten    --      1.9125                 1.2658                 0.5925

                      4                      5                      6
                      A                      A                      A
 Frequencies --    108.0409               199.6753               240.3288
 Red. masses --      2.7806                 4.5112                 4.2118
 Frc consts  --      0.0191                 0.1060                 0.1433
 IR Inten    --      2.2662                 3.4510                 1.1050

                      7                      8                      9
                      A                      A                      A
 Frequencies --    310.3868               346.5088               365.5272
 Red. masses --      3.3666                 3.4686                 3.4228
 Frc consts  --      0.1911                 0.2454                 0.2694
 IR Inten    --      6.9027                 3.0979                 0.5195

                     10                     11                     12
                      A                      A                      A
 Frequencies --    409.5479               467.8058               522.5194
 Red. masses --      1.1244                 4.1149                 3.6366
 Frc consts  --      0.1111                 0.5306                 0.5850
 IR Inten    --     97.4009                 4.6525                14.9380

                     13                     14                     15
                      A                      A                      A
 Frequencies --    577.9744               614.7062               636.9019
 Red. masses --      3.3008                 1.2002                 1.2212
 Frc consts  --      0.6497                 0.2672                 0.2919
 IR Inten    --     21.3798                44.8016                43.2672

                     16                     17                     18
                      A                      A                      A
 Frequencies --    771.1488               839.7446               862.4527
 Red. masses --      1.3304                 2.9404                 2.6275
 Frc consts  --      0.4661                 1.2216                 1.1515
 IR Inten    --      1.3123                 6.8600                13.9006

                     19                     20                     21
                      A                      A                      A
 Frequencies --    928.9756               953.0725               966.4167
 Red. masses --      2.6436                 2.8564                 2.7744
 Frc consts  --      1.3442                 1.5287                 1.5267
 IR Inten    --     38.5725                 6.0935                 9.8605

                     22                     23                     24
                      A                      A                      A
 Frequencies --   1027.4642              1057.0127              1090.9852
 Red. masses --      3.0315                 2.0864                 1.3932
 Frc consts  --      1.8856                 1.3734                 0.9770
 IR Inten    --      6.2744                26.9293                11.9832

                     25                     26                     27
                      A                      A                      A
 Frequencies --   1111.6407              1138.5249              1159.8916
 Red. masses --      2.4511                 2.0110                 1.4056
 Frc consts  --      1.7846                 1.5358                 1.1141
 IR Inten    --     42.4395                 2.6853                 4.2301

                     28                     29                     30
                      A                      A                      A
 Frequencies --   1172.4962              1185.6294              1267.1187
 Red. masses --      1.3402                 1.3901                 1.3075
 Frc consts  --      1.0855                 1.1513                 1.2369
 IR Inten    --      0.9646                 2.8813                 3.3852

                     31                     32                     33
                      A                      A                      A
 Frequencies --   1279.9289              1292.0798              1324.7788
 Red. masses --      1.2924                 1.3042                 1.1349
 Frc consts  --      1.2474                 1.2828                 1.1735
 IR Inten    --     37.5601                13.7774                 5.5552

                     34                     35                     36
                      A                      A                      A
 Frequencies --   1332.8226              1376.7483              1423.2446
 Red. masses --      1.4282                 1.4053                 1.5116
 Frc consts  --      1.4948                 1.5694                 1.8041
 IR Inten    --     20.7510                 1.9498                19.5681

                     37                     38                     39
                      A                      A                      A
 Frequencies --   1454.1304              1472.1999              1486.0095
 Red. masses --      1.7504                 1.0839                 1.0994
 Frc consts  --      2.1807                 1.3841                 1.4304
 IR Inten    --     13.4794                 1.4669                 3.4175

                     40                     41                     42
                      A                      A                      A
 Frequencies --   1528.3191              2239.1968              2956.0810
 Red. masses --      1.3530                 5.9389                 1.0822
 Frc consts  --      1.8620                17.5444                 5.5719
 IR Inten    --      2.8655                 4.8155                37.8052

                     43                     44                     45
                      A                      A                      A
 Frequencies --   3021.5007              3045.9866              3073.1357
 Red. masses --      1.0662                 1.0597                 1.0927
 Frc consts  --      5.7348                 5.7928                 6.0801
 IR Inten    --     12.3351                18.0208                 0.6631

                     46                     47                     48
                      A                      A                      A
 Frequencies --   3086.4310              3095.5450              3106.7518
 Red. masses --      1.0503                 1.1027                 1.0892
 Frc consts  --      5.8949                 6.2256                 6.1941
 IR Inten    --     22.8249                20.7429                23.1736

                     49                     50                     51
                      A                      A                      A
 Frequencies --   3174.0486              3508.1804              3802.6987
 Red. masses --      1.1193                 1.1619                 1.0659
 Frc consts  --      6.6440                 8.4252                 9.0817
 IR Inten    --     24.4148                68.2797                28.5920

 - Thermochemistry -
 -------------------
 Temperature   298.150 Kelvin.  Pressure   1.00000 Atm.
 Atom     1 has atomic number  8 and mass  15.99491

 Molecular mass:   126.06808 amu.
 Principal axes and moments of inertia in atomic units:
                           1         2         3
     Eigenvalues --   404.257082671.644142941.99361
           X            0.99998  -0.00682   0.00149
           Y            0.00680   0.99985   0.01584
           Z           -0.00160  -0.01583   0.99987
 This molecule is an asymmetric top.
 Rotational symmetry number  1.
 Rotational temperatures (Kelvin)      0.21425     0.03242     0.02944
 Rotational constants (GHZ):           4.46434     0.67552     0.61344
 Zero-point vibrational energy     410532.3 (Joules/Mol)
                                   98.11958 (Kcal/Mol)
 Warning -- explicit consideration of  14 degrees of freedom as
           vibrations may cause significant error
 Vibrational temperatures:     70.98   116.28   134.05   155.45   287.29
          (Kelvin)            345.78   446.58   498.55   525.91   589.25
                              673.07   751.79   831.58   884.42   916.36
                             1109.51  1208.20  1240.88  1336.59  1371.26
                             1390.46  1478.29  1520.80  1569.68  1599.40
                             1638.08  1668.82  1686.96  1705.85  1823.10
                             1841.53  1859.01  1906.06  1917.63  1980.83
                             2047.73  2092.17  2118.16  2138.03  2198.91
                             3221.70  4253.14  4347.26  4382.49  4421.55
                             4440.68  4453.79  4469.92  4566.74  5047.48
                             5471.23

 Zero-point correction=                           0.156363 (Hartree/Particle)
 Thermal correction to Energy=                    0.166306
 Thermal correction to Enthalpy=                  0.167250
 Thermal correction to Gibbs Free Energy=         0.120528
 Sum of electronic and zero-point Energies=           -422.966076
 Sum of electronic and thermal Energies=              -422.956133
 Sum of electronic and thermal Enthalpies=            -422.955189
 Sum of electronic and thermal Free Energies=         -423.001911

                     E (Thermal)             CV                S
                      KCal/Mol        Cal/Mol-Kelvin    Cal/Mol-Kelvin
 Total                  104.359             35.775             98.335
 Electronic               0.000              0.000              0.000
 Translational            0.889              2.981             40.409
 Rotational               0.889              2.981             29.542
 Vibrational            102.581             29.813             28.384
 Vibration     1          0.595              1.978              4.844
 Vibration     2          0.600              1.962              3.871
 Vibration     3          0.602              1.954              3.592
 Vibration     4          0.606              1.943              3.304
 Vibration     5          0.638              1.840              2.136
 Vibration     6          0.657              1.779              1.800
 Vibration     7          0.699              1.654              1.360
 Vibration     8          0.725              1.582              1.182
 Vibration     9          0.739              1.543              1.099
 Vibration    10          0.774              1.449              0.928
 Vibration    11          0.825              1.321              0.744
 Vibration    12          0.877              1.200              0.604
 Vibration    13          0.934              1.079              0.489
 Vibration    14          0.974              1.001              0.425

 Optimization completed.
    -- Stationary point found.
 Normal termination of Gaussian 09 at Mon Jan 27 16:21:12 2020.
