 Gaussian 09, Revision D.01,
 Gaussian 09:  ES64L-G09RevD.01 24-Apr-2013

 -----------------------------
 # b3lyp 6-31G(2df,p) opt Freq
 -----------------------------

 -----
 titel
 -----
 Symbolic Z-matrix:
 Charge =  0 Multiplicity = 1

 SCF Done:  E(RB3LYP) =  -423.140288105     A.U. after   13 cycles
 Optimization completed.
    -- Stationary point found.
 Normal termination of Gaussian 09 at Tue Jan 28 02:56:51 2020.

 ----------------------------------------------------------------------
 #N Geom=AllCheck Guess=TCheck SCRF=Check GenChk RB3LYP/6-31G(2df,p) Fr
 eq
 ----------------------------------------------------------------------

 Structure from the checkpoint file:  "/scratch/puck/g09_809722ef-b048-4b94-91aa-6f3d54c2bb21/Gau-89750.chk"
 -----
 titel
 -----
 Charge =  0 Multiplicity = 1

                         Standard orientation:
 ---------------------------------------------------------------------
 Center     Atomic      Atomic             Coordinates (Angstroms)
 Number     Number       Type             X           Y           Z
 ---------------------------------------------------------------------
      1          6           0       -2.622647    0.148664    0.120575
      2          6           0       -1.240787   -0.318629    0.533900
      3          8           0       -0.807040   -1.466021   -0.243820
      4          6           0        0.320778   -0.770067   -0.793900
      5          6           0        1.576642   -0.923476    0.048973
      6          6           0        2.419937    0.310727   -0.076363
      7          6           0        1.228449    0.340809    0.851048
      8          6           0       -0.042757    0.528464    0.042750
      9          8           0       -0.394179    1.792785   -0.422344
     10          1           0       -2.644533    0.422508   -0.936736
     11          1           0       -3.344451   -0.655899    0.291126
     12          1           0       -2.925136    1.020006    0.709255
     13          1           0       -1.217170   -0.544587    1.608542
     14          1           0        0.383512   -0.859703   -1.881873
     15          1           0        1.959099   -1.861998    0.429227
     16          1           0        3.386261    0.272347    0.415080
     17          1           0        2.425148    0.881836   -1.003363
     18          1           0        1.334363    0.521814    1.915144
     19          1           0        0.414971    2.290612   -0.578984
 ---------------------------------------------------------------------

 SCF Done:  E(RB3LYP) =  -423.140288105     A.U. after    1 cycles

 The electronic state is 1-A.
 Alpha  occ. eigenvalues --  -19.14876 -19.12691 -10.24138 -10.22802 -10.22742
 Alpha  occ. eigenvalues --  -10.19966 -10.19832 -10.19704 -10.16768  -1.04792
 Alpha  occ. eigenvalues --   -1.02116  -0.88928  -0.75080  -0.70883  -0.65709
 Alpha  occ. eigenvalues --   -0.59978  -0.58623  -0.55043  -0.51790  -0.49329
 Alpha  occ. eigenvalues --   -0.48388  -0.45010  -0.42013  -0.41266  -0.38412
 Alpha  occ. eigenvalues --   -0.37940  -0.37376  -0.36134  -0.34644  -0.32521
 Alpha  occ. eigenvalues --   -0.29067  -0.27798  -0.25382  -0.23967
 Alpha virt. eigenvalues --    0.06608   0.08989   0.10674   0.11141   0.12332
 Alpha virt. eigenvalues --    0.14135   0.15007   0.15319   0.15852   0.16822
 Alpha virt. eigenvalues --    0.17373   0.18643   0.19016   0.22031   0.22699

 Mulliken charges:
               1
     1  C   -0.397754
     2  C    0.104605
     3  O   -0.310919
     4  C    0.028504
     5  C   -0.051432
     6  C   -0.319758
     7  C   -0.134634
     8  C    0.338861
     9  O   -0.476292
    10  H    0.128420
    11  H    0.119727
    12  H    0.120093
    13  H    0.073136
    14  H    0.077897
    15  H    0.099818
    16  H    0.121101
    17  H    0.103952
    18  H    0.090219
    19  H    0.284458
 Sum of Mulliken charges =   0.00000

 Dipole moment (field-independent basis, Debye):
    X=              1.9497    Y=              1.2509    Z=              0.5462  Tot=              2.3800
 Quadrupole moment (field-independent basis, Debye-Ang):
   XX=            -50.6612   YY=            -55.5002   ZZ=            -51.2665
   XY=              0.9002   XZ=             -1.0531   YZ=             -1.0036

  Exact polarizability:  89.327   0.205  68.963  -1.773   0.337  66.166
 Approx polarizability: 114.359   0.526 109.974  -3.825   2.962 102.880

                      1                      2                      3
                      A                      A                      A
 Frequencies --    114.5236               208.0474               229.2042
 Red. masses --      3.3895                 1.0746                 3.1768
 Frc consts  --      0.0262                 0.0274                 0.0983
 IR Inten    --      0.6944                 0.4074                 1.6973

                      4                      5                      6
                      A                      A                      A
 Frequencies --    238.8384               278.4361               310.1684
 Red. masses --      3.0584                 2.2203                 1.2676
 Frc consts  --      0.1028                 0.1014                 0.0718
 IR Inten    --      3.6012                15.5311                52.1265

                      7                      8                      9
                      A                      A                      A
 Frequencies --    372.2200               436.0455               484.5894
 Red. masses --      3.5225                 3.6032                 3.0419
 Frc consts  --      0.2875                 0.4036                 0.4209
 IR Inten    --     14.7965                 1.6739                 7.4218

                     10                     11                     12
                      A                      A                      A
 Frequencies --    505.5522               663.1646               692.8587
 Red. masses --      3.6835                 4.0065                 3.1333
 Frc consts  --      0.5547                 1.0381                 0.8862
 IR Inten    --      1.3005                 2.4917                 5.3756

                     13                     14                     15
                      A                      A                      A
 Frequencies --    786.0731               810.8373               858.5362
 Red. masses --      1.9322                 2.0021                 2.5388
 Frc consts  --      0.7034                 0.7755                 1.1025
 IR Inten    --     10.4794                 3.0036                12.0485

                     16                     17                     18
                      A                      A                      A
 Frequencies --    889.0539               923.9885               937.6431
 Red. masses --      2.3603                 1.9997                 2.0662
 Frc consts  --      1.0992                 1.0059                 1.0703
 IR Inten    --      1.7361                22.4159                11.6591

                     19                     20                     21
                      A                      A                      A
 Frequencies --    977.9763              1018.5769              1032.3579
 Red. masses --      1.9116                 1.6596                 1.9085
 Frc consts  --      1.0772                 1.0145                 1.1984
 IR Inten    --      5.8676                34.5236                14.1104

                     22                     23                     24
                      A                      A                      A
 Frequencies --   1050.9534              1056.0523              1072.0556
 Red. masses --      2.8595                 1.7138                 1.4412
 Frc consts  --      1.8608                 1.1261                 0.9759
 IR Inten    --     72.1762                 6.2208                 8.4071

                     25                     26                     27
                      A                      A                      A
 Frequencies --   1089.2431              1095.0546              1115.7580
 Red. masses --      1.8255                 1.4703                 2.4874
 Frc consts  --      1.2761                 1.0388                 1.8244
 IR Inten    --     16.3744                 3.0148                 9.3687

                     28                     29                     30
                      A                      A                      A
 Frequencies --   1138.3425              1153.7235              1186.7532
 Red. masses --      2.4050                 2.0056                 1.8901
 Frc consts  --      1.8361                 1.5729                 1.5684
 IR Inten    --     62.6442                 8.2729                12.5288

                     31                     32                     33
                      A                      A                      A
 Frequencies --   1247.0693              1282.7634              1294.5422
 Red. masses --      1.7090                 1.5027                 2.0493
 Frc consts  --      1.5659                 1.4569                 2.0234
 IR Inten    --     59.5738                14.4846                35.7269

                     34                     35                     36
                      A                      A                      A
 Frequencies --   1323.8810              1355.5273              1363.5746
 Red. masses --      1.5968                 2.4520                 1.4484
 Frc consts  --      1.6489                 2.6545                 1.5867
 IR Inten    --     25.3105                52.0952                 4.8929

                     37                     38                     39
                      A                      A                      A
 Frequencies --   1403.7506              1407.4670              1484.3554
 Red. masses --      1.3921                 1.6884                 1.0612
 Frc consts  --      1.6162                 1.9707                 1.3775
 IR Inten    --     10.6642                 7.8667                 3.2890

                     40                     41                     42
                      A                      A                      A
 Frequencies --   1487.4984              1488.9168              3010.9549
 Red. masses --      1.0776                 1.1777                 1.0846
 Frc consts  --      1.4048                 1.5382                 5.7933
 IR Inten    --      4.2073                 1.1233                46.7451

                     43                     44                     45
                      A                      A                      A
 Frequencies --   3044.2915              3072.5181              3100.0881
 Red. masses --      1.0352                 1.0883                 1.0603
 Frc consts  --      5.6525                 6.0535                 6.0040
 IR Inten    --     16.9468                45.4095                22.8215

                     46                     47                     48
                      A                      A                      A
 Frequencies --   3115.6055              3131.1757              3169.5556
 Red. masses --      1.1015                 1.1018                 1.0916
 Frc consts  --      6.2999                 6.3646                 6.4612
 IR Inten    --     16.3217                20.2297                15.9096

                     49                     50                     51
                      A                      A                      A
 Frequencies --   3195.0830              3205.6347              3814.4653
 Red. masses --      1.1011                 1.1016                 1.0659
 Frc consts  --      6.6226                 6.6698                 9.1378
 IR Inten    --      3.7099                16.2684                19.5822

 - Thermochemistry -
 -------------------
 Temperature   298.150 Kelvin.  Pressure   1.00000 Atm.
 Atom     1 has atomic number  6 and mass  12.00000

 Molecular mass:   126.06808 amu.
 Principal axes and moments of inertia in atomic units:
                           1         2         3
     Eigenvalues --   571.185681150.275181458.54195
           X            0.99998  -0.00323  -0.00446
           Y            0.00318   0.99993  -0.01158
           Z            0.00449   0.01157   0.99992
 This molecule is an asymmetric top.
 Rotational symmetry number  1.
 Warning -- assumption of classical behavior for rotation
           may cause significant error
 Rotational temperatures (Kelvin)      0.15164     0.07530     0.05938
 Rotational constants (GHZ):           3.15964     1.56896     1.23736
 Zero-point vibrational energy     417050.2 (Joules/Mol)
                                   99.67739 (Kcal/Mol)
 Warning -- explicit consideration of  10 degrees of freedom as
           vibrations may cause significant error
 Vibrational temperatures:    164.77   299.33   329.77   343.63   400.61
          (Kelvin)            446.26   535.54   627.37   697.22   727.38
                              954.14   996.87  1130.98  1166.61  1235.24
                             1279.15  1329.41  1349.06  1407.09  1465.50
                             1485.33  1512.09  1519.42  1542.45  1567.18
                             1575.54  1605.32  1637.82  1659.95  1707.47
                             1794.25  1845.61  1862.56  1904.77  1950.30
                             1961.88  2019.68  2025.03  2135.65  2140.18
                             2142.22  4332.09  4380.05  4420.66  4460.33
                             4482.66  4505.06  4560.28  4597.01  4612.19
                             5488.16

 Zero-point correction=                           0.158846 (Hartree/Particle)
 Thermal correction to Energy=                    0.166918
 Thermal correction to Enthalpy=                  0.167863
 Thermal correction to Gibbs Free Energy=         0.126733
 Sum of electronic and zero-point Energies=           -422.981442
 Sum of electronic and thermal Energies=              -422.973370
 Sum of electronic and thermal Enthalpies=            -422.972426
 Sum of electronic and thermal Free Energies=         -423.013555

                     E (Thermal)             CV                S
                      KCal/Mol        Cal/Mol-Kelvin    Cal/Mol-Kelvin
 Total                  104.743             32.058             86.564
 Electronic               0.000              0.000              0.000
 Translational            0.889              2.981             40.409
 Rotational               0.889              2.981             28.351
 Vibrational            102.965             26.097             17.804
 Vibration     1          0.607              1.937              3.191
 Vibration     2          0.641              1.828              2.061
 Vibration     3          0.652              1.796              1.885
 Vibration     4          0.657              1.781              1.812
 Vibration     5          0.679              1.713              1.543
 Vibration     6          0.699              1.654              1.361
 Vibration     7          0.744              1.529              1.071
 Vibration     8          0.796              1.392              0.839
 Vibration     9          0.841              1.284              0.698
 Vibration    10          0.861              1.238              0.644

 Optimization completed.
    -- Stationary point found.
 Normal termination of Gaussian 09 at Tue Jan 28 03:52:48 2020.
