 Gaussian 09, Revision D.01,
 Gaussian 09:  ES64L-G09RevD.01 24-Apr-2013

 -----------------------------
 # b3lyp 6-31G(2df,p) opt Freq
 -----------------------------

 -----
 titel
 -----
 Symbolic Z-matrix:
 Charge =  0 Multiplicity = 1

 SCF Done:  E(RB3LYP) =  -423.129854951     A.U. after   14 cycles
 SCF Done:  E(RB3LYP) =  -423.129854781     A.U. after    7 cycles
 SCF Done:  E(RB3LYP) =  -423.129854836     A.U. after    7 cycles
 SCF Done:  E(RB3LYP) =  -423.129854937     A.U. after    6 cycles
 Optimization completed.
    -- Stationary point found.
 Normal termination of Gaussian 09 at Mon Jan 27 15:56:41 2020.

 ----------------------------------------------------------------------
 #N Geom=AllCheck Guess=TCheck SCRF=Check GenChk RB3LYP/6-31G(2df,p) Fr
 eq
 ----------------------------------------------------------------------

 Structure from the checkpoint file:  "/scratch/puck/g09_ea88620e-167b-4388-aa2d-320c6ca850e1/Gau-45684.chk"
 -----
 titel
 -----
 Charge =  0 Multiplicity = 1

                         Standard orientation:
 ---------------------------------------------------------------------
 Center     Atomic      Atomic             Coordinates (Angstroms)
 Number     Number       Type             X           Y           Z
 ---------------------------------------------------------------------
      1          6           0       -3.526151    0.303474    0.035198
      2          6           0       -2.147540    0.012436   -0.494957
      3          8           0       -1.553263   -1.234397   -0.097709
      4          6           0       -0.958959   -0.018599    0.363689
      5          6           0        0.429267    0.265500   -0.161567
      6          8           0        0.743349    1.592310    0.211455
      7          6           0        1.445034   -0.747500    0.421020
      8          6           0        2.804347   -0.417583    0.013564
      9          6           0        3.898312   -0.067544   -0.344926
     10          1           0       -4.278389   -0.280981   -0.504593
     11          1           0       -3.594888    0.053075    1.097161
     12          1           0       -3.767547    1.364099   -0.091634
     13          1           0       -1.988668    0.250098   -1.548340
     14          1           0       -1.083720    0.179697    1.430105
     15          1           0        0.425184    0.147846   -1.256496
     16          1           0        1.679660    1.727972    0.019300
     17          1           0        1.373244   -0.733538    1.515942
     18          1           0        1.169642   -1.754178    0.087963
     19          1           0        4.878934    0.201497   -0.651513
 ---------------------------------------------------------------------

 SCF Done:  E(RB3LYP) =  -423.129854937     A.U. after    1 cycles

 The electronic state is 1-A.
 Alpha  occ. eigenvalues --  -19.15054 -19.13900 -10.24406 -10.23945 -10.23495
 Alpha  occ. eigenvalues --  -10.21098 -10.19214 -10.18443 -10.18179  -1.07136
 Alpha  occ. eigenvalues --   -1.02450  -0.80058  -0.74658  -0.73970  -0.68547
 Alpha  occ. eigenvalues --   -0.60940  -0.59022  -0.53469  -0.51900  -0.49648
 Alpha  occ. eigenvalues --   -0.47480  -0.45163  -0.45094  -0.42101  -0.40602
 Alpha  occ. eigenvalues --   -0.39800  -0.37626  -0.36722  -0.34042  -0.30115
 Alpha  occ. eigenvalues --   -0.28827  -0.27451  -0.26848  -0.26318
 Alpha virt. eigenvalues --    0.04069   0.04895   0.08993   0.10327   0.11032
 Alpha virt. eigenvalues --    0.11273   0.11980   0.12660   0.14556   0.15665
 Alpha virt. eigenvalues --    0.16475   0.17001   0.17955   0.19304   0.22512

 Mulliken charges:
               1
     1  C   -0.421179
     2  C    0.079530
     3  O   -0.268472
     4  C    0.053889
     5  C    0.099234
     6  O   -0.441396
     7  C   -0.363048
     8  C    0.254089
     9  C   -0.421173
    10  H    0.129806
    11  H    0.128413
    12  H    0.128064
    13  H    0.092401
    14  H    0.094473
    15  H    0.079188
    16  H    0.290068
    17  H    0.134560
    18  H    0.150868
    19  H    0.200683
 Sum of Mulliken charges =   0.00000

 Dipole moment (field-independent basis, Debye):
    X=              0.2893    Y=              0.6706    Z=             -0.3434  Tot=              0.8071
 Quadrupole moment (field-independent basis, Debye-Ang):
   XX=            -44.9374   YY=            -57.8126   ZZ=            -51.8984
   XY=             -0.3023   XZ=             -1.0545   YZ=             -1.5651

  Exact polarizability: 112.613   3.076  62.338  -3.273  -1.528  61.911
 Approx polarizability: 142.472  10.561 100.047  -7.560  -2.569  95.802

                      1                      2                      3
                      A                      A                      A
 Frequencies --     55.1405                77.8253                96.8958
 Red. masses --      4.4149                 3.0403                 3.8789
 Frc consts  --      0.0079                 0.0108                 0.0215
 IR Inten    --      1.9672                 1.4573                 1.2684

                      4                      5                      6
                      A                      A                      A
 Frequencies --    164.9036               198.7590               224.1832
 Red. masses --      4.5377                 1.1176                 2.7949
 Frc consts  --      0.0727                 0.0260                 0.0828
 IR Inten    --      2.5140                 0.2166                 1.8499

                      7                      8                      9
                      A                      A                      A
 Frequencies --    286.8447               353.0175               371.3631
 Red. masses --      3.9485                 2.8012                 3.0002
 Frc consts  --      0.1914                 0.2057                 0.2438
 IR Inten    --      2.4195                 5.2800                18.9287

                     10                     11                     12
                      A                      A                      A
 Frequencies --    389.3162               415.7711               460.1661
 Red. masses --      1.2639                 3.3029                 2.8691
 Frc consts  --      0.1129                 0.3364                 0.3580
 IR Inten    --     73.4577                14.4581                 5.4006

                     13                     14                     15
                      A                      A                      A
 Frequencies --    515.0271               592.4006               626.9538
 Red. masses --      5.5598                 3.5465                 1.2138
 Frc consts  --      0.8689                 0.7333                 0.2811
 IR Inten    --      4.0608                 8.7129                46.7032

                     16                     17                     18
                      A                      A                      A
 Frequencies --    659.0169               797.0223               869.8862
 Red. masses --      1.2212                 3.9204                 2.4336
 Frc consts  --      0.3125                 1.4673                 1.0850
 IR Inten    --     42.2539                12.3688                 4.5797

                     19                     20                     21
                      A                      A                      A
 Frequencies --    873.5818               960.1142               978.8710
 Red. masses --      2.6747                 3.1381                 2.2663
 Frc consts  --      1.2026                 1.7044                 1.2794
 IR Inten    --     15.8256                10.8425                39.5263

                     22                     23                     24
                      A                      A                      A
 Frequencies --   1006.6326              1036.6945              1088.1409
 Red. masses --      2.1323                 1.7038                 2.0383
 Frc consts  --      1.2731                 1.0789                 1.4220
 IR Inten    --      7.7188                12.5085                25.0009

                     25                     26                     27
                      A                      A                      A
 Frequencies --   1104.9737              1116.5546              1165.0850
 Red. masses --      2.2857                 3.4267                 1.5056
 Frc consts  --      1.6443                 2.5170                 1.2041
 IR Inten    --      7.3263                44.8834                 6.8780

                     28                     29                     30
                      A                      A                      A
 Frequencies --   1176.1097              1225.5202              1267.0402
 Red. masses --      1.6866                 1.2559                 1.1659
 Frc consts  --      1.3746                 1.1114                 1.1028
 IR Inten    --      5.9143                11.5856                18.8738

                     31                     32                     33
                      A                      A                      A
 Frequencies --   1278.7110              1296.0686              1352.3553
 Red. masses --      1.3927                 1.3187                 1.2247
 Frc consts  --      1.3417                 1.3051                 1.3196
 IR Inten    --      1.4647                31.5292                28.9515

                     34                     35                     36
                      A                      A                      A
 Frequencies --   1370.4485              1409.3402              1435.2957
 Red. masses --      1.1902                 1.2631                 1.6376
 Frc consts  --      1.3170                 1.4782                 1.9876
 IR Inten    --      9.6826                 6.3035                 8.7824

                     37                     38                     39
                      A                      A                      A
 Frequencies --   1463.1881              1479.6005              1491.8643
 Red. masses --      1.0999                 1.1239                 1.0879
 Frc consts  --      1.3874                 1.4496                 1.4266
 IR Inten    --      2.8610                 6.1080                10.3303

                     40                     41                     42
                      A                      A                      A
 Frequencies --   1520.2080              2230.4107              2981.5827
 Red. masses --      2.3716                 5.9435                 1.0830
 Frc consts  --      3.2293                17.4206                 5.6725
 IR Inten    --     20.7974                 3.4489                33.5072

                     43                     44                     45
                      A                      A                      A
 Frequencies --   3031.3780              3038.0505              3079.7779
 Red. masses --      1.0607                 1.0355                 1.0996
 Frc consts  --      5.7431                 5.6309                 6.1449
 IR Inten    --     11.9968                19.8840                 4.6166

                     46                     47                     48
                      A                      A                      A
 Frequencies --   3091.2863              3097.9626              3103.8677
 Red. masses --      1.0889                 1.0867                 1.1008
 Frc consts  --      6.1307                 6.1446                 6.2485
 IR Inten    --      4.5319                31.4837                17.9261

                     49                     50                     51
                      A                      A                      A
 Frequencies --   3125.0735              3504.1607              3773.1545
 Red. masses --      1.1008                 1.1614                 1.0657
 Frc consts  --      6.3339                 8.4025                 8.9387
 IR Inten    --     31.2570                74.5060                42.2193

 - Thermochemistry -
 -------------------
 Temperature   298.150 Kelvin.  Pressure   1.00000 Atm.
 Atom     1 has atomic number  6 and mass  12.00000

 Molecular mass:   126.06808 amu.
 Principal axes and moments of inertia in atomic units:
                           1         2         3
     Eigenvalues --   371.542212384.092072616.09787
           X            0.99997  -0.00703  -0.00207
           Y            0.00698   0.99968  -0.02434
           Z            0.00224   0.02432   0.99970
 This molecule is an asymmetric top.
 Rotational symmetry number  1.
 Rotational temperatures (Kelvin)      0.23312     0.03633     0.03311
 Rotational constants (GHZ):           4.85743     0.75699     0.68986
 Zero-point vibrational energy     408570.2 (Joules/Mol)
                                   97.65061 (Kcal/Mol)
 Warning -- explicit consideration of  14 degrees of freedom as
           vibrations may cause significant error
 Vibrational temperatures:     79.33   111.97   139.41   237.26   285.97
          (Kelvin)            322.55   412.70   507.91   534.31   560.14
                              598.20   662.08   741.01   852.33   902.05
                              948.18  1146.74  1251.57  1256.89  1381.39
                             1408.38  1448.32  1491.57  1565.59  1589.81
                             1606.47  1676.30  1692.16  1763.25  1822.99
                             1839.78  1864.75  1945.74  1971.77  2027.72
                             2065.07  2105.20  2128.81  2146.46  2187.24
                             3209.06  4289.83  4361.47  4371.07  4431.11
                             4447.67  4457.27  4465.77  4496.28  5041.70
                             5428.72

 Zero-point correction=                           0.155616 (Hartree/Particle)
 Thermal correction to Energy=                    0.165717
 Thermal correction to Enthalpy=                  0.166661
 Thermal correction to Gibbs Free Energy=         0.120116
 Sum of electronic and zero-point Energies=           -422.974239
 Sum of electronic and thermal Energies=              -422.964138
 Sum of electronic and thermal Enthalpies=            -422.963194
 Sum of electronic and thermal Free Energies=         -423.009739

                     E (Thermal)             CV                S
                      KCal/Mol        Cal/Mol-Kelvin    Cal/Mol-Kelvin
 Total                  103.989             36.568             97.962
 Electronic               0.000              0.000              0.000
 Translational            0.889              2.981             40.409
 Rotational               0.889              2.981             29.229
 Vibrational            102.211             30.606             28.325
 Vibration     1          0.596              1.976              4.624
 Vibration     2          0.599              1.964              3.945
 Vibration     3          0.603              1.951              3.516
 Vibration     4          0.623              1.886              2.493
 Vibration     5          0.637              1.842              2.145
 Vibration     6          0.649              1.804              1.925
 Vibration     7          0.684              1.698              1.493
 Vibration     8          0.729              1.569              1.153
 Vibration     9          0.743              1.531              1.074
 Vibration    10          0.757              1.493              1.003
 Vibration    11          0.779              1.436              0.906
 Vibration    12          0.818              1.338              0.766
 Vibration    13          0.870              1.217              0.622
 Vibration    14          0.950              1.048              0.463

 Optimization completed.
    -- Stationary point found.
 Normal termination of Gaussian 09 at Mon Jan 27 16:31:55 2020.
