 Gaussian 09, Revision D.01,
 Gaussian 09:  ES64L-G09RevD.01 24-Apr-2013

 -----------------------------
 # b3lyp 6-31G(2df,p) opt Freq
 -----------------------------

 -----
 titel
 -----
 Symbolic Z-matrix:
 Charge =  0 Multiplicity = 1

 SCF Done:  E(RB3LYP) =  -423.168705441     A.U. after   14 cycles
 Optimization completed.
    -- Stationary point found.
 Normal termination of Gaussian 09 at Mon Jan 27 12:57:46 2020.

 ----------------------------------------------------------------------
 #N Geom=AllCheck Guess=TCheck SCRF=Check GenChk RB3LYP/6-31G(2df,p) Fr
 eq
 ----------------------------------------------------------------------

 Structure from the checkpoint file:  "/scratch/puck/g09_b9718765-d4cd-4517-a0c9-346f34d835dd/Gau-25260.chk"
 -----
 titel
 -----
 Charge =  0 Multiplicity = 1

                         Standard orientation:
 ---------------------------------------------------------------------
 Center     Atomic      Atomic             Coordinates (Angstroms)
 Number     Number       Type             X           Y           Z
 ---------------------------------------------------------------------
      1          8           0       -3.403327   -0.758280   -0.287402
      2          6           0       -2.317733   -0.288053   -0.109296
      3          6           0       -1.769754    1.150438   -0.118399
      4          6           0       -0.448842    0.597454    0.506297
      5          6           0        0.856562    0.989258   -0.182966
      6          6           0        2.059622    0.278762    0.390369
      7          6           0        3.197382   -0.138337   -0.437279
      8          8           0        2.233658   -1.092407    0.013991
      9          6           0       -0.955927   -0.867616    0.296085
     10          1           0       -1.643872    1.531113   -1.138892
     11          1           0       -2.342760    1.884428    0.454207
     12          1           0       -0.392720    0.840034    1.572181
     13          1           0        0.790552    0.763324   -1.254919
     14          1           0        1.009767    2.073230   -0.092668
     15          1           0        2.250611    0.465626    1.449421
     16          1           0        3.184983    0.067460   -1.507063
     17          1           0        4.188255   -0.229582    0.005149
     18          1           0       -0.454479   -1.384168   -0.528626
     19          1           0       -0.960846   -1.537410    1.159641
 ---------------------------------------------------------------------

 SCF Done:  E(RB3LYP) =  -423.168705441     A.U. after    1 cycles

 The electronic state is 1-A.
 Alpha  occ. eigenvalues --  -19.15589 -19.13226 -10.26659 -10.24523 -10.23934
 Alpha  occ. eigenvalues --  -10.20428 -10.19816 -10.19155 -10.18670  -1.07518
 Alpha  occ. eigenvalues --   -1.04117  -0.85186  -0.75954  -0.68127  -0.67065
 Alpha  occ. eigenvalues --   -0.62020  -0.58516  -0.52594  -0.50842  -0.49344
 Alpha  occ. eigenvalues --   -0.47555  -0.45293  -0.43550  -0.41991  -0.40199
 Alpha  occ. eigenvalues --   -0.38896  -0.38497  -0.37418  -0.35242  -0.33286
 Alpha  occ. eigenvalues --   -0.32715  -0.30219  -0.27281  -0.23881
 Alpha virt. eigenvalues --   -0.01621   0.08350   0.09742   0.10353   0.10410
 Alpha virt. eigenvalues --    0.10947   0.13446   0.14015   0.14824   0.15539
 Alpha virt. eigenvalues --    0.17228   0.17850   0.18219   0.18827   0.20081

 Mulliken charges:
               1
     1  O   -0.289761
     2  C    0.404155
     3  C   -0.374496
     4  C    0.025723
     5  C   -0.247928
     6  C    0.101878
     7  C   -0.182466
     8  O   -0.230868
     9  C   -0.348200
    10  H    0.127043
    11  H    0.127992
    12  H    0.081098
    13  H    0.100831
    14  H    0.106036
    15  H    0.092423
    16  H    0.114411
    17  H    0.116977
    18  H    0.144590
    19  H    0.130562
 Sum of Mulliken charges =   0.00000

 Dipole moment (field-independent basis, Debye):
    X=              3.0688    Y=              2.7044    Z=              0.3663  Tot=              4.1068
 Quadrupole moment (field-independent basis, Debye-Ang):
   XX=            -62.4269   YY=            -55.0672   ZZ=            -50.1998
   XY=             -1.2719   XZ=             -2.3799   YZ=             -0.1646

  Exact polarizability:  95.125  -1.089  70.131  -0.904  -0.279  63.988
 Approx polarizability: 122.191   2.642 108.471  -0.774   1.237  99.361

                      1                      2                      3
                      A                      A                      A
 Frequencies --     39.8950                72.9936                83.0347
 Red. masses --      4.0858                 3.2994                 4.3190
 Frc consts  --      0.0038                 0.0104                 0.0175
 IR Inten    --      2.1358                 2.2667                 2.4595

                      4                      5                      6
                      A                      A                      A
 Frequencies --    158.4987               277.5189               331.2548
 Red. masses --      2.6504                 4.6144                 3.1631
 Frc consts  --      0.0392                 0.2094                 0.2045
 IR Inten    --      0.9999                 5.4148                 0.4586

                      7                      8                      9
                      A                      A                      A
 Frequencies --    403.8526               421.1289               452.1570
 Red. masses --      2.6216                 1.6699                 2.9200
 Frc consts  --      0.2519                 0.1745                 0.3517
 IR Inten    --      1.6182                 0.2413                 1.0886

                     10                     11                     12
                      A                      A                      A
 Frequencies --    493.8698               648.7722               672.7879
 Red. masses --      2.5012                 1.5527                 3.2409
 Frc consts  --      0.3594                 0.3850                 0.8643
 IR Inten    --      6.0865                 1.0567                 2.3729

                     13                     14                     15
                      A                      A                      A
 Frequencies --    767.9688               792.7603               857.6021
 Red. masses --      2.4297                 3.7798                 1.6537
 Frc consts  --      0.8443                 1.3996                 0.7166
 IR Inten    --      1.9557                11.8285                12.8395

                     16                     17                     18
                      A                      A                      A
 Frequencies --    884.9673               917.1732               942.6139
 Red. masses --      2.6505                 3.6220                 1.4409
 Frc consts  --      1.2230                 1.7951                 0.7543
 IR Inten    --     12.4046                 1.6719                 0.7736

                     19                     20                     21
                      A                      A                      A
 Frequencies --    959.1028              1008.2724              1025.7626
 Red. masses --      2.2731                 2.1058                 1.8444
 Frc consts  --      1.2320                 1.2613                 1.1434
 IR Inten    --     23.1804                10.4676                 5.0621

                     22                     23                     24
                      A                      A                      A
 Frequencies --   1082.5992              1091.4620              1117.5127
 Red. masses --      1.9938                 1.6862                 1.9870
 Frc consts  --      1.3768                 1.1835                 1.4620
 IR Inten    --     10.1516                21.9771                23.7020

                     25                     26                     27
                      A                      A                      A
 Frequencies --   1129.5345              1158.8155              1169.0577
 Red. masses --      2.2482                 1.3838                 1.3377
 Frc consts  --      1.6900                 1.0948                 1.0772
 IR Inten    --      4.3239                 1.1190                 2.9143

                     28                     29                     30
                      A                      A                      A
 Frequencies --   1192.9389              1199.7612              1237.6984
 Red. masses --      1.4025                 1.6457                 1.5527
 Frc consts  --      1.1760                 1.3957                 1.4014
 IR Inten    --      4.2163                 0.4710                 1.7915

                     31                     32                     33
                      A                      A                      A
 Frequencies --   1253.3970              1276.8958              1294.6948
 Red. masses --      1.3227                 1.3419                 1.6191
 Frc consts  --      1.2243                 1.2890                 1.5990
 IR Inten    --      3.9469                13.0837                 4.1198

                     34                     35                     36
                      A                      A                      A
 Frequencies --   1325.8344              1380.5547              1427.3272
 Red. masses --      1.3897                 1.4392                 1.0864
 Frc consts  --      1.4393                 1.6162                 1.3040
 IR Inten    --      6.3394                 6.1336                16.7917

                     37                     38                     39
                      A                      A                      A
 Frequencies --   1444.6192              1450.6071              1470.8350
 Red. masses --      1.2390                 1.4829                 1.1056
 Frc consts  --      1.5235                 1.8385                 1.4092
 IR Inten    --      1.7092                 9.4068                 4.7427

                     40                     41                     42
                      A                      A                      A
 Frequencies --   1530.4789              1893.9931              3015.2952
 Red. masses --      1.3612                12.6670                 1.0594
 Frc consts  --      1.8785                26.7720                 5.6749
 IR Inten    --      3.3554               299.1507                18.7886

                     43                     44                     45
                      A                      A                      A
 Frequencies --   3045.5396              3047.7627              3062.8100
 Red. masses --      1.0629                 1.0899                 1.0838
 Frc consts  --      5.8085                 5.9647                 5.9900
 IR Inten    --      7.7495                 5.8361                 7.1360

                     46                     47                     48
                      A                      A                      A
 Frequencies --   3063.8509              3082.4193              3090.9489
 Red. masses --      1.0699                 1.0510                 1.0891
 Frc consts  --      5.9176                 5.8836                 6.1306
 IR Inten    --     13.8719                32.6153                37.2965

                     49                     50                     51
                      A                      A                      A
 Frequencies --   3108.5469              3116.5503              3169.2032
 Red. masses --      1.1021                 1.1040                 1.1194
 Frc consts  --      6.2745                 6.3177                 6.6241
 IR Inten    --     14.4725                 9.6694                27.7730

 - Thermochemistry -
 -------------------
 Temperature   298.150 Kelvin.  Pressure   1.00000 Atm.
 Atom     1 has atomic number  8 and mass  15.99491

 Molecular mass:   126.06808 amu.
 Principal axes and moments of inertia in atomic units:
                           1         2         3
     Eigenvalues --   390.312182245.380362479.31560
           X            0.99998  -0.00385  -0.00549
           Y            0.00375   0.99983  -0.01788
           Z            0.00556   0.01786   0.99983
 This molecule is an asymmetric top.
 Rotational symmetry number  1.
 Rotational temperatures (Kelvin)      0.22191     0.03857     0.03493
 Rotational constants (GHZ):           4.62384     0.80376     0.72792
 Zero-point vibrational energy     413570.2 (Joules/Mol)
                                   98.84564 (Kcal/Mol)
 Warning -- explicit consideration of  10 degrees of freedom as
           vibrations may cause significant error
 Vibrational temperatures:     57.40   105.02   119.47   228.04   399.29
          (Kelvin)            476.60   581.05   605.91   650.55   710.57
                              933.44   967.99  1104.93  1140.60  1233.90
                             1273.27  1319.61  1356.21  1379.93  1450.68
                             1475.84  1557.62  1570.37  1607.85  1625.15
                             1667.27  1682.01  1716.37  1726.19  1780.77
                             1803.36  1837.17  1862.77  1907.58  1986.31
                             2053.60  2078.48  2087.10  2116.20  2202.02
                             2725.03  4338.33  4381.85  4385.05  4406.69
                             4408.19  4434.91  4447.18  4472.50  4484.02
                             4559.77

 Zero-point correction=                           0.157521 (Hartree/Particle)
 Thermal correction to Energy=                    0.166338
 Thermal correction to Enthalpy=                  0.167282
 Thermal correction to Gibbs Free Energy=         0.122586
 Sum of electronic and zero-point Energies=           -423.011185
 Sum of electronic and thermal Energies=              -423.002368
 Sum of electronic and thermal Enthalpies=            -423.001424
 Sum of electronic and thermal Free Energies=         -423.046120

                     E (Thermal)             CV                S
                      KCal/Mol        Cal/Mol-Kelvin    Cal/Mol-Kelvin
 Total                  104.378             32.259             94.071
 Electronic               0.000              0.000              0.000
 Translational            0.889              2.981             40.409
 Rotational               0.889              2.981             29.165
 Vibrational            102.601             26.298             24.498
 Vibration     1          0.594              1.981              5.264
 Vibration     2          0.599              1.967              4.071
 Vibration     3          0.600              1.961              3.818
 Vibration     4          0.621              1.893              2.568
 Vibration     5          0.678              1.715              1.549
 Vibration     6          0.714              1.613              1.254
 Vibration     7          0.769              1.462              0.949
 Vibration     8          0.784              1.424              0.888
 Vibration     9          0.811              1.356              0.789
 Vibration    10          0.850              1.264              0.674

 Optimization completed on the basis of negligible forces.
    -- Stationary point found.
 Normal termination of Gaussian 09 at Mon Jan 27 13:35:46 2020.
