 Gaussian 09, Revision D.01,
 Gaussian 09:  ES64L-G09RevD.01 24-Apr-2013

 -----------------------------
 # b3lyp 6-31G(2df,p) opt Freq
 -----------------------------

 -----
 titel
 -----
 Symbolic Z-matrix:
 Charge =  0 Multiplicity = 1

 SCF Done:  E(RB3LYP) =  -423.194954595     A.U. after   14 cycles
 Optimization completed.
    -- Stationary point found.
 Normal termination of Gaussian 09 at Mon Jan 27 13:37:57 2020.

 ----------------------------------------------------------------------
 #N Geom=AllCheck Guess=TCheck SCRF=Check GenChk RB3LYP/6-31G(2df,p) Fr
 eq
 ----------------------------------------------------------------------

 Structure from the checkpoint file:  "/scratch/puck/g09_db5197fb-9cc3-4b47-9500-484a0d1f4972/Gau-28519.chk"
 -----
 titel
 -----
 Charge =  0 Multiplicity = 1

                         Standard orientation:
 ---------------------------------------------------------------------
 Center     Atomic      Atomic             Coordinates (Angstroms)
 Number     Number       Type             X           Y           Z
 ---------------------------------------------------------------------
      1          8           0        3.152305    0.347439   -0.015984
      2          6           0        2.277655   -0.477925   -0.002607
      3          6           0        0.804846   -0.177699   -0.269332
      4          6           0        0.399936    1.195978    0.275289
      5          6           0       -0.978702    1.666337   -0.116316
      6          6           0       -2.104567    0.951165   -0.120470
      7          6           0       -2.268226   -0.499290    0.269667
      8          6           0       -1.208129   -1.466747   -0.263246
      9          8           0        0.086620   -1.263966    0.276314
     10          1           0        2.473504   -1.554624    0.194366
     11          1           0        0.687548   -0.170010   -1.369885
     12          1           0        0.488280    1.163306    1.370826
     13          1           0        1.156480    1.908193   -0.066850
     14          1           0       -1.049868    2.716914   -0.389334
     15          1           0       -3.022380    1.465216   -0.397480
     16          1           0       -2.287962   -0.587858    1.365688
     17          1           0       -3.243407   -0.859393   -0.079187
     18          1           0       -1.481929   -2.489970    0.014075
     19          1           0       -1.168549   -1.410463   -1.362762
 ---------------------------------------------------------------------

 SCF Done:  E(RB3LYP) =  -423.194954595     A.U. after    1 cycles

 The electronic state is 1-A.
 Alpha  occ. eigenvalues --  -19.15089 -19.14586 -10.27165 -10.24494 -10.23713
 Alpha  occ. eigenvalues --  -10.19212 -10.19056 -10.18690 -10.18601  -1.05613
 Alpha  occ. eigenvalues --   -1.04231  -0.80945  -0.79467  -0.70419  -0.68721
 Alpha  occ. eigenvalues --   -0.61463  -0.57243  -0.52996  -0.50403  -0.49748
 Alpha  occ. eigenvalues --   -0.48622  -0.44766  -0.43856  -0.42574  -0.41273
 Alpha  occ. eigenvalues --   -0.39500  -0.38559  -0.37456  -0.36026  -0.33682
 Alpha  occ. eigenvalues --   -0.31977  -0.27420  -0.25708  -0.24253
 Alpha virt. eigenvalues --   -0.02792   0.01119   0.08293   0.10736   0.12057
 Alpha virt. eigenvalues --    0.13254   0.13439   0.15336   0.16297   0.16440
 Alpha virt. eigenvalues --    0.16846   0.18828   0.20559   0.20672   0.24062

 Mulliken charges:
               1
     1  O   -0.248457
     2  C    0.146030
     3  C    0.018530
     4  C   -0.247654
     5  C   -0.075661
     6  C   -0.054136
     7  C   -0.253600
     8  C   -0.071421
     9  O   -0.261223
    10  H    0.094963
    11  H    0.095628
    12  H    0.122184
    13  H    0.127986
    14  H    0.091109
    15  H    0.089433
    16  H    0.122766
    17  H    0.103875
    18  H    0.106984
    19  H    0.092664
 Sum of Mulliken charges =   0.00000

 Dipole moment (field-independent basis, Debye):
    X=             -2.6773    Y=             -0.6147    Z=             -0.6223  Tot=              2.8166
 Quadrupole moment (field-independent basis, Debye-Ang):
   XX=            -59.3602   YY=            -52.0607   ZZ=            -52.8546
   XY=             -1.2978   XZ=             -0.0277   YZ=              0.6630

  Exact polarizability:  96.310   6.460  81.439   1.757  -1.947  55.693
 Approx polarizability: 132.864  19.040 118.248   3.317  -4.437  89.293

                      1                      2                      3
                      A                      A                      A
 Frequencies --     71.6620                96.2411               129.0633
 Red. masses --      3.9578                 2.2806                 2.4161
 Frc consts  --      0.0120                 0.0124                 0.0237
 IR Inten    --      4.0789                 1.9440                 3.7080

                      4                      5                      6
                      A                      A                      A
 Frequencies --    200.8335               301.9646               314.6128
 Red. masses --      4.8298                 2.3811                 2.9305
 Frc consts  --      0.1148                 0.1279                 0.1709
 IR Inten    --      4.7473                 4.3958                 0.4433

                      7                      8                      9
                      A                      A                      A
 Frequencies --    352.2043               423.5626               460.7755
 Red. masses --      4.9138                 2.5596                 2.6784
 Frc consts  --      0.3591                 0.2706                 0.3350
 IR Inten    --      2.5153                 1.0680                 4.6586

                     10                     11                     12
                      A                      A                      A
 Frequencies --    514.8733               608.2515               696.7827
 Red. masses --      2.9198                 2.8233                 2.6656
 Frc consts  --      0.4560                 0.6154                 0.7625
 IR Inten    --      1.1987                18.6116                 8.5517

                     13                     14                     15
                      A                      A                      A
 Frequencies --    715.2722               789.9824               841.6793
 Red. masses --      1.4373                 2.8447                 2.4371
 Frc consts  --      0.4333                 1.0460                 1.0172
 IR Inten    --     32.4039                 0.4914                 2.0821

                     16                     17                     18
                      A                      A                      A
 Frequencies --    877.2885               941.0872               971.0518
 Red. masses --      2.0912                 2.6947                 2.1506
 Frc consts  --      0.9483                 1.4061                 1.1948
 IR Inten    --     10.4400                 1.0233                 6.3357

                     19                     20                     21
                      A                      A                      A
 Frequencies --   1000.7375              1031.4708              1060.6127
 Red. masses --      1.2352                 2.7840                 1.9880
 Frc consts  --      0.7288                 1.7452                 1.3176
 IR Inten    --      0.6706                36.5950                 2.9957

                     22                     23                     24
                      A                      A                      A
 Frequencies --   1066.5078              1090.4193              1106.1121
 Red. masses --      2.2566                 2.1848                 2.6440
 Frc consts  --      1.5123                 1.5306                 1.9059
 IR Inten    --      9.2392                 0.4203                 0.7556

                     25                     26                     27
                      A                      A                      A
 Frequencies --   1157.9765              1229.6497              1239.3980
 Red. masses --      5.7604                 1.2125                 1.1728
 Frc consts  --      4.5510                 1.0801                 1.0614
 IR Inten    --    106.3319                 9.9978                 8.3434

                     28                     29                     30
                      A                      A                      A
 Frequencies --   1254.6537              1293.3985              1316.4939
 Red. masses --      1.1701                 1.2368                 1.2163
 Frc consts  --      1.0852                 1.2190                 1.2420
 IR Inten    --      1.4030                 1.3206                31.4342

                     31                     32                     33
                      A                      A                      A
 Frequencies --   1352.7187              1372.4551              1377.5911
 Red. masses --      1.2448                 1.5494                 1.4486
 Frc consts  --      1.3421                 1.7195                 1.6197
 IR Inten    --     18.0982                 3.6613                 3.5038

                     34                     35                     36
                      A                      A                      A
 Frequencies --   1391.6673              1416.4669              1432.3900
 Red. masses --      1.2461                 1.3305                 1.3626
 Frc consts  --      1.4219                 1.5728                 1.6472
 IR Inten    --      4.3534                 7.0209                 8.0222

                     37                     38                     39
                      A                      A                      A
 Frequencies --   1462.9587              1467.1028              1491.9347
 Red. masses --      1.0986                 1.0922                 1.0999
 Frc consts  --      1.3853                 1.3851                 1.4425
 IR Inten    --      3.1151                 4.3932                 2.7308

                     40                     41                     42
                      A                      A                      A
 Frequencies --   1726.4178              1838.3566              2903.0865
 Red. masses --      6.9957                10.9366                 1.0849
 Frc consts  --     12.2850                21.7766                 5.3874
 IR Inten    --      2.2866               145.6239                93.0589

                     43                     44                     45
                      A                      A                      A
 Frequencies --   2928.1871              2979.8158              3008.5558
 Red. masses --      1.0786                 1.0680                 1.0645
 Frc consts  --      5.4490                 5.5875                 5.6770
 IR Inten    --     31.1175                44.7383                24.2586

                     46                     47                     48
                      A                      A                      A
 Frequencies --   3013.1404              3058.7843              3074.1116
 Red. masses --      1.0690                 1.0960                 1.0950
 Frc consts  --      5.7185                 6.0416                 6.0967
 IR Inten    --     12.0187                24.0061                46.9406

                     49                     50                     51
                      A                      A                      A
 Frequencies --   3091.0177              3136.8162              3160.6197
 Red. masses --      1.0909                 1.0834                 1.0951
 Frc consts  --      6.1407                 6.2809                 6.4453
 IR Inten    --      5.5462                 4.4847                36.6300

 - Thermochemistry -
 -------------------
 Temperature   298.150 Kelvin.  Pressure   1.00000 Atm.
 Atom     1 has atomic number  8 and mass  15.99491

 Molecular mass:   126.06808 amu.
 Principal axes and moments of inertia in atomic units:
                           1         2         3
     Eigenvalues --   571.854611519.223501998.70973
           X            0.99999   0.00372   0.00123
           Y           -0.00372   0.99997   0.00671
           Z           -0.00120  -0.00672   0.99998
 This molecule is an asymmetric top.
 Rotational symmetry number  1.
 Warning -- assumption of classical behavior for rotation
           may cause significant error
 Rotational temperatures (Kelvin)      0.15146     0.05701     0.04333
 Rotational constants (GHZ):           3.15594     1.18794     0.90295
 Zero-point vibrational energy     417728.9 (Joules/Mol)
                                   99.83960 (Kcal/Mol)
 Warning -- explicit consideration of  11 degrees of freedom as
           vibrations may cause significant error
 Vibrational temperatures:    103.11   138.47   185.69   288.95   434.46
          (Kelvin)            452.66   506.74   609.41   662.95   740.79
                              875.14  1002.51  1029.12  1136.61  1210.99
                             1262.22  1354.01  1397.13  1439.84  1484.05
                             1525.98  1534.46  1568.87  1591.45  1666.07
                             1769.19  1783.22  1805.16  1860.91  1894.14
                             1946.26  1974.65  1982.04  2002.30  2037.98
                             2060.89  2104.87  2110.83  2146.56  2483.93
                             2644.98  4176.89  4213.00  4287.28  4328.64
                             4335.23  4400.90  4422.96  4447.28  4513.17
                             4547.42

 Zero-point correction=                           0.159105 (Hartree/Particle)
 Thermal correction to Energy=                    0.167642
 Thermal correction to Enthalpy=                  0.168586
 Thermal correction to Gibbs Free Energy=         0.125419
 Sum of electronic and zero-point Energies=           -423.035850
 Sum of electronic and thermal Energies=              -423.027313
 Sum of electronic and thermal Enthalpies=            -423.026369
 Sum of electronic and thermal Free Energies=         -423.069536

                     E (Thermal)             CV                S
                      KCal/Mol        Cal/Mol-Kelvin    Cal/Mol-Kelvin
 Total                  105.197             31.728             90.853
 Electronic               0.000              0.000              0.000
 Translational            0.889              2.981             40.409
 Rotational               0.889              2.981             28.942
 Vibrational            103.419             25.766             21.503
 Vibration     1          0.598              1.968              4.107
 Vibration     2          0.603              1.952              3.529
 Vibration     3          0.612              1.924              2.960
 Vibration     4          0.638              1.839              2.125
 Vibration     5          0.694              1.670              1.406
 Vibration     6          0.702              1.646              1.338
 Vibration     7          0.729              1.571              1.156
 Vibration     8          0.786              1.419              0.880
 Vibration     9          0.819              1.337              0.764
 Vibration    10          0.870              1.217              0.622
 Vibration    11          0.967              1.014              0.436

 Optimization completed.
    -- Stationary point found.
 Normal termination of Gaussian 09 at Mon Jan 27 14:17:23 2020.
