 Gaussian 09, Revision D.01,
 Gaussian 09:  ES64L-G09RevD.01 24-Apr-2013

 -----------------------------
 # b3lyp 6-31G(2df,p) opt Freq
 -----------------------------

 -----
 titel
 -----
 Symbolic Z-matrix:
 Charge =  0 Multiplicity = 1

 SCF Done:  E(RB3LYP) =  -423.159088424     A.U. after   13 cycles
 Optimization completed.
    -- Stationary point found.
 Normal termination of Gaussian 09 at Mon Jan 27 23:06:04 2020.

 ----------------------------------------------------------------------
 #N Geom=AllCheck Guess=TCheck SCRF=Check GenChk RB3LYP/6-31G(2df,p) Fr
 eq
 ----------------------------------------------------------------------

 Structure from the checkpoint file:  "/scratch/puck/g09_b7d679b7-cae8-457b-a559-8d7cec2a3e76/Gau-103133.chk"
 -----
 titel
 -----
 Charge =  0 Multiplicity = 1

                         Standard orientation:
 ---------------------------------------------------------------------
 Center     Atomic      Atomic             Coordinates (Angstroms)
 Number     Number       Type             X           Y           Z
 ---------------------------------------------------------------------
      1          8           0       -2.334511   -0.621279   -0.193078
      2          6           0       -1.073404   -0.488377    0.450840
      3          6           0        0.021232   -1.300217   -0.256392
      4          6           0        1.365059   -1.559729    0.386966
      5          6           0        1.250761   -0.533774   -0.707424
      6          6           0        1.186115    0.933291   -0.316824
      7          6           0       -0.142002    1.544720   -0.813320
      8          6           0       -0.651946    0.988133    0.535358
      9          8           0        0.707136    1.040286    1.056222
     10          1           0       -2.233077   -0.327044   -1.105140
     11          1           0       -1.236942   -0.864466    1.466933
     12          1           0       -0.373228   -2.083608   -0.895481
     13          1           0        1.520062   -1.192884    1.394613
     14          1           0        1.854936   -2.498443    0.152824
     15          1           0        1.681361   -0.746632   -1.681378
     16          1           0        2.123702    1.475509   -0.464873
     17          1           0       -0.134429    2.635504   -0.821327
     18          1           0       -0.562535    1.161334   -1.747220
     19          1           0       -1.355747    1.584389    1.120672
 ---------------------------------------------------------------------

 SCF Done:  E(RB3LYP) =  -423.159088424     A.U. after    1 cycles

 The electronic state is 1-A.
 Alpha  occ. eigenvalues --  -19.13870 -19.13626 -10.24049 -10.23427 -10.23248
 Alpha  occ. eigenvalues --  -10.19212 -10.19197 -10.18903 -10.18314  -1.04764
 Alpha  occ. eigenvalues --   -1.01842  -0.85979  -0.75288  -0.73397  -0.65293
 Alpha  occ. eigenvalues --   -0.60667  -0.58661  -0.53872  -0.51746  -0.49427
 Alpha  occ. eigenvalues --   -0.48068  -0.45943  -0.43679  -0.42325  -0.40288
 Alpha  occ. eigenvalues --   -0.37060  -0.36511  -0.35227  -0.33969  -0.31579
 Alpha  occ. eigenvalues --   -0.29895  -0.28544  -0.26724  -0.23718
 Alpha virt. eigenvalues --    0.06550   0.08064   0.09965   0.10864   0.12484
 Alpha virt. eigenvalues --    0.13227   0.14555   0.15353   0.16952   0.17251
 Alpha virt. eigenvalues --    0.18026   0.18773   0.19950   0.20447   0.23934

 Mulliken charges:
               1
     1  O   -0.435200
     2  C    0.105090
     3  C   -0.071420
     4  C   -0.302217
     5  C   -0.038713
     6  C    0.079395
     7  C   -0.259646
     8  C    0.067251
     9  O   -0.295110
    10  H    0.279308
    11  H    0.096839
    12  H    0.088417
    13  H    0.132881
    14  H    0.107335
    15  H    0.084311
    16  H    0.078915
    17  H    0.112696
    18  H    0.086809
    19  H    0.083059
 Sum of Mulliken charges =   0.00000

 Dipole moment (field-independent basis, Debye):
    X=              0.6203    Y=              0.3291    Z=             -2.1362  Tot=              2.2487
 Quadrupole moment (field-independent basis, Debye-Ang):
   XX=            -56.8536   YY=            -52.2870   ZZ=            -51.5740
   XY=             -2.9735   XZ=             -0.3715   YZ=             -1.1304

  Exact polarizability:  76.566  -2.752  75.726  -1.063  -2.325  66.990
 Approx polarizability: 112.342  -0.096 103.859   0.478  -2.636 107.459

                      1                      2                      3
                      A                      A                      A
 Frequencies --    155.6561               252.8756               304.1734
 Red. masses --      3.9072                 1.8421                 2.1932
 Frc consts  --      0.0558                 0.0694                 0.1196
 IR Inten    --      2.2928                 9.1811                27.8468

                      4                      5                      6
                      A                      A                      A
 Frequencies --    308.1762               357.2896               417.0099
 Red. masses --      1.5900                 4.6205                 3.2207
 Frc consts  --      0.0890                 0.3475                 0.3300
 IR Inten    --     46.8006                10.9220                 9.8780

                      7                      8                      9
                      A                      A                      A
 Frequencies --    469.6107               511.1745               570.5409
 Red. masses --      4.4729                 4.1378                 3.9975
 Frc consts  --      0.5812                 0.6370                 0.7667
 IR Inten    --      1.8828                 0.3338                 2.5525

                     10                     11                     12
                      A                      A                      A
 Frequencies --    655.3164               760.0598               802.5237
 Red. masses --      2.8709                 2.0347                 2.9261
 Frc consts  --      0.7264                 0.6925                 1.1103
 IR Inten    --      4.5321                 5.9963                15.0050

                     13                     14                     15
                      A                      A                      A
 Frequencies --    823.6841               857.2226               902.9979
 Red. masses --      1.4331                 1.9772                 2.7500
 Frc consts  --      0.5728                 0.8560                 1.3212
 IR Inten    --      5.1118                 8.9862                13.4229

                     16                     17                     18
                      A                      A                      A
 Frequencies --    928.3675               944.4311               960.2281
 Red. masses --      3.2743                 3.2463                 3.1530
 Frc consts  --      1.6627                 1.7060                 1.7129
 IR Inten    --      5.5954                29.2896                23.7255

                     19                     20                     21
                      A                      A                      A
 Frequencies --    990.7771              1003.3015              1040.4433
 Red. masses --      2.0548                 2.4262                 2.2083
 Frc consts  --      1.1884                 1.4390                 1.4085
 IR Inten    --      5.9768                 7.6992                 6.2804

                     22                     23                     24
                      A                      A                      A
 Frequencies --   1066.2611              1080.5482              1085.5847
 Red. masses --      2.1626                 2.1433                 1.3477
 Frc consts  --      1.4487                 1.4745                 0.9358
 IR Inten    --     55.2012                37.3892                16.3469

                     25                     26                     27
                      A                      A                      A
 Frequencies --   1112.1101              1124.7585              1127.9328
 Red. masses --      1.6146                 1.5092                 1.2755
 Frc consts  --      1.1765                 1.1249                 0.9561
 IR Inten    --      1.2426                19.5522                 1.7209

                     28                     29                     30
                      A                      A                      A
 Frequencies --   1137.0889              1197.4371              1215.8716
 Red. masses --      1.4494                 1.5010                 1.5288
 Frc consts  --      1.1041                 1.2681                 1.3316
 IR Inten    --      6.0655                 2.2197                12.4791

                     31                     32                     33
                      A                      A                      A
 Frequencies --   1250.0090              1267.0870              1290.2815
 Red. masses --      1.3869                 1.3539                 1.3601
 Frc consts  --      1.2768                 1.2807                 1.3341
 IR Inten    --      3.3984                 8.7822                 2.5406

                     34                     35                     36
                      A                      A                      A
 Frequencies --   1307.8917              1341.0967              1359.6528
 Red. masses --      1.8900                 1.4588                 1.6853
 Frc consts  --      1.9049                 1.5458                 1.8356
 IR Inten    --      0.3122                 8.1783                 5.0152

                     37                     38                     39
                      A                      A                      A
 Frequencies --   1368.8586              1388.0825              1422.5696
 Red. masses --      1.4225                 1.7690                 1.3315
 Frc consts  --      1.5704                 2.0082                 1.5876
 IR Inten    --      2.6584                 5.7574                59.3592

                     40                     41                     42
                      A                      A                      A
 Frequencies --   1472.6416              1486.9813              3049.7309
 Red. masses --      1.2899                 1.1766                 1.0851
 Frc consts  --      1.6481                 1.5328                 5.9461
 IR Inten    --      0.6886                 7.9076                20.2303

                     43                     44                     45
                      A                      A                      A
 Frequencies --   3059.6509              3075.1786              3088.3110
 Red. masses --      1.0612                 1.0880                 1.0905
 Frc consts  --      5.8532                 6.0622                 6.1282
 IR Inten    --     34.3064                54.1114                43.7169

                     46                     47                     48
                      A                      A                      A
 Frequencies --   3130.2769              3137.9690              3150.8831
 Red. masses --      1.1046                 1.0544                 1.0880
 Frc consts  --      6.3768                 6.1171                 6.3641
 IR Inten    --     29.0341                15.1136                17.1987

                     49                     50                     51
                      A                      A                      A
 Frequencies --   3162.3707              3231.3458              3799.1579
 Red. masses --      1.0911                 1.1160                 1.0657
 Frc consts  --      6.4287                 6.8659                 9.0630
 IR Inten    --     13.1508                 4.4780                 9.0153

 - Thermochemistry -
 -------------------
 Temperature   298.150 Kelvin.  Pressure   1.00000 Atm.
 Atom     1 has atomic number  8 and mass  15.99491

 Molecular mass:   126.06808 amu.
 Principal axes and moments of inertia in atomic units:
                           1         2         3
     Eigenvalues --   757.92778 897.473251254.05393
           X            0.99119  -0.13238  -0.00518
           Y            0.13218   0.99082  -0.02848
           Z            0.00891   0.02754   0.99958
 This molecule is an asymmetric top.
 Rotational symmetry number  1.
 Warning -- assumption of classical behavior for rotation
           may cause significant error
 Rotational temperatures (Kelvin)      0.11428     0.09651     0.06907
 Rotational constants (GHZ):           2.38115     2.01091     1.43913
 Zero-point vibrational energy     424695.1 (Joules/Mol)
                                  101.50457 (Kcal/Mol)
 Warning -- explicit consideration of   9 degrees of freedom as
           vibrations may cause significant error
 Vibrational temperatures:    223.95   363.83   437.64   443.40   514.06
          (Kelvin)            599.98   675.66   735.47   820.88   942.85
                             1093.56  1154.65  1185.10  1233.35  1299.21
                             1335.71  1358.82  1381.55  1425.51  1443.53
                             1496.96  1534.11  1554.67  1561.91  1600.08
                             1618.27  1622.84  1636.02  1722.84  1749.37
                             1798.48  1823.05  1856.42  1881.76  1929.54
                             1956.23  1969.48  1997.14  2046.76  2118.80
                             2139.43  4387.88  4402.15  4424.49  4443.39
                             4503.76  4514.83  4533.41  4549.94  4649.18
                             5466.13

 Zero-point correction=                           0.161758 (Hartree/Particle)
 Thermal correction to Energy=                    0.168856
 Thermal correction to Enthalpy=                  0.169800
 Thermal correction to Gibbs Free Energy=         0.130692
 Sum of electronic and zero-point Energies=           -422.997331
 Sum of electronic and thermal Energies=              -422.990232
 Sum of electronic and thermal Enthalpies=            -422.989288
 Sum of electronic and thermal Free Energies=         -423.028397

                     E (Thermal)             CV                S
                      KCal/Mol        Cal/Mol-Kelvin    Cal/Mol-Kelvin
 Total                  105.959             29.658             82.311
 Electronic               0.000              0.000              0.000
 Translational            0.889              2.981             40.409
 Rotational               0.889              2.981             28.236
 Vibrational            104.181             23.697             13.667
 Vibration     1          0.620              1.896              2.602
 Vibration     2          0.664              1.758              1.710
 Vibration     3          0.695              1.666              1.394
 Vibration     4          0.698              1.658              1.372
 Vibration     5          0.732              1.560              1.134
 Vibration     6          0.780              1.433              0.902
 Vibration     7          0.827              1.317              0.739
 Vibration     8          0.866              1.225              0.631
 Vibration     9          0.927              1.095              0.503

 Normal termination of Gaussian 09 at Mon Jan 27 23:53:57 2020.
