 Gaussian 09, Revision D.01,
 Gaussian 09:  ES64L-G09RevD.01 24-Apr-2013

 -----------------------------
 # b3lyp 6-31G(2df,p) opt Freq
 -----------------------------

 -----
 titel
 -----
 Symbolic Z-matrix:
 Charge =  0 Multiplicity = 1

 SCF Done:  E(RB3LYP) =  -423.184111390     A.U. after   14 cycles
 Optimization completed.
    -- Stationary point found.
 Normal termination of Gaussian 09 at Mon Jan 27 17:55:54 2020.

 ----------------------------------------------------------------------
 #N Geom=AllCheck Guess=TCheck SCRF=Check GenChk RB3LYP/6-31G(2df,p) Fr
 eq
 ----------------------------------------------------------------------

 Structure from the checkpoint file:  "/scratch/puck/g09_7bf778b4-ef87-446d-9b9f-ae5325bbb0fe/Gau-16580.chk"
 -----
 titel
 -----
 Charge =  0 Multiplicity = 1

                         Standard orientation:
 ---------------------------------------------------------------------
 Center     Atomic      Atomic             Coordinates (Angstroms)
 Number     Number       Type             X           Y           Z
 ---------------------------------------------------------------------
      1          6           0       -2.262560    1.380329   -0.473733
      2          6           0       -1.287781    0.369999    0.080663
      3          6           0       -1.791095   -0.891624    0.771572
      4          6           0       -1.043474   -0.978129   -0.535816
      5          8           0        0.320441   -1.313703   -0.502738
      6          6           0        0.986308   -0.400346    0.373113
      7          6           0        0.088541    0.850284    0.524343
      8          6           0        2.362611   -0.134381   -0.211211
      9          8           0        2.990493    0.875064   -0.025974
     10          1           0       -1.813682    1.955752   -1.291519
     11          1           0       -3.162584    0.892057   -0.860606
     12          1           0       -2.581119    2.090695    0.297898
     13          1           0       -1.304411   -1.238233    1.677613
     14          1           0       -2.860367   -1.074582    0.742870
     15          1           0       -1.526085   -1.329334   -1.440705
     16          1           0        1.144191   -0.880603    1.353503
     17          1           0        0.111664    1.235886    1.547042
     18          1           0        0.441260    1.650299   -0.134647
     19          1           0        2.748364   -0.969617   -0.835329
 ---------------------------------------------------------------------

 SCF Done:  E(RB3LYP) =  -423.184111390     A.U. after    1 cycles

 The electronic state is 1-A.
 Alpha  occ. eigenvalues --  -19.15332 -19.14648 -10.27385 -10.24623 -10.23858
 Alpha  occ. eigenvalues --  -10.20394 -10.19487 -10.18810 -10.18613  -1.06003
 Alpha  occ. eigenvalues --   -1.04790  -0.86219  -0.77767  -0.71599  -0.68062
 Alpha  occ. eigenvalues --   -0.60344  -0.56835  -0.56172  -0.50659  -0.48883
 Alpha  occ. eigenvalues --   -0.46874  -0.44952  -0.43706  -0.42774  -0.41219
 Alpha  occ. eigenvalues --   -0.40066  -0.38776  -0.38141  -0.35355  -0.34488
 Alpha  occ. eigenvalues --   -0.33182  -0.27887  -0.26574  -0.23341
 Alpha virt. eigenvalues --   -0.02807   0.08683   0.09537   0.10694   0.11561
 Alpha virt. eigenvalues --    0.12299   0.13486   0.14903   0.15488   0.16841
 Alpha virt. eigenvalues --    0.17461   0.18615   0.19272   0.20657   0.23985

 Mulliken charges:
               1
     1  C   -0.480035
     2  C    0.309183
     3  C   -0.368259
     4  C    0.082646
     5  O   -0.277353
     6  C    0.027396
     7  C   -0.313604
     8  C    0.132429
     9  O   -0.241331
    10  H    0.121070
    11  H    0.117080
    12  H    0.122601
    13  H    0.114807
    14  H    0.113245
    15  H    0.103595
    16  H    0.103053
    17  H    0.115268
    18  H    0.120886
    19  H    0.097323
 Sum of Mulliken charges =   0.00000

 Dipole moment (field-independent basis, Debye):
    X=             -2.3531    Y=             -0.4978    Z=              0.4201  Tot=              2.4416
 Quadrupole moment (field-independent basis, Debye-Ang):
   XX=            -57.4033   YY=            -56.0782   ZZ=            -51.4233
   XY=             -4.2934   XZ=              1.1131   YZ=             -0.9488

  Exact polarizability:  87.967   1.796  73.522  -0.793   0.758  64.383
 Approx polarizability: 113.224   7.803 113.878  -1.426   4.080 100.057

                      1                      2                      3
                      A                      A                      A
 Frequencies --     41.7401               101.7132               177.1735
 Red. masses --      4.3787                 2.4263                 3.0850
 Frc consts  --      0.0045                 0.0148                 0.0571
 IR Inten    --      4.5468                 6.4742                 4.1941

                      4                      5                      6
                      A                      A                      A
 Frequencies --    216.2202               228.6699               320.9437
 Red. masses --      1.2051                 2.9537                 2.6495
 Frc consts  --      0.0332                 0.0910                 0.1608
 IR Inten    --      1.3491                 2.0351                 2.5417

                      7                      8                      9
                      A                      A                      A
 Frequencies --    358.0773               361.7817               465.6334
 Red. masses --      2.2828                 2.9422                 2.2211
 Frc consts  --      0.1725                 0.2269                 0.2837
 IR Inten    --      2.5417                 1.9540                 2.6522

                     10                     11                     12
                      A                      A                      A
 Frequencies --    544.6335               573.1338               685.3097
 Red. masses --      3.1429                 3.8575                 5.5090
 Frc consts  --      0.5493                 0.7466                 1.5244
 IR Inten    --      0.7230                 6.6304                22.2624

                     13                     14                     15
                      A                      A                      A
 Frequencies --    733.4223               829.1773               851.5438
 Red. masses --      3.1783                 3.0085                 2.0108
 Frc consts  --      1.0073                 1.2187                 0.8591
 IR Inten    --      5.7775                 6.8167                13.8016

                     16                     17                     18
                      A                      A                      A
 Frequencies --    868.3875               905.5096               946.8446
 Red. masses --      2.3363                 1.5452                 1.4989
 Frc consts  --      1.0380                 0.7465                 0.7917
 IR Inten    --     18.5522                 3.1835                 1.3423

                     19                     20                     21
                      A                      A                      A
 Frequencies --    972.4566              1011.3796              1029.3711
 Red. masses --      1.6597                 1.8705                 1.5213
 Frc consts  --      0.9247                 1.1273                 0.9497
 IR Inten    --      5.9660                 2.0625                21.6473

                     22                     23                     24
                      A                      A                      A
 Frequencies --   1046.6322              1055.5688              1088.2950
 Red. masses --      2.0447                 1.9082                 2.0481
 Frc consts  --      1.3197                 1.2527                 1.4292
 IR Inten    --      9.1565                 2.5293                19.0678

                     25                     26                     27
                      A                      A                      A
 Frequencies --   1112.4871              1135.7039              1161.4582
 Red. masses --      1.9512                 2.1538                 3.2860
 Frc consts  --      1.4228                 1.6367                 2.6117
 IR Inten    --      1.3713                 8.9769               101.7375

                     28                     29                     30
                      A                      A                      A
 Frequencies --   1202.7510              1250.1164              1289.5936
 Red. masses --      1.4238                 1.5940                 1.4456
 Frc consts  --      1.2136                 1.4677                 1.4164
 IR Inten    --      2.0800                 0.9916                 0.8979

                     31                     32                     33
                      A                      A                      A
 Frequencies --   1313.3730              1324.6901              1357.3548
 Red. masses --      2.3182                 1.3522                 1.6381
 Frc consts  --      2.3561                 1.3981                 1.7782
 IR Inten    --     18.7338                 3.0483                 1.9554

                     34                     35                     36
                      A                      A                      A
 Frequencies --   1402.4786              1408.4783              1421.8064
 Red. masses --      1.3087                 1.4313                 1.4321
 Frc consts  --      1.5166                 1.6729                 1.7057
 IR Inten    --      4.5387                 8.1475                 1.1478

                     37                     38                     39
                      A                      A                      A
 Frequencies --   1483.5754              1490.2400              1497.3502
 Red. masses --      1.2470                 1.0896                 1.0743
 Frc consts  --      1.6170                 1.4256                 1.4191
 IR Inten    --      9.0432                 8.2176                 1.3999

                     40                     41                     42
                      A                      A                      A
 Frequencies --   1507.2487              1836.0203              2904.0469
 Red. masses --      1.1400                10.7559                 1.0846
 Frc consts  --      1.5259                21.3625                 5.3892
 IR Inten    --      3.2677               144.0670                91.1068

                     43                     44                     45
                      A                      A                      A
 Frequencies --   2959.3471              3023.7460              3054.6210
 Red. masses --      1.0807                 1.0357                 1.0601
 Frc consts  --      5.5764                 5.5791                 5.8279
 IR Inten    --     34.8736                32.5562                19.1643

                     46                     47                     48
                      A                      A                      A
 Frequencies --   3084.2969              3097.5283              3099.5535
 Red. masses --      1.1010                 1.1027                 1.1023
 Frc consts  --      6.1710                 6.2334                 6.2397
 IR Inten    --     21.4546                22.3928                16.6353

                     49                     50                     51
                      A                      A                      A
 Frequencies --   3126.8421              3180.5797              3213.1812
 Red. masses --      1.0544                 1.0927                 1.1160
 Frc consts  --      6.0739                 6.5128                 6.7889
 IR Inten    --      9.8475                14.2280                10.9611

 - Thermochemistry -
 -------------------
 Temperature   298.150 Kelvin.  Pressure   1.00000 Atm.
 Atom     1 has atomic number  6 and mass  12.00000

 Molecular mass:   126.06808 amu.
 Principal axes and moments of inertia in atomic units:
                           1         2         3
     Eigenvalues --   540.588871547.458341832.22849
           X            0.99960  -0.02801   0.00468
           Y            0.02814   0.99918  -0.02902
           Z           -0.00386   0.02914   0.99957
 This molecule is an asymmetric top.
 Rotational symmetry number  1.
 Warning -- assumption of classical behavior for rotation
           may cause significant error
 Rotational temperatures (Kelvin)      0.16022     0.05597     0.04727
 Rotational constants (GHZ):           3.33847     1.16626     0.98500
 Zero-point vibrational energy     414817.6 (Joules/Mol)
                                   99.14378 (Kcal/Mol)
 Warning -- explicit consideration of  11 degrees of freedom as
           vibrations may cause significant error
 Vibrational temperatures:     60.05   146.34   254.91   311.09   329.00
          (Kelvin)            461.77   515.19   520.52   669.94   783.61
                              824.61   986.01  1055.23  1193.00  1225.18
                             1249.41  1302.82  1362.30  1399.15  1455.15
                             1481.03  1505.87  1518.73  1565.81  1600.62
                             1634.02  1671.08  1730.49  1798.64  1855.44
                             1889.65  1905.93  1952.93  2017.85  2026.48
                             2045.66  2134.53  2144.12  2154.35  2168.59
                             2641.62  4178.27  4257.84  4350.49  4394.91
                             4437.61  4456.65  4459.56  4498.82  4576.14
                             4623.05

 Zero-point correction=                           0.157996 (Hartree/Particle)
 Thermal correction to Energy=                    0.166664
 Thermal correction to Enthalpy=                  0.167609
 Thermal correction to Gibbs Free Energy=         0.124036
 Sum of electronic and zero-point Energies=           -423.026116
 Sum of electronic and thermal Energies=              -423.017447
 Sum of electronic and thermal Enthalpies=            -423.016503
 Sum of electronic and thermal Free Energies=         -423.060075

                     E (Thermal)             CV                S
                      KCal/Mol        Cal/Mol-Kelvin    Cal/Mol-Kelvin
 Total                  104.584             32.335             91.705
 Electronic               0.000              0.000              0.000
 Translational            0.889              2.981             40.409
 Rotational               0.889              2.981             28.818
 Vibrational            102.806             26.373             22.479
 Vibration     1          0.594              1.981              5.175
 Vibration     2          0.604              1.948              3.421
 Vibration     3          0.628              1.870              2.358
 Vibration     4          0.645              1.816              1.991
 Vibration     5          0.651              1.797              1.889
 Vibration     6          0.706              1.633              1.305
 Vibration     7          0.733              1.559              1.130
 Vibration     8          0.736              1.551              1.114
 Vibration     9          0.823              1.326              0.750
 Vibration    10          0.900              1.151              0.555
 Vibration    11          0.929              1.089              0.498

 Optimization completed.
    -- Stationary point found.
 Normal termination of Gaussian 09 at Mon Jan 27 19:45:38 2020.
