 Gaussian 09, Revision D.01,
 Gaussian 09:  ES64L-G09RevD.01 24-Apr-2013

 -----------------------------
 # b3lyp 6-31G(2df,p) opt Freq
 -----------------------------

 -----
 titel
 -----
 Symbolic Z-matrix:
 Charge =  0 Multiplicity = 1

 SCF Done:  E(RB3LYP) =  -423.120674233     A.U. after   13 cycles
 Optimization completed.
    -- Stationary point found.
 Normal termination of Gaussian 09 at Tue Jan 28 13:35:45 2020.

 ----------------------------------------------------------------------
 #N Geom=AllCheck Guess=TCheck SCRF=Check GenChk RB3LYP/6-31G(2df,p) Fr
 eq
 ----------------------------------------------------------------------

 Structure from the checkpoint file:  "/scratch/puck/g09_24387eed-8363-4b7d-a5b5-4057c41922c4/Gau-110100.chk"
 -----
 titel
 -----
 Charge =  0 Multiplicity = 1

                         Standard orientation:
 ---------------------------------------------------------------------
 Center     Atomic      Atomic             Coordinates (Angstroms)
 Number     Number       Type             X           Y           Z
 ---------------------------------------------------------------------
      1          6           0        3.172367    0.132737   -0.137051
      2          6           0        1.909666   -0.731401   -0.190329
      3          6           0        0.743578   -0.119738    0.578839
      4          8           0        0.388839    1.180296    0.022785
      5          6           0       -0.963766    1.026088   -0.305485
      6          6           0       -1.259168   -0.393146   -0.876466
      7          8           0       -2.589250   -0.391401   -0.262378
      8          6           0       -1.718064    0.182001    0.765920
      9          6           0       -0.588179   -0.848752    0.459345
     10          1           0        3.984551   -0.319907   -0.713300
     11          1           0        2.972534    1.126485   -0.546148
     12          1           0        3.522518    0.257505    0.893676
     13          1           0        1.604108   -0.885294   -1.232610
     14          1           0        2.112634   -1.725274    0.229280
     15          1           0        1.030897    0.030621    1.629316
     16          1           0       -1.398911    1.922214   -0.742345
     17          1           0       -1.157775   -0.793619   -1.884462
     18          1           0       -2.160257    0.468861    1.719633
     19          1           0       -0.685615   -1.879495    0.795082
 ---------------------------------------------------------------------

 SCF Done:  E(RB3LYP) =  -423.120674233     A.U. after    1 cycles

 The electronic state is 1-A.
 Alpha  occ. eigenvalues --  -19.14546 -19.13589 -10.24551 -10.24523 -10.24242
 Alpha  occ. eigenvalues --  -10.23738 -10.20241 -10.18750 -10.17463  -1.07756
 Alpha  occ. eigenvalues --   -1.02981  -0.79751  -0.78276  -0.70930  -0.65881
 Alpha  occ. eigenvalues --   -0.62898  -0.57834  -0.55697  -0.52793  -0.48928
 Alpha  occ. eigenvalues --   -0.47519  -0.44255  -0.42103  -0.40140  -0.38833
 Alpha  occ. eigenvalues --   -0.38356  -0.37313  -0.35453  -0.34580  -0.33767
 Alpha  occ. eigenvalues --   -0.32918  -0.31455  -0.24855  -0.23503
 Alpha virt. eigenvalues --    0.06930   0.10247   0.11364   0.11929   0.12212
 Alpha virt. eigenvalues --    0.12761   0.13987   0.14612   0.14874   0.16384
 Alpha virt. eigenvalues --    0.16491   0.17414   0.18328   0.19933   0.22156

 Mulliken charges:
               1
     1  C   -0.382471
     2  C   -0.184767
     3  C    0.102955
     4  O   -0.286870
     5  C    0.095845
     6  C    0.024932
     7  O   -0.317332
     8  C    0.016354
     9  C   -0.089737
    10  H    0.112047
    11  H    0.137974
    12  H    0.113550
    13  H    0.099369
    14  H    0.097331
    15  H    0.081718
    16  H    0.101826
    17  H    0.095342
    18  H    0.094817
    19  H    0.087117
 Sum of Mulliken charges =   0.00000

 Dipole moment (field-independent basis, Debye):
    X=              1.3455    Y=             -0.7266    Z=              0.4849  Tot=              1.6042
 Quadrupole moment (field-independent basis, Debye-Ang):
   XX=            -59.3894   YY=            -53.5291   ZZ=            -49.9196
   XY=             -3.8339   XZ=             -1.1383   YZ=             -0.2046

  Exact polarizability:  86.716  -2.622  67.564   0.265   0.103  68.802
 Approx polarizability: 113.725  -1.377 104.919   1.773   0.476 108.247

                      1                      2                      3
                      A                      A                      A
 Frequencies --     91.8551               129.2633               189.8100
 Red. masses --      2.8237                 2.7732                 1.8463
 Frc consts  --      0.0140                 0.0273                 0.0392
 IR Inten    --      0.1887                 0.0251                 0.1639

                      4                      5                      6
                      A                      A                      A
 Frequencies --    256.8500               346.7557               448.1803
 Red. masses --      1.3466                 3.6960                 4.8693
 Frc consts  --      0.0523                 0.2618                 0.5763
 IR Inten    --      0.2747                 1.2483                 4.8842

                      7                      8                      9
                      A                      A                      A
 Frequencies --    463.5796               513.0126               686.0097
 Red. masses --      3.4993                 3.5275                 5.1509
 Frc consts  --      0.4431                 0.5470                 1.4282
 IR Inten    --      1.5239                 9.6731                 0.1028

                     10                     11                     12
                      A                      A                      A
 Frequencies --    720.6334               773.5859               784.9963
 Red. masses --      2.8926                 1.6908                 2.8213
 Frc consts  --      0.8850                 0.5961                 1.0243
 IR Inten    --      1.3160                 4.8404                12.7664

                     13                     14                     15
                      A                      A                      A
 Frequencies --    813.8819               870.1006               885.3318
 Red. masses --      3.8343                 2.2780                 2.6179
 Frc consts  --      1.4965                 1.0161                 1.2089
 IR Inten    --      5.5451                 8.2702                 2.4511

                     16                     17                     18
                      A                      A                      A
 Frequencies --    898.2909               904.0235               945.2180
 Red. masses --      2.7515                 2.3237                 2.0437
 Frc consts  --      1.3082                 1.1189                 1.0758
 IR Inten    --     10.0402                10.5740                23.4690

                     19                     20                     21
                      A                      A                      A
 Frequencies --    978.2980               997.8985              1005.8209
 Red. masses --      1.2216                 1.8308                 4.1503
 Frc consts  --      0.6888                 1.0741                 2.4738
 IR Inten    --      1.9172                 0.0183                11.5000

                     22                     23                     24
                      A                      A                      A
 Frequencies --   1056.7482              1086.1104              1108.5888
 Red. masses --      2.0605                 2.9326                 2.1055
 Frc consts  --      1.3557                 2.0382                 1.5246
 IR Inten    --      3.8057               111.8434                27.7248

                     25                     26                     27
                      A                      A                      A
 Frequencies --   1136.5994              1145.5296              1148.2210
 Red. masses --      1.9828                 1.5795                 2.1864
 Frc consts  --      1.5092                 1.2212                 1.6984
 IR Inten    --      4.9660                 0.6479                 1.3176

                     28                     29                     30
                      A                      A                      A
 Frequencies --   1164.4677              1183.7493              1225.3580
 Red. masses --      1.6167                 1.6841                 1.6020
 Frc consts  --      1.2916                 1.3904                 1.4172
 IR Inten    --      0.2210                14.0597                 7.2428

                     31                     32                     33
                      A                      A                      A
 Frequencies --   1261.4532              1273.7273              1289.2253
 Red. masses --      1.6629                 1.5796                 1.2561
 Frc consts  --      1.5591                 1.5099                 1.2300
 IR Inten    --      2.2805                31.0050                 4.1611

                     34                     35                     36
                      A                      A                      A
 Frequencies --   1310.2300              1331.9489              1379.5259
 Red. masses --      1.6146                 1.3999                 1.5931
 Frc consts  --      1.6330                 1.4633                 1.7863
 IR Inten    --      4.6823                 8.2448                 7.5740

                     37                     38                     39
                      A                      A                      A
 Frequencies --   1407.2906              1410.5145              1474.9509
 Red. masses --      1.5173                 1.3025                 1.0782
 Frc consts  --      1.7705                 1.5268                 1.3819
 IR Inten    --      2.3630                 2.7210                 0.8848

                     40                     41                     42
                      A                      A                      A
 Frequencies --   1497.9147              1509.9464              3003.3712
 Red. masses --      1.0437                 1.0578                 1.0837
 Frc consts  --      1.3797                 1.4209                 5.7594
 IR Inten    --      4.6517                 4.7426                30.5419

                     43                     44                     45
                      A                      A                      A
 Frequencies --   3022.6867              3037.8976              3061.1632
 Red. masses --      1.0600                 1.0378                 1.1005
 Frc consts  --      5.7063                 5.6430                 6.0758
 IR Inten    --     23.1055                25.9576                25.4131

                     46                     47                     48
                      A                      A                      A
 Frequencies --   3104.0490              3122.3876              3124.1795
 Red. masses --      1.1006                 1.0900                 1.1008
 Frc consts  --      6.2477                 6.2610                 6.3303
 IR Inten    --     32.9862                65.6688                19.0917

                     49                     50                     51
                      A                      A                      A
 Frequencies --   3125.1246              3147.8673              3161.8022
 Red. masses --      1.0919                 1.0909                 1.0955
 Frc consts  --      6.2829                 6.3689                 6.4525
 IR Inten    --     11.7075                25.9970                19.1273

 - Thermochemistry -
 -------------------
 Temperature   298.150 Kelvin.  Pressure   1.00000 Atm.
 Atom     1 has atomic number  6 and mass  12.00000

 Molecular mass:   126.06808 amu.
 Principal axes and moments of inertia in atomic units:
                           1         2         3
     Eigenvalues --   384.599021582.878231686.67088
           X            0.99992  -0.01088  -0.00586
           Y            0.01088   0.99994  -0.00036
           Z            0.00587   0.00030   0.99998
 This molecule is an asymmetric top.
 Rotational symmetry number  1.
 Rotational temperatures (Kelvin)      0.22521     0.05472     0.05135
 Rotational constants (GHZ):           4.69253     1.14016     1.07000
 Zero-point vibrational energy     418788.8 (Joules/Mol)
                                  100.09293 (Kcal/Mol)
 Warning -- explicit consideration of   8 degrees of freedom as
           vibrations may cause significant error
 Vibrational temperatures:    132.16   185.98   273.09   369.55   498.90
          (Kelvin)            644.83   666.99   738.11   987.01  1036.83
                             1113.02  1129.43  1170.99  1251.88  1273.79
                             1292.44  1300.69  1359.96  1407.55  1435.75
                             1447.15  1520.42  1562.67  1595.01  1635.31
                             1648.16  1652.03  1675.41  1703.15  1763.01
                             1814.95  1832.61  1854.91  1885.13  1916.38
                             1984.83  2024.77  2029.41  2122.12  2155.16
                             2172.47  4321.18  4348.97  4370.85  4404.33
                             4466.03  4492.41  4494.99  4496.35  4529.07
                             4549.12

 Zero-point correction=                           0.159508 (Hartree/Particle)
 Thermal correction to Energy=                    0.167064
 Thermal correction to Enthalpy=                  0.168008
 Thermal correction to Gibbs Free Energy=         0.127317
 Sum of electronic and zero-point Energies=           -422.961166
 Sum of electronic and thermal Energies=              -422.953611
 Sum of electronic and thermal Enthalpies=            -422.952666
 Sum of electronic and thermal Free Energies=         -422.993357

                     E (Thermal)             CV                S
                      KCal/Mol        Cal/Mol-Kelvin    Cal/Mol-Kelvin
 Total                  104.834             29.804             85.640
 Electronic               0.000              0.000              0.000
 Translational            0.889              2.981             40.409
 Rotational               0.889              2.981             28.420
 Vibrational            103.057             23.842             16.812
 Vibration     1          0.602              1.955              3.620
 Vibration     2          0.612              1.924              2.957
 Vibration     3          0.633              1.854              2.230
 Vibration     4          0.666              1.751              1.683
 Vibration     5          0.725              1.582              1.181
 Vibration     6          0.807              1.365              0.801
 Vibration     7          0.821              1.331              0.756
 Vibration     8          0.868              1.221              0.626

 Optimization completed.
    -- Stationary point found.
 Normal termination of Gaussian 09 at Tue Jan 28 14:17:51 2020.
