 Gaussian 09, Revision D.01,
 Gaussian 09:  ES64L-G09RevD.01 24-Apr-2013

 -----------------------------
 # b3lyp 6-31G(2df,p) opt Freq
 -----------------------------

 -----
 titel
 -----
 Symbolic Z-matrix:
 Charge =  0 Multiplicity = 1

 SCF Done:  E(RB3LYP) =  -423.110458035     A.U. after   14 cycles
 Optimization completed.
    -- Stationary point found.
 Normal termination of Gaussian 09 at Mon Jan 27 15:57:21 2020.

 ----------------------------------------------------------------------
 #N Geom=AllCheck Guess=TCheck SCRF=Check GenChk RB3LYP/6-31G(2df,p) Fr
 eq
 ----------------------------------------------------------------------

 Structure from the checkpoint file:  "/scratch/puck/g09_82ca3017-7ff8-4c97-abca-8d3e34c57117/Gau-10412.chk"
 -----
 titel
 -----
 Charge =  0 Multiplicity = 1

                         Standard orientation:
 ---------------------------------------------------------------------
 Center     Atomic      Atomic             Coordinates (Angstroms)
 Number     Number       Type             X           Y           Z
 ---------------------------------------------------------------------
      1          6           0        2.340734   -1.679533   -0.116513
      2          6           0        1.550791   -0.467408    0.378550
      3          8           0        0.272409   -0.527898   -0.237275
      4          6           0       -0.659380    0.418207    0.252718
      5          6           0       -1.959030    0.212943   -0.472828
      6          6           0       -3.237005    0.603957    0.131825
      7          8           0       -2.852796   -0.767872    0.056005
      8          6           0        2.247452    0.794392    0.084993
      9          6           0        2.818063    1.823624   -0.161058
     10          1           0        2.463932   -1.627093   -1.200791
     11          1           0        3.328346   -1.706483    0.350018
     12          1           0        1.797164   -2.593536    0.134269
     13          1           0        1.427622   -0.541576    1.472764
     14          1           0       -0.818710    0.286925    1.334924
     15          1           0       -0.294647    1.443033    0.081824
     16          1           0       -1.876271    0.204454   -1.559835
     17          1           0       -3.252186    1.030734    1.134471
     18          1           0       -4.066649    0.900352   -0.508202
     19          1           0        3.324748    2.732261   -0.375405
 ---------------------------------------------------------------------

 SCF Done:  E(RB3LYP) =  -423.110458035     A.U. after    1 cycles

 The electronic state is 1-A.
 Alpha  occ. eigenvalues --  -19.14987 -19.14751 -10.26090 -10.23875 -10.23593
 Alpha  occ. eigenvalues --  -10.23336 -10.18534 -10.18243 -10.18102  -1.07233
 Alpha  occ. eigenvalues --   -1.04096  -0.79898  -0.74129  -0.71539  -0.65999
 Alpha  occ. eigenvalues --   -0.63425  -0.59797  -0.54137  -0.51522  -0.50004
 Alpha  occ. eigenvalues --   -0.49162  -0.47765  -0.43788  -0.42218  -0.39391
 Alpha  occ. eigenvalues --   -0.38430  -0.37400  -0.36597  -0.33626  -0.31064
 Alpha  occ. eigenvalues --   -0.27964  -0.27288  -0.26868  -0.26514
 Alpha virt. eigenvalues --    0.03378   0.04736   0.09717   0.10663   0.10929
 Alpha virt. eigenvalues --    0.12181   0.12542   0.13563   0.14473   0.15296
 Alpha virt. eigenvalues --    0.16418   0.17418   0.17967   0.18887   0.20548

 Mulliken charges:
               1
     1  C   -0.394861
     2  C   -0.020837
     3  O   -0.248820
     4  C   -0.084994
     5  C    0.085858
     6  C   -0.182193
     7  O   -0.228250
     8  C    0.346670
     9  C   -0.496276
    10  H    0.137103
    11  H    0.126667
    12  H    0.130022
    13  H    0.095807
    14  H    0.093719
    15  H    0.105575
    16  H    0.102853
    17  H    0.113242
    18  H    0.117103
    19  H    0.201613
 Sum of Mulliken charges =   0.00000

 Dipole moment (field-independent basis, Debye):
    X=              0.7009    Y=              1.9737    Z=              0.4341  Tot=              2.1390
 Quadrupole moment (field-independent basis, Debye-Ang):
   XX=            -51.0722   YY=            -51.2894   ZZ=            -52.1412
   XY=             -4.8039   XZ=              0.5565   YZ=             -1.0310

  Exact polarizability:  95.028   4.147  80.325  -3.281  -2.077  61.267
 Approx polarizability: 115.714  15.031 126.516  -6.841  -6.006  93.088

                      1                      2                      3
                      A                      A                      A
 Frequencies --     42.1542                58.2113               122.1453
 Red. masses --      3.8076                 4.1157                 3.6326
 Frc consts  --      0.0040                 0.0082                 0.0319
 IR Inten    --      2.2499                 2.9661                 0.4990

                      4                      5                      6
                      A                      A                      A
 Frequencies --    130.3498               191.7940               214.4173
 Red. masses --      3.5773                 3.1959                 1.3573
 Frc consts  --      0.0358                 0.0693                 0.0368
 IR Inten    --      2.4282                 2.2134                 0.4534

                      7                      8                      9
                      A                      A                      A
 Frequencies --    260.7519               291.9245               330.8794
 Red. masses --      2.1408                 3.2544                 3.4172
 Frc consts  --      0.0858                 0.1634                 0.2204
 IR Inten    --      1.5616                 0.7042                 0.6312

                     10                     11                     12
                      A                      A                      A
 Frequencies --    450.4185               465.5769               559.1764
 Red. masses --      2.7470                 3.6199                 3.5881
 Frc consts  --      0.3284                 0.4623                 0.6610
 IR Inten    --      4.1255                 6.6670                 5.2920

                     13                     14                     15
                      A                      A                      A
 Frequencies --    602.4636               629.2981               676.2476
 Red. masses --      5.3678                 1.2347                 1.2529
 Frc consts  --      1.1479                 0.2881                 0.3376
 IR Inten    --      4.5338                43.3774                35.3498

                     16                     17                     18
                      A                      A                      A
 Frequencies --    802.8230               818.4613               871.6429
 Red. masses --      3.3534                 2.7945                 1.6896
 Frc consts  --      1.2734                 1.1029                 0.7563
 IR Inten    --     13.2042                 3.9749                18.5133

                     19                     20                     21
                      A                      A                      A
 Frequencies --    911.0848               958.4457              1002.6427
 Red. masses --      2.3556                 3.2810                 1.5542
 Frc consts  --      1.1521                 1.7758                 0.9206
 IR Inten    --     30.0338                21.4560                 0.2138

                     22                     23                     24
                      A                      A                      A
 Frequencies --   1044.1738              1094.2889              1099.3110
 Red. masses --      2.6132                 1.4766                 2.0099
 Frc consts  --      1.6787                 1.0418                 1.4311
 IR Inten    --     11.6825                 1.3324                23.6224

                     25                     26                     27
                      A                      A                      A
 Frequencies --   1137.4019              1142.3588              1161.2790
 Red. masses --      3.3377                 2.1613                 1.4356
 Frc consts  --      2.5441                 1.6618                 1.1407
 IR Inten    --    202.9111                36.3308                 4.8695

                     28                     29                     30
                      A                      A                      A
 Frequencies --   1166.3999              1181.2927              1270.5638
 Red. masses --      1.6084                 1.9642                 1.1388
 Frc consts  --      1.2893                 1.6149                 1.0831
 IR Inten    --      7.1526                10.8518                 4.0290

                     31                     32                     33
                      A                      A                      A
 Frequencies --   1293.4017              1335.0635              1354.2996
 Red. masses --      1.5260                 1.2377                 1.3145
 Frc consts  --      1.5041                 1.2997                 1.4205
 IR Inten    --      4.8685                22.0805                47.0194

                     34                     35                     36
                      A                      A                      A
 Frequencies --   1389.1727              1403.3327              1465.2262
 Red. masses --      1.3764                 1.2672                 1.6631
 Frc consts  --      1.5650                 1.4704                 2.1037
 IR Inten    --      2.8571                 4.4799                 3.3129

                     37                     38                     39
                      A                      A                      A
 Frequencies --   1482.0204              1494.9853              1502.0566
 Red. masses --      1.0446                 1.0499                 1.0836
 Frc consts  --      1.3518                 1.3825                 1.4404
 IR Inten    --      3.4158                 0.6507                 5.7618

                     40                     41                     42
                      A                      A                      A
 Frequencies --   1533.0867              2229.0507              2954.5793
 Red. masses --      1.4182                 5.8892                 1.0803
 Frc consts  --      1.9639                17.2404                 5.5563
 IR Inten    --      3.1726                 1.9768                30.6664

                     43                     44                     45
                      A                      A                      A
 Frequencies --   2974.6165              3014.0919              3054.4036
 Red. masses --      1.0555                 1.1047                 1.0335
 Frc consts  --      5.5029                 5.9131                 5.6809
 IR Inten    --     35.2860                27.3167                12.8148

                     46                     47                     48
                      A                      A                      A
 Frequencies --   3081.1317              3116.7173              3136.7266
 Red. masses --      1.0503                 1.0887                 1.1031
 Frc consts  --      5.8748                 6.2310                 6.3946
 IR Inten    --     28.1800                17.1547                16.2498

                     49                     50                     51
                      A                      A                      A
 Frequencies --   3138.0902              3166.5606              3501.7741
 Red. masses --      1.1030                 1.1189                 1.1626
 Frc consts  --      6.3994                 6.6102                 8.3992
 IR Inten    --     14.8560                29.4141                60.1944

 - Thermochemistry -
 -------------------
 Temperature   298.150 Kelvin.  Pressure   1.00000 Atm.
 Atom     1 has atomic number  6 and mass  12.00000

 Molecular mass:   126.06808 amu.
 Principal axes and moments of inertia in atomic units:
                           1         2         3
     Eigenvalues --   519.219782289.904392690.43868
           X            0.99960  -0.02819  -0.00083
           Y            0.02819   0.99960   0.00081
           Z            0.00081  -0.00083   1.00000
 This molecule is an asymmetric top.
 Rotational symmetry number  1.
 Warning -- assumption of classical behavior for rotation
           may cause significant error
 Rotational temperatures (Kelvin)      0.16682     0.03782     0.03219
 Rotational constants (GHZ):           3.47587     0.78813     0.67080
 Zero-point vibrational energy     408574.8 (Joules/Mol)
                                   97.65171 (Kcal/Mol)
 Warning -- explicit consideration of  13 degrees of freedom as
           vibrations may cause significant error
 Vibrational temperatures:     60.65    83.75   175.74   187.54   275.95
          (Kelvin)            308.50   375.16   420.01   476.06   648.05
                              669.86   804.53   866.81   905.42   972.97
                             1155.08  1177.58  1254.10  1310.85  1378.99
                             1442.58  1502.33  1574.44  1581.66  1636.47
                             1643.60  1670.82  1678.19  1699.61  1828.06
                             1860.91  1920.86  1948.53  1998.71  2019.08
                             2108.13  2132.29  2150.95  2161.12  2205.77
                             3207.10  4250.98  4279.80  4336.60  4394.60
                             4433.06  4484.26  4513.04  4515.01  4555.97
                             5038.27

 Zero-point correction=                           0.155618 (Hartree/Particle)
 Thermal correction to Energy=                    0.165618
 Thermal correction to Enthalpy=                  0.166563
 Thermal correction to Gibbs Free Energy=         0.119513
 Sum of electronic and zero-point Energies=           -422.954840
 Sum of electronic and thermal Energies=              -422.944840
 Sum of electronic and thermal Enthalpies=            -422.943895
 Sum of electronic and thermal Free Energies=         -422.990945

                     E (Thermal)             CV                S
                      KCal/Mol        Cal/Mol-Kelvin    Cal/Mol-Kelvin
 Total                  103.927             35.498             99.025
 Electronic               0.000              0.000              0.000
 Translational            0.889              2.981             40.409
 Rotational               0.889              2.981             29.549
 Vibrational            102.150             29.536             29.067
 Vibration     1          0.595              1.980              5.155
 Vibration     2          0.596              1.974              4.517
 Vibration     3          0.610              1.931              3.066
 Vibration     4          0.612              1.923              2.941
 Vibration     5          0.634              1.851              2.210
 Vibration     6          0.644              1.819              2.006
 Vibration     7          0.669              1.745              1.657
 Vibration     8          0.687              1.689              1.463
 Vibration     9          0.713              1.614              1.256
 Vibration    10          0.809              1.360              0.795
 Vibration    11          0.823              1.326              0.750
 Vibration    12          0.915              1.120              0.525
 Vibration    13          0.961              1.027              0.445

 Optimization completed.
    -- Stationary point found.
 Normal termination of Gaussian 09 at Mon Jan 27 17:32:07 2020.
