 Gaussian 09, Revision D.01,
 Gaussian 09:  ES64L-G09RevD.01 24-Apr-2013

 -----------------------------
 # b3lyp 6-31G(2df,p) opt Freq
 -----------------------------

 -----
 titel
 -----
 Symbolic Z-matrix:
 Charge =  0 Multiplicity = 1

 SCF Done:  E(RB3LYP) =  -423.200456709     A.U. after   14 cycles
 Optimization completed.
    -- Stationary point found.
 Normal termination of Gaussian 09 at Mon Jan 27 22:13:57 2020.

 ----------------------------------------------------------------------
 #N Geom=AllCheck Guess=TCheck SCRF=Check GenChk RB3LYP/6-31G(2df,p) Fr
 eq
 ----------------------------------------------------------------------

 Structure from the checkpoint file:  "/scratch/puck/g09_5d16043b-d747-413a-9b57-c60f195c96c1/Gau-28383.chk"
 -----
 titel
 -----
 Charge =  0 Multiplicity = 1

                         Standard orientation:
 ---------------------------------------------------------------------
 Center     Atomic      Atomic             Coordinates (Angstroms)
 Number     Number       Type             X           Y           Z
 ---------------------------------------------------------------------
      1          6           0       -2.184878   -1.473953   -0.397387
      2          6           0       -0.900147   -0.699935   -0.589948
      3          6           0        0.093607   -0.625211    0.593830
      4          6           0        1.522424   -0.453372    0.223130
      5          8           0        2.472517   -1.104948    0.577199
      6          6           0        1.584489    0.791193   -0.677574
      7          8           0        0.319418    1.429091   -0.608890
      8          6           0       -0.618717    0.607958    0.074304
      9          6           0       -1.620440    1.432602    0.830496
     10          1           0       -2.583358   -1.362443    0.614842
     11          1           0       -2.953522   -1.133493   -1.099553
     12          1           0       -2.022151   -2.542835   -0.570265
     13          1           0       -0.450406   -0.821514   -1.572638
     14          1           0       -0.159189   -1.136252    1.514290
     15          1           0        2.365807    1.472396   -0.323218
     16          1           0        1.834264    0.499968   -1.707999
     17          1           0       -1.117243    2.046791    1.582842
     18          1           0       -2.146544    2.102363    0.142452
     19          1           0       -2.361168    0.806173    1.331662
 ---------------------------------------------------------------------

 SCF Done:  E(RB3LYP) =  -423.200456709     A.U. after    1 cycles

 The electronic state is 1-A.
 Alpha  occ. eigenvalues --  -19.15166 -19.12847 -10.27045 -10.25550 -10.23668
 Alpha  occ. eigenvalues --  -10.21106 -10.20003 -10.19398 -10.18969  -1.05852
 Alpha  occ. eigenvalues --   -1.03526  -0.87054  -0.75988  -0.73498  -0.70050
 Alpha  occ. eigenvalues --   -0.62443  -0.57548  -0.55392  -0.49624  -0.47663
 Alpha  occ. eigenvalues --   -0.46032  -0.44363  -0.42794  -0.42455  -0.41110
 Alpha  occ. eigenvalues --   -0.40312  -0.40064  -0.38424  -0.37147  -0.36180
 Alpha  occ. eigenvalues --   -0.32702  -0.28820  -0.25908  -0.23237
 Alpha virt. eigenvalues --   -0.01714   0.08267   0.08399   0.10877   0.12951
 Alpha virt. eigenvalues --    0.13593   0.14009   0.14450   0.15475   0.16484
 Alpha virt. eigenvalues --    0.17230   0.18533   0.19326   0.19877   0.21971

 Mulliken charges:
               1
     1  C   -0.423725
     2  C   -0.082413
     3  C   -0.261679
     4  C    0.392165
     5  O   -0.325050
     6  C   -0.207331
     7  O   -0.302173
     8  C    0.429507
     9  C   -0.467876
    10  H    0.122608
    11  H    0.128964
    12  H    0.131216
    13  H    0.100198
    14  H    0.109576
    15  H    0.137572
    16  H    0.127110
    17  H    0.131661
    18  H    0.135458
    19  H    0.124212
 Sum of Mulliken charges =   0.00000

 Dipole moment (field-independent basis, Debye):
    X=             -2.7065    Y=              0.3365    Z=             -0.3356  Tot=              2.7479
 Quadrupole moment (field-independent basis, Debye-Ang):
   XX=            -56.7253   YY=            -56.0707   ZZ=            -51.6264
   XY=              5.4074   XZ=             -3.4476   YZ=              2.6043

  Exact polarizability:  92.150   0.778  73.821   0.264  -0.593  65.074
 Approx polarizability: 127.904  -5.545 108.640   5.664  -5.182 100.694

                      1                      2                      3
                      A                      A                      A
 Frequencies --    108.8854               142.4470               175.4176
 Red. masses --      3.6757                 2.6994                 1.1177
 Frc consts  --      0.0257                 0.0323                 0.0203
 IR Inten    --      5.9508                 1.6350                 0.0951

                      4                      5                      6
                      A                      A                      A
 Frequencies --    180.1597               226.9931               249.7977
 Red. masses --      1.2995                 1.7431                 2.8918
 Frc consts  --      0.0249                 0.0529                 0.1063
 IR Inten    --      0.4346                 0.2098                 2.9127

                      7                      8                      9
                      A                      A                      A
 Frequencies --    309.1552               402.7501               437.3782
 Red. masses --      2.8094                 3.1860                 3.4054
 Frc consts  --      0.1582                 0.3045                 0.3838
 IR Inten    --      0.6253                 2.7443                 2.4229

                     10                     11                     12
                      A                      A                      A
 Frequencies --    474.9999               537.2388               621.8944
 Red. masses --      4.1124                 3.2062                 4.3230
 Frc consts  --      0.5467                 0.5452                 0.9851
 IR Inten    --     13.4719                 3.2938                 1.3003

                     13                     14                     15
                      A                      A                      A
 Frequencies --    645.9927               697.9106               806.0846
 Red. masses --      4.5758                 4.2816                 2.4662
 Frc consts  --      1.1250                 1.2287                 0.9442
 IR Inten    --      2.8476                 3.8721                17.6639

                     16                     17                     18
                      A                      A                      A
 Frequencies --    849.0857               891.4925               929.6597
 Red. masses --      3.3404                 2.4249                 1.5844
 Frc consts  --      1.4189                 1.1355                 0.8068
 IR Inten    --      1.6823                32.0853                 3.9865

                     19                     20                     21
                      A                      A                      A
 Frequencies --    946.7346              1012.7334              1023.6202
 Red. masses --      1.4781                 2.0238                 1.3033
 Frc consts  --      0.7806                 1.2230                 0.8046
 IR Inten    --      4.2204                 3.1765                 4.6720

                     22                     23                     24
                      A                      A                      A
 Frequencies --   1080.8416              1090.2022              1100.4167
 Red. masses --      2.4361                 3.1278                 2.3796
 Frc consts  --      1.6768                 2.1903                 1.6977
 IR Inten    --     61.1770                 8.2579                 8.6960

                     25                     26                     27
                      A                      A                      A
 Frequencies --   1118.8599              1125.1120              1182.5039
 Red. masses --      2.0246                 1.8764                 2.0641
 Frc consts  --      1.4933                 1.3995                 1.7006
 IR Inten    --     52.5499                17.4492                 5.4698

                     28                     29                     30
                      A                      A                      A
 Frequencies --   1203.1629              1216.1214              1251.1386
 Red. masses --      1.1399                 1.7349                 3.0196
 Frc consts  --      0.9722                 1.5118                 2.7849
 IR Inten    --      0.2222                13.9051               132.2191

                     31                     32                     33
                      A                      A                      A
 Frequencies --   1337.5126              1349.2715              1413.2441
 Red. masses --      1.4059                 1.5932                 1.3460
 Frc consts  --      1.4819                 1.7089                 1.5839
 IR Inten    --      1.8144                10.8359                 0.8625

                     34                     35                     36
                      A                      A                      A
 Frequencies --   1422.6921              1445.8492              1477.5982
 Red. masses --      1.2432                 2.9391                 1.0521
 Frc consts  --      1.4826                 3.6200                 1.3534
 IR Inten    --      7.3183                18.0057                 3.8850

                     37                     38                     39
                      A                      A                      A
 Frequencies --   1488.2440              1492.5400              1495.2116
 Red. masses --      1.0717                 1.0522                 1.0654
 Frc consts  --      1.3985                 1.3810                 1.4033
 IR Inten    --      4.1072                 2.0894                 5.5703

                     40                     41                     42
                      A                      A                      A
 Frequencies --   1510.4311              1839.4112              3007.1134
 Red. masses --      1.1508                12.5000                 1.0657
 Frc consts  --      1.5468                24.9184                 5.6779
 IR Inten    --     10.2642               296.8778                31.1485

                     43                     44                     45
                      A                      A                      A
 Frequencies --   3034.8272              3045.9414              3067.8654
 Red. masses --      1.0356                 1.0369                 1.0964
 Frc consts  --      5.6196                 5.6680                 6.0796
 IR Inten    --     26.7903                19.8600                16.2044

                     46                     47                     48
                      A                      A                      A
 Frequencies --   3097.3245              3107.5301              3109.6749
 Red. masses --      1.1015                 1.0989                 1.1009
 Frc consts  --      6.2259                 6.2523                 6.2720
 IR Inten    --     17.3532                 7.6563                19.1714

                     49                     50                     51
                      A                      A                      A
 Frequencies --   3134.5519              3137.7696              3197.7342
 Red. masses --      1.0936                 1.0948                 1.0917
 Frc consts  --      6.3311                 6.3510                 6.5771
 IR Inten    --     12.8983                19.5136                 2.1341

 - Thermochemistry -
 -------------------
 Temperature   298.150 Kelvin.  Pressure   1.00000 Atm.
 Atom     1 has atomic number  6 and mass  12.00000

 Molecular mass:   126.06808 amu.
 Principal axes and moments of inertia in atomic units:
                           1         2         3
     Eigenvalues --   717.197421252.220831613.81961
           X            0.99818   0.05638  -0.02159
           Y           -0.05539   0.99749   0.04419
           Z            0.02403  -0.04291   0.99879
 This molecule is an asymmetric top.
 Rotational symmetry number  1.
 Warning -- assumption of classical behavior for rotation
           may cause significant error
 Rotational temperatures (Kelvin)      0.12077     0.06917     0.05367
 Rotational constants (GHZ):           2.51638     1.44123     1.11830
 Zero-point vibrational energy     414213.7 (Joules/Mol)
                                   98.99946 (Kcal/Mol)
 Warning -- explicit consideration of  11 degrees of freedom as
           vibrations may cause significant error
 Vibrational temperatures:    156.66   204.95   252.39   259.21   326.59
          (Kelvin)            359.40   444.80   579.47   629.29   683.42
                              772.97   894.77   929.44  1004.14  1159.77
                             1221.64  1282.66  1337.57  1362.14  1457.10
                             1472.76  1555.09  1568.56  1583.25  1609.79
                             1618.78  1701.36  1731.08  1749.73  1800.11
                             1924.38  1941.30  2033.34  2046.93  2080.25
                             2125.93  2141.25  2147.43  2151.27  2173.17
                             2646.50  4326.56  4366.43  4382.42  4413.97
                             4456.35  4471.04  4474.12  4509.92  4514.54
                             4600.82

 Zero-point correction=                           0.157766 (Hartree/Particle)
 Thermal correction to Energy=                    0.166614
 Thermal correction to Enthalpy=                  0.167558
 Thermal correction to Gibbs Free Energy=         0.124477
 Sum of electronic and zero-point Energies=           -423.042691
 Sum of electronic and thermal Energies=              -423.033843
 Sum of electronic and thermal Enthalpies=            -423.032899
 Sum of electronic and thermal Free Energies=         -423.075980

                     E (Thermal)             CV                S
                      KCal/Mol        Cal/Mol-Kelvin    Cal/Mol-Kelvin
 Total                  104.552             33.325             90.671
 Electronic               0.000              0.000              0.000
 Translational            0.889              2.981             40.409
 Rotational               0.889              2.981             28.762
 Vibrational            102.774             27.363             21.501
 Vibration     1          0.606              1.942              3.289
 Vibration     2          0.616              1.911              2.771
 Vibration     3          0.627              1.873              2.377
 Vibration     4          0.629              1.867              2.327
 Vibration     5          0.651              1.800              1.903
 Vibration     6          0.663              1.763              1.732
 Vibration     7          0.699              1.656              1.367
 Vibration     8          0.768              1.464              0.953
 Vibration     9          0.798              1.389              0.835
 Vibration    10          0.832              1.306              0.724
 Vibration    11          0.892              1.168              0.571

 Normal termination of Gaussian 09 at Tue Jan 28 00:27:29 2020.
