 Gaussian 09, Revision D.01,
 Gaussian 09:  ES64L-G09RevD.01 24-Apr-2013

 -----------------------------
 # b3lyp 6-31G(2df,p) opt Freq
 -----------------------------

 -----
 titel
 -----
 Symbolic Z-matrix:
 Charge =  0 Multiplicity = 1

 SCF Done:  E(RB3LYP) =  -423.192114521     A.U. after   14 cycles
 Optimization completed.
    -- Stationary point found.
 Normal termination of Gaussian 09 at Mon Jan 27 13:05:47 2020.

 ----------------------------------------------------------------------
 #N Geom=AllCheck Guess=TCheck SCRF=Check GenChk RB3LYP/6-31G(2df,p) Fr
 eq
 ----------------------------------------------------------------------

 Structure from the checkpoint file:  "/scratch/puck/g09_1b0e2c86-591e-43a1-aa49-edef945850c0/Gau-157874.chk"
 -----
 titel
 -----
 Charge =  0 Multiplicity = 1

                         Standard orientation:
 ---------------------------------------------------------------------
 Center     Atomic      Atomic             Coordinates (Angstroms)
 Number     Number       Type             X           Y           Z
 ---------------------------------------------------------------------
      1          8           0        0.700217    2.116490   -0.109565
      2          6           0        0.925856    0.936315   -0.124961
      3          6           0        2.237295    0.235336    0.231667
      4          6           0        1.802504   -1.225385    0.363937
      5          8           0        0.683343   -1.373529   -0.515141
      6          6           0       -0.074973   -0.169472   -0.509911
      7          6           0       -1.259929   -0.210410    0.431752
      8          6           0       -2.435272    0.695933    0.172154
      9          6           0       -2.569206   -0.790454   -0.039199
     10          1           0        2.931302    0.370888   -0.606129
     11          1           0        2.692608    0.671788    1.122686
     12          1           0        2.560439   -1.946312    0.050265
     13          1           0        1.517398   -1.458393    1.401352
     14          1           0       -0.432758    0.008197   -1.532191
     15          1           0       -0.999293   -0.381248    1.472939
     16          1           0       -2.928305    1.147100    1.025316
     17          1           0       -2.392389    1.337045   -0.701240
     18          1           0       -3.156192   -1.363118    0.669836
     19          1           0       -2.618931   -1.160817   -1.057826
 ---------------------------------------------------------------------

 SCF Done:  E(RB3LYP) =  -423.192114521     A.U. after    1 cycles

 The electronic state is 1-A.
 Alpha  occ. eigenvalues --  -19.14514 -19.13763 -10.27281 -10.23945 -10.23925
 Alpha  occ. eigenvalues --  -10.19796 -10.19643 -10.18763 -10.18737  -1.05454
 Alpha  occ. eigenvalues --   -1.03660  -0.86124  -0.77757  -0.73759  -0.63238
 Alpha  occ. eigenvalues --   -0.60202  -0.58127  -0.55703  -0.50684  -0.49114
 Alpha  occ. eigenvalues --   -0.47243  -0.46859  -0.43404  -0.42015  -0.41055
 Alpha  occ. eigenvalues --   -0.39126  -0.38477  -0.36541  -0.34993  -0.34064
 Alpha  occ. eigenvalues --   -0.30224  -0.29960  -0.26087  -0.23786
 Alpha virt. eigenvalues --   -0.02439   0.08199   0.10051   0.10573   0.11825
 Alpha virt. eigenvalues --    0.13337   0.14155   0.14765   0.15083   0.15900
 Alpha virt. eigenvalues --    0.17294   0.19250   0.20331   0.22508   0.23877

 Mulliken charges:
               1
     1  O   -0.302431
     2  C    0.373000
     3  C   -0.338423
     4  C   -0.094837
     5  O   -0.262897
     6  C   -0.013381
     7  C    0.019785
     8  C   -0.253535
     9  C   -0.279824
    10  H    0.141658
    11  H    0.134442
    12  H    0.118066
    13  H    0.100663
    14  H    0.102170
    15  H    0.083570
    16  H    0.115865
    17  H    0.123797
    18  H    0.114900
    19  H    0.117413
 Sum of Mulliken charges =   0.00000

 Dipole moment (field-independent basis, Debye):
    X=              0.6308    Y=             -1.3385    Z=              0.7609  Tot=              1.6639
 Quadrupole moment (field-independent basis, Debye-Ang):
   XX=            -47.4823   YY=            -61.9841   ZZ=            -50.2969
   XY=             -1.6455   XZ=              0.3598   YZ=             -1.4618

  Exact polarizability:  89.790  -2.210  74.751   2.253  -0.912  62.459
 Approx polarizability: 111.975  -4.821 116.244   3.678   0.236  96.860

                      1                      2                      3
                      A                      A                      A
 Frequencies --     62.2120                63.7881               145.6820
 Red. masses --      3.5446                 3.1294                 2.5967
 Frc consts  --      0.0081                 0.0075                 0.0325
 IR Inten    --      5.9054                 0.9430                 0.8638

                      4                      5                      6
                      A                      A                      A
 Frequencies --    167.2034               282.1160               300.2752
 Red. masses --      2.4867                 2.8766                 4.1696
 Frc consts  --      0.0410                 0.1349                 0.2215
 IR Inten    --      0.5897                 3.7715                 5.1381

                      7                      8                      9
                      A                      A                      A
 Frequencies --    410.6749               486.7403               541.4188
 Red. masses --      4.9053                 2.7332                 2.6202
 Frc consts  --      0.4874                 0.3815                 0.4525
 IR Inten    --      2.4726                 7.8467                 8.3127

                     10                     11                     12
                      A                      A                      A
 Frequencies --    634.3694               662.2261               760.7207
 Red. masses --      5.6368                 3.7881                 1.1687
 Frc consts  --      1.3365                 0.9788                 0.3985
 IR Inten    --      1.1380                 6.1904                 1.2346

                     13                     14                     15
                      A                      A                      A
 Frequencies --    816.5859               818.2365               842.5237
 Red. masses --      1.5930                 1.7312                 1.9441
 Frc consts  --      0.6259                 0.6829                 0.8131
 IR Inten    --      4.5747                 5.9036                 5.1615

                     16                     17                     18
                      A                      A                      A
 Frequencies --    884.1301               925.4008               949.5271
 Red. masses --      2.2342                 3.7763                 2.6620
 Frc consts  --      1.0290                 1.9054                 1.4141
 IR Inten    --      8.6394                16.2613                 1.2614

                     19                     20                     21
                      A                      A                      A
 Frequencies --    969.9668               992.7154              1041.8492
 Red. masses --      2.3254                 2.2097                 1.7660
 Frc consts  --      1.2890                 1.2830                 1.1294
 IR Inten    --     16.6538                14.1422                 0.4462

                     22                     23                     24
                      A                      A                      A
 Frequencies --   1060.1191              1077.9801              1088.3453
 Red. masses --      1.4327                 1.3718                 4.7089
 Frc consts  --      0.9487                 0.9392                 3.2863
 IR Inten    --      0.8542                 7.9471                82.0913

                     25                     26                     27
                      A                      A                      A
 Frequencies --   1128.8772              1149.9166              1175.0585
 Red. masses --      1.1528                 2.9189                 2.4846
 Frc consts  --      0.8655                 2.2740                 2.0213
 IR Inten    --      0.1258               102.4759                21.9075

                     28                     29                     30
                      A                      A                      A
 Frequencies --   1193.6844              1205.9376              1226.5441
 Red. masses --      1.4078                 1.4702                 1.8848
 Frc consts  --      1.1819                 1.2597                 1.6707
 IR Inten    --      1.0099                16.0504                 0.3378

                     31                     32                     33
                      A                      A                      A
 Frequencies --   1238.6152              1263.3960              1286.4593
 Red. masses --      1.3746                 1.5403                 1.2952
 Frc consts  --      1.2425                 1.4485                 1.2629
 IR Inten    --      9.5622                 4.0214                 1.0611

                     34                     35                     36
                      A                      A                      A
 Frequencies --   1323.0775              1387.2361              1414.2184
 Red. masses --      1.2412                 1.3427                 1.5434
 Frc consts  --      1.2801                 1.5224                 1.8187
 IR Inten    --      2.8603                 8.0349                 5.9679

                     37                     38                     39
                      A                      A                      A
 Frequencies --   1448.1573              1472.3397              1505.7152
 Red. masses --      1.0951                 1.0858                 1.3555
 Frc consts  --      1.3532                 1.3868                 1.8107
 IR Inten    --      8.9232                 1.7893                 0.7842

                     40                     41                     42
                      A                      A                      A
 Frequencies --   1523.1874              1856.1100              2986.9175
 Red. masses --      1.0934                12.8323                 1.0721
 Frc consts  --      1.4947                26.0474                 5.6355
 IR Inten    --      0.5536               166.0865                57.5213

                     43                     44                     45
                      A                      A                      A
 Frequencies --   3029.4646              3051.0951              3102.1203
 Red. masses --      1.0838                 1.0656                 1.0925
 Frc consts  --      5.8602                 5.8444                 6.1943
 IR Inten    --     14.1806                 8.2152                29.8753

                     46                     47                     48
                      A                      A                      A
 Frequencies --   3122.7277              3134.5005              3139.3194
 Red. masses --      1.0981                 1.0535                 1.0743
 Frc consts  --      6.3092                 6.0983                 6.2381
 IR Inten    --      7.1990                16.7785                17.0130

                     49                     50                     51
                      A                      A                      A
 Frequencies --   3143.8014              3213.9412              3229.1773
 Red. masses --      1.0698                 1.1178                 1.1154
 Frc consts  --      6.2299                 6.8028                 6.8526
 IR Inten    --      3.9716                 1.1000                15.1235

 - Thermochemistry -
 -------------------
 Temperature   298.150 Kelvin.  Pressure   1.00000 Atm.
 Atom     1 has atomic number  8 and mass  15.99491

 Molecular mass:   126.06808 amu.
 Principal axes and moments of inertia in atomic units:
                           1         2         3
     Eigenvalues --   650.029161340.696731820.46376
           X            0.99986  -0.01564   0.00611
           Y            0.01572   0.99980  -0.01247
           Z           -0.00592   0.01257   0.99990
 This molecule is an asymmetric top.
 Rotational symmetry number  1.
 Warning -- assumption of classical behavior for rotation
           may cause significant error
 Rotational temperatures (Kelvin)      0.13325     0.06460     0.04758
 Rotational constants (GHZ):           2.77640     1.34612     0.99136
 Zero-point vibrational energy     418312.6 (Joules/Mol)
                                   99.97911 (Kcal/Mol)
 Warning -- explicit consideration of   9 degrees of freedom as
           vibrations may cause significant error
 Vibrational temperatures:     89.51    91.78   209.60   240.57   405.90
          (Kelvin)            432.03   590.87   700.31   778.98   912.71
                              952.79  1094.51  1174.88  1177.26  1212.20
                             1272.06  1331.44  1366.16  1395.56  1428.29
                             1498.99  1525.27  1550.97  1565.88  1624.20
                             1654.47  1690.65  1717.44  1735.07  1764.72
                             1782.09  1817.74  1850.93  1903.61  1995.92
                             2034.74  2083.57  2118.37  2166.39  2191.52
                             2670.52  4297.50  4358.72  4389.84  4463.25
                             4492.90  4509.84  4516.77  4523.22  4624.14
                             4646.06

 Zero-point correction=                           0.159327 (Hartree/Particle)
 Thermal correction to Energy=                    0.167747
 Thermal correction to Enthalpy=                  0.168691
 Thermal correction to Gibbs Free Energy=         0.125357
 Sum of electronic and zero-point Energies=           -423.032788
 Sum of electronic and thermal Energies=              -423.024368
 Sum of electronic and thermal Enthalpies=            -423.023424
 Sum of electronic and thermal Free Energies=         -423.066757

                     E (Thermal)             CV                S
                      KCal/Mol        Cal/Mol-Kelvin    Cal/Mol-Kelvin
 Total                  105.263             31.333             91.203
 Electronic               0.000              0.000              0.000
 Translational            0.889              2.981             40.409
 Rotational               0.889              2.981             28.852
 Vibrational            103.485             25.371             21.943
 Vibration     1          0.597              1.972              4.386
 Vibration     2          0.597              1.972              4.336
 Vibration     3          0.617              1.907              2.728
 Vibration     4          0.624              1.883              2.467
 Vibration     5          0.681              1.707              1.521
 Vibration     6          0.693              1.673              1.415
 Vibration     7          0.775              1.447              0.924
 Vibration     8          0.843              1.279              0.692
 Vibration     9          0.897              1.158              0.562

 Normal termination of Gaussian 09 at Mon Jan 27 13:50:12 2020.
