 Gaussian 09, Revision D.01,
 Gaussian 09:  ES64L-G09RevD.01 24-Apr-2013

 -----------------------------
 # b3lyp 6-31G(2df,p) opt Freq
 -----------------------------

 -----
 titel
 -----
 Symbolic Z-matrix:
 Charge =  0 Multiplicity = 1

 SCF Done:  E(RB3LYP) =  -423.199108733     A.U. after   13 cycles
 Optimization completed.
    -- Stationary point found.
 Normal termination of Gaussian 09 at Mon Jan 27 22:02:37 2020.

 ----------------------------------------------------------------------
 #N Geom=AllCheck Guess=TCheck SCRF=Check GenChk RB3LYP/6-31G(2df,p) Fr
 eq
 ----------------------------------------------------------------------

 Structure from the checkpoint file:  "/scratch/puck/g09_e6347abe-3945-41a2-917f-b85bad556e6f/Gau-182165.chk"
 -----
 titel
 -----
 Charge =  0 Multiplicity = 1

                         Standard orientation:
 ---------------------------------------------------------------------
 Center     Atomic      Atomic             Coordinates (Angstroms)
 Number     Number       Type             X           Y           Z
 ---------------------------------------------------------------------
      1          6           0       -2.607752    0.182341   -0.409867
      2          6           0       -1.239619   -0.292752   -0.057480
      3          6           0       -0.488586   -1.261488   -0.578992
      4          6           0        0.874733   -1.207436    0.096449
      5          6           0        1.822298   -0.233903   -0.632797
      6          6           0        1.101491    1.123895   -0.799987
      7          8           0        0.340598    1.513550    0.349788
      8          6           0       -0.344590    0.427561    0.957980
      9          8           0        0.575498   -0.564594    1.348054
     10          1           0       -3.046777   -0.406888   -1.219216
     11          1           0       -3.281560    0.131644    0.454696
     12          1           0       -2.580967    1.233225   -0.723477
     13          1           0       -0.737462   -1.920293   -1.401623
     14          1           0        1.334777   -2.177650    0.298237
     15          1           0        2.722670   -0.122520   -0.021038
     16          1           0        2.123192   -0.606480   -1.618714
     17          1           0        1.820998    1.930062   -0.965360
     18          1           0        0.444870    1.077137   -1.678890
     19          1           0       -0.836358    0.840804    1.840809
 ---------------------------------------------------------------------

 SCF Done:  E(RB3LYP) =  -423.199108733     A.U. after    1 cycles

 The electronic state is 1-A.
 Alpha  occ. eigenvalues --  -19.13707 -19.13497 -10.27124 -10.23589 -10.22671
 Alpha  occ. eigenvalues --  -10.18981 -10.18871 -10.18509 -10.18150  -1.07184
 Alpha  occ. eigenvalues --   -0.99618  -0.80564  -0.78704  -0.70839  -0.66580
 Alpha  occ. eigenvalues --   -0.65725  -0.55820  -0.54202  -0.51456  -0.48195
 Alpha  occ. eigenvalues --   -0.45232  -0.44872  -0.42936  -0.41648  -0.40539
 Alpha  occ. eigenvalues --   -0.40123  -0.38694  -0.37958  -0.34259  -0.33417
 Alpha  occ. eigenvalues --   -0.30903  -0.26373  -0.25092  -0.24541
 Alpha virt. eigenvalues --    0.00875   0.09750   0.10878   0.12474   0.13090
 Alpha virt. eigenvalues --    0.13745   0.14898   0.15356   0.16465   0.16884
 Alpha virt. eigenvalues --    0.17809   0.18102   0.20187   0.21012   0.22220

 Mulliken charges:
               1
     1  C   -0.507698
     2  C    0.328692
     3  C   -0.219765
     4  C    0.032215
     5  C   -0.218567
     6  C   -0.072261
     7  O   -0.267818
     8  C    0.083727
     9  O   -0.240928
    10  H    0.126486
    11  H    0.131956
    12  H    0.141401
    13  H    0.100474
    14  H    0.080940
    15  H    0.114477
    16  H    0.096172
    17  H    0.109345
    18  H    0.096482
    19  H    0.084671
 Sum of Mulliken charges =   0.00000

 Dipole moment (field-independent basis, Debye):
    X=             -0.5782    Y=             -0.7929    Z=             -1.9838  Tot=              2.2133
 Quadrupole moment (field-independent basis, Debye-Ang):
   XX=            -49.1949   YY=            -54.3362   ZZ=            -53.8101
   XY=             -1.0625   XZ=             -2.3434   YZ=              1.1940

  Exact polarizability:  85.773  -5.763  72.805  -3.216   4.508  66.499
 Approx polarizability: 115.450 -13.708 115.383  -6.590  11.645 104.551

                      1                      2                      3
                      A                      A                      A
 Frequencies --    144.8396               171.2909               232.4423
 Red. masses --      2.8380                 1.0525                 2.5303
 Frc consts  --      0.0351                 0.0182                 0.0805
 IR Inten    --      1.0942                 0.1479                 1.5066

                      4                      5                      6
                      A                      A                      A
 Frequencies --    285.0486               335.0413               394.6994
 Red. masses --      2.3919                 3.1825                 2.4191
 Frc consts  --      0.1145                 0.2105                 0.2220
 IR Inten    --      2.1912                 1.7613                 0.4324

                      7                      8                      9
                      A                      A                      A
 Frequencies --    466.4940               507.8313               594.2863
 Red. masses --      5.2244                 4.5076                 4.1829
 Frc consts  --      0.6699                 0.6849                 0.8704
 IR Inten    --      9.4895                 4.4712                 1.8783

                     10                     11                     12
                      A                      A                      A
 Frequencies --    647.7855               688.1158               790.6819
 Red. masses --      2.9889                 3.9854                 2.3148
 Frc consts  --      0.7390                 1.1119                 0.8526
 IR Inten    --      2.9298                 2.2634                 4.9117

                     13                     14                     15
                      A                      A                      A
 Frequencies --    827.2998               838.5815               872.9283
 Red. masses --      1.8335                 2.7498                 3.1198
 Frc consts  --      0.7394                 1.1393                 1.4007
 IR Inten    --      2.6102                13.5120                 3.9553

                     16                     17                     18
                      A                      A                      A
 Frequencies --    905.3096               931.5138               936.8268
 Red. masses --      2.8412                 2.2941                 2.2934
 Frc consts  --      1.3720                 1.1729                 1.1859
 IR Inten    --     13.4872                26.2641                22.5720

                     19                     20                     21
                      A                      A                      A
 Frequencies --    974.3065              1005.9631              1024.7200
 Red. masses --      4.4163                 1.6342                 2.3864
 Frc consts  --      2.4700                 0.9743                 1.4764
 IR Inten    --    116.4643                14.8943                 1.9997

                     22                     23                     24
                      A                      A                      A
 Frequencies --   1056.6331              1072.1952              1080.5990
 Red. masses --      2.1315                 2.0620                 1.9922
 Frc consts  --      1.4021                 1.3966                 1.3706
 IR Inten    --      5.4519                11.1699                10.8442

                     25                     26                     27
                      A                      A                      A
 Frequencies --   1122.1613              1197.8019              1222.5263
 Red. masses --      5.3028                 2.2771                 1.2299
 Frc consts  --      3.9343                 1.9249                 1.0830
 IR Inten    --     98.0761                 6.5043                 4.9840

                     28                     29                     30
                      A                      A                      A
 Frequencies --   1259.1664              1268.7139              1308.1122
 Red. masses --      1.4689                 1.3982                 1.3096
 Frc consts  --      1.3722                 1.3260                 1.3203
 IR Inten    --     20.7248                 2.6084                 1.8803

                     31                     32                     33
                      A                      A                      A
 Frequencies --   1324.6848              1352.8684              1362.3229
 Red. masses --      1.6919                 1.4723                 1.4405
 Frc consts  --      1.7492                 1.5877                 1.5752
 IR Inten    --      2.4496                11.6670                 9.8490

                     34                     35                     36
                      A                      A                      A
 Frequencies --   1374.6947              1411.6960              1415.1604
 Red. masses --      1.2679                 1.2749                 1.2869
 Frc consts  --      1.4118                 1.4970                 1.5185
 IR Inten    --      3.3014                 2.1971                 9.3536

                     37                     38                     39
                      A                      A                      A
 Frequencies --   1470.9630              1477.5456              1488.3522
 Red. masses --      1.0922                 1.0447                 1.0594
 Frc consts  --      1.3924                 1.3438                 1.3827
 IR Inten    --      1.5090                 6.0962                 8.6299

                     40                     41                     42
                      A                      A                      A
 Frequencies --   1505.3445              1716.8948              3013.4962
 Red. masses --      1.0829                 7.3683                 1.0688
 Frc consts  --      1.4458                12.7968                 5.7186
 IR Inten    --      2.5262                 5.7712                41.6850

                     43                     44                     45
                      A                      A                      A
 Frequencies --   3020.7967              3041.0891              3069.3036
 Red. masses --      1.0377                 1.0603                 1.0982
 Frc consts  --      5.5791                 5.7774                 6.0953
 IR Inten    --     23.7574                25.9508                13.7695

                     46                     47                     48
                      A                      A                      A
 Frequencies --   3084.4757              3085.3039              3097.4355
 Red. masses --      1.0903                 1.0937                 1.1018
 Frc consts  --      6.1117                 6.1339                 6.2280
 IR Inten    --     40.6186                38.3424                37.0134

                     49                     50                     51
                      A                      A                      A
 Frequencies --   3103.0148              3113.6056              3210.8049
 Red. masses --      1.0910                 1.0997                 1.0960
 Frc consts  --      6.1891                 6.2816                 6.6574
 IR Inten    --     34.2798                18.5592                 6.9705

 - Thermochemistry -
 -------------------
 Temperature   298.150 Kelvin.  Pressure   1.00000 Atm.
 Atom     1 has atomic number  6 and mass  12.00000

 Molecular mass:   126.06808 amu.
 Principal axes and moments of inertia in atomic units:
                           1         2         3
     Eigenvalues --   673.452341054.394271194.90187
           X            0.99971  -0.02015  -0.01335
           Y            0.02035   0.99968   0.01499
           Z            0.01305  -0.01526   0.99980
 This molecule is an asymmetric top.
 Rotational symmetry number  1.
 Warning -- assumption of classical behavior for rotation
           may cause significant error
 Rotational temperatures (Kelvin)      0.12861     0.08215     0.07249
 Rotational constants (GHZ):           2.67984     1.71164     1.51037
 Zero-point vibrational energy     424098.7 (Joules/Mol)
                                  101.36203 (Kcal/Mol)
 Warning -- explicit consideration of   9 degrees of freedom as
           vibrations may cause significant error
 Vibrational temperatures:    208.39   246.45   334.43   410.12   482.05
          (Kelvin)            567.88   671.18   730.66   855.04   932.02
                              990.04  1137.61  1190.30  1206.53  1255.95
                             1302.54  1340.24  1347.88  1401.81  1447.35
                             1474.34  1520.26  1542.65  1554.74  1614.54
                             1723.37  1758.94  1811.66  1825.39  1882.08
                             1905.92  1946.47  1960.08  1977.88  2031.11
                             2036.10  2116.39  2125.86  2141.40  2165.85
                             2470.23  4335.74  4346.25  4375.44  4416.04
                             4437.87  4439.06  4456.51  4464.54  4479.78
                             4619.63

 Zero-point correction=                           0.161531 (Hartree/Particle)
 Thermal correction to Energy=                    0.168938
 Thermal correction to Enthalpy=                  0.169882
 Thermal correction to Gibbs Free Energy=         0.130004
 Sum of electronic and zero-point Energies=           -423.037578
 Sum of electronic and thermal Energies=              -423.030171
 Sum of electronic and thermal Enthalpies=            -423.029227
 Sum of electronic and thermal Free Energies=         -423.069105

                     E (Thermal)             CV                S
                      KCal/Mol        Cal/Mol-Kelvin    Cal/Mol-Kelvin
 Total                  106.010             29.751             83.930
 Electronic               0.000              0.000              0.000
 Translational            0.889              2.981             40.409
 Rotational               0.889              2.981             28.230
 Vibrational            104.233             23.789             15.291
 Vibration     1          0.616              1.908              2.739
 Vibration     2          0.626              1.878              2.421
 Vibration     3          0.653              1.791              1.860
 Vibration     4          0.683              1.701              1.503
 Vibration     5          0.716              1.606              1.236
 Vibration     6          0.762              1.482              0.982
 Vibration     7          0.824              1.324              0.747
 Vibration     8          0.863              1.233              0.639
 Vibration     9          0.952              1.044              0.460

 Optimization completed.
    -- Stationary point found.
 Normal termination of Gaussian 09 at Mon Jan 27 22:51:48 2020.
