 Gaussian 09, Revision D.01,
 Gaussian 09:  ES64L-G09RevD.01 24-Apr-2013

 -----------------------------
 # b3lyp 6-31G(2df,p) opt Freq
 -----------------------------

 -----
 titel
 -----
 Symbolic Z-matrix:
 Charge =  0 Multiplicity = 1

 SCF Done:  E(RB3LYP) =  -423.122027941     A.U. after   14 cycles
 Optimization completed.
    -- Stationary point found.
 Normal termination of Gaussian 09 at Mon Jan 27 16:25:15 2020.

 ----------------------------------------------------------------------
 #N Geom=AllCheck Guess=TCheck SCRF=Check GenChk RB3LYP/6-31G(2df,p) Fr
 eq
 ----------------------------------------------------------------------

 Structure from the checkpoint file:  "/scratch/puck/g09_f6d22acf-b33f-4531-ac4a-250a9ecd35c1/Gau-83436.chk"
 -----
 titel
 -----
 Charge =  0 Multiplicity = 1

                         Standard orientation:
 ---------------------------------------------------------------------
 Center     Atomic      Atomic             Coordinates (Angstroms)
 Number     Number       Type             X           Y           Z
 ---------------------------------------------------------------------
      1          6           0       -1.814240    1.558757   -0.074625
      2          6           0       -1.200416    0.175417   -0.136695
      3          6           0       -2.079037   -0.986728   -0.331567
      4          8           0       -1.544965   -0.685552    0.961718
      5          6           0        0.244568    0.129449   -0.593909
      6          6           0        1.013529   -1.222804   -0.373535
      7          6           0        2.009011   -0.466340    0.513566
      8          8           0        2.560940    0.608168   -0.258482
      9          6           0        1.278043    0.796093    0.346418
     10          1           0       -2.849222    1.504349    0.270853
     11          1           0       -1.261087    2.205217    0.614184
     12          1           0       -1.798783    2.032376   -1.062039
     13          1           0       -3.152403   -0.835242   -0.438146
     14          1           0       -1.692522   -1.891805   -0.797608
     15          1           0        0.306515    0.530933   -1.610977
     16          1           0        0.414234   -1.927804    0.205793
     17          1           0        1.433812   -1.708675   -1.256818
     18          1           0        2.603490   -0.837396    1.339911
     19          1           0        1.159423    1.644063    1.011038
 ---------------------------------------------------------------------

 SCF Done:  E(RB3LYP) =  -423.122027941     A.U. after    1 cycles

 The electronic state is 1-A.
 Alpha  occ. eigenvalues --  -19.15189 -19.14807 -10.24782 -10.23541 -10.23464
 Alpha  occ. eigenvalues --  -10.23342 -10.19915 -10.18776 -10.18680  -1.07589
 Alpha  occ. eigenvalues --   -1.07056  -0.81174  -0.75050  -0.67290  -0.66597
 Alpha  occ. eigenvalues --   -0.63115  -0.58922  -0.54327  -0.52738  -0.49435
 Alpha  occ. eigenvalues --   -0.46812  -0.44821  -0.42931  -0.42354  -0.40218
 Alpha  occ. eigenvalues --   -0.39961  -0.37639  -0.35146  -0.34619  -0.34349
 Alpha  occ. eigenvalues --   -0.29802  -0.28801  -0.27058  -0.25200
 Alpha virt. eigenvalues --    0.08403   0.08992   0.09783   0.10636   0.11272
 Alpha virt. eigenvalues --    0.12557   0.13152   0.14498   0.14806   0.15678
 Alpha virt. eigenvalues --    0.16085   0.18090   0.19258   0.20039   0.21433

 Mulliken charges:
               1
     1  C   -0.462884
     2  C    0.384687
     3  C   -0.229567
     4  O   -0.268803
     5  C   -0.089799
     6  C   -0.290691
     7  C    0.042925
     8  O   -0.251389
     9  C    0.023926
    10  H    0.128740
    11  H    0.128449
    12  H    0.125378
    13  H    0.113665
    14  H    0.113738
    15  H    0.088405
    16  H    0.128490
    17  H    0.104479
    18  H    0.104632
    19  H    0.105620
 Sum of Mulliken charges =   0.00000

 Dipole moment (field-independent basis, Debye):
    X=             -1.5476    Y=             -0.0922    Z=             -0.6573  Tot=              1.6840
 Quadrupole moment (field-independent basis, Debye-Ang):
   XX=            -56.4516   YY=            -50.7539   ZZ=            -54.0022
   XY=             -3.3514   XZ=              5.4433   YZ=              2.0535

  Exact polarizability:  84.086  -0.698  77.311   3.460   2.252  61.142
 Approx polarizability: 112.188   2.432 114.987   1.630  -0.430 100.079

                      1                      2                      3
                      A                      A                      A
 Frequencies --     77.2075               138.9395               181.3165
 Red. masses --      3.1872                 3.7575                 1.1023
 Frc consts  --      0.0112                 0.0427                 0.0214
 IR Inten    --      1.9897                 3.5497                 0.2921

                      4                      5                      6
                      A                      A                      A
 Frequencies --    187.7823               307.2367               346.1968
 Red. masses --      3.3249                 3.4534                 2.7102
 Frc consts  --      0.0691                 0.1921                 0.1914
 IR Inten    --      0.8571                 1.4890                 2.1393

                      7                      8                      9
                      A                      A                      A
 Frequencies --    377.7363               434.2907               459.7296
 Red. masses --      2.7710                 2.8278                 3.2579
 Frc consts  --      0.2330                 0.3142                 0.4057
 IR Inten    --      5.2113                 3.1162                 6.7003

                     10                     11                     12
                      A                      A                      A
 Frequencies --    521.1638               713.2198               758.5828
 Red. masses --      3.2695                 3.3042                 4.8229
 Frc consts  --      0.5232                 0.9903                 1.6352
 IR Inten    --      4.9609                 6.4053                 2.5655

                     13                     14                     15
                      A                      A                      A
 Frequencies --    824.5048               847.7881               856.0360
 Red. masses --      3.2121                 2.1112                 2.9914
 Frc consts  --      1.2866                 0.8940                 1.2915
 IR Inten    --     23.4442                10.4451                 4.3916

                     16                     17                     18
                      A                      A                      A
 Frequencies --    873.6944               918.0294               932.0305
 Red. masses --      2.0388                 1.6576                 2.0039
 Frc consts  --      0.9169                 0.8231                 1.0256
 IR Inten    --     21.6461                 6.2552                 5.5320

                     19                     20                     21
                      A                      A                      A
 Frequencies --    960.0309               989.0129               994.6446
 Red. masses --      3.0689                 2.2569                 1.9015
 Frc consts  --      1.6665                 1.3007                 1.1084
 IR Inten    --      7.2918                 5.7574                19.9523

                     22                     23                     24
                      A                      A                      A
 Frequencies --   1027.3858              1049.6949              1067.5102
 Red. masses --      1.6309                 2.1926                 1.5624
 Frc consts  --      1.0142                 1.4234                 1.0491
 IR Inten    --      0.6976                 5.5396                 3.1027

                     25                     26                     27
                      A                      A                      A
 Frequencies --   1104.6968              1137.4421              1164.4705
 Red. masses --      1.7747                 1.3372                 1.3658
 Frc consts  --      1.2760                 1.0193                 1.0912
 IR Inten    --     11.8160                 3.0901                 0.7004

                     28                     29                     30
                      A                      A                      A
 Frequencies --   1180.5890              1217.3225              1227.7882
 Red. masses --      1.3690                 1.3578                 1.5159
 Frc consts  --      1.1242                 1.1855                 1.3464
 IR Inten    --      1.3365                 2.5184                16.5425

                     31                     32                     33
                      A                      A                      A
 Frequencies --   1238.1424              1249.3484              1278.9201
 Red. masses --      1.3810                 1.6307                 1.6117
 Frc consts  --      1.2473                 1.4997                 1.5532
 IR Inten    --      5.9447                 8.9178                 9.8582

                     34                     35                     36
                      A                      A                      A
 Frequencies --   1350.5832              1387.7943              1398.4062
 Red. masses --      2.1157                 3.0177                 2.5411
 Frc consts  --      2.2737                 3.4243                 2.9278
 IR Inten    --      6.2865                29.6832                 0.9520

                     37                     38                     39
                      A                      A                      A
 Frequencies --   1418.0452              1461.3907              1483.8508
 Red. masses --      1.4378                 1.1249                 1.0553
 Frc consts  --      1.7034                 1.4155                 1.3690
 IR Inten    --      9.5576                 1.6690                 4.3448

                     40                     41                     42
                      A                      A                      A
 Frequencies --   1495.6047              1533.0162              3038.9104
 Red. masses --      1.0661                 1.3521                 1.0371
 Frc consts  --      1.4050                 1.8723                 5.6431
 IR Inten    --      2.6060                 4.1143                12.3090

                     43                     44                     45
                      A                      A                      A
 Frequencies --   3055.3680              3071.7601              3083.8692
 Red. masses --      1.0824                 1.0586                 1.0506
 Frc consts  --      5.9537                 5.8853                 5.8870
 IR Inten    --     23.0280                22.3859                25.4627

                     46                     47                     48
                      A                      A                      A
 Frequencies --   3102.7833              3125.9173              3136.5048
 Red. masses --      1.1003                 1.1014                 1.1076
 Frc consts  --      6.2413                 6.3407                 6.4199
 IR Inten    --     18.5025                16.6895                10.9762

                     49                     50                     51
                      A                      A                      A
 Frequencies --   3168.7253              3178.9413              3196.0985
 Red. masses --      1.1190                 1.0875                 1.1007
 Frc consts  --      6.6200                 6.4753                 6.6247
 IR Inten    --     23.7995                17.7349                19.4461

 - Thermochemistry -
 -------------------
 Temperature   298.150 Kelvin.  Pressure   1.00000 Atm.
 Atom     1 has atomic number  6 and mass  12.00000

 Molecular mass:   126.06808 amu.
 Principal axes and moments of inertia in atomic units:
                           1         2         3
     Eigenvalues --   522.012021452.498901708.25890
           X            0.99935  -0.03227   0.01578
           Y            0.03164   0.99877   0.03825
           Z           -0.01700  -0.03773   0.99914
 This molecule is an asymmetric top.
 Rotational symmetry number  1.
 Warning -- assumption of classical behavior for rotation
           may cause significant error
 Rotational temperatures (Kelvin)      0.16592     0.05963     0.05070
 Rotational constants (GHZ):           3.45728     1.24251     1.05648
 Zero-point vibrational energy     414685.8 (Joules/Mol)
                                   99.11229 (Kcal/Mol)
 Warning -- explicit consideration of  10 degrees of freedom as
           vibrations may cause significant error
 Vibrational temperatures:    111.08   199.90   260.87   270.18   442.04
          (Kelvin)            498.10   543.48   624.85   661.45   749.84
                             1026.16  1091.43  1186.28  1219.78  1231.64
                             1257.05  1320.84  1340.98  1381.27  1422.97
                             1431.07  1478.18  1510.27  1535.91  1589.41
                             1636.52  1675.41  1698.60  1751.45  1766.51
                             1781.41  1797.53  1840.08  1943.19  1996.72
                             2011.99  2040.25  2102.61  2134.93  2151.84
                             2205.67  4372.31  4395.99  4419.57  4436.99
                             4464.21  4497.49  4512.73  4559.08  4573.78
                             4598.47

 Zero-point correction=                           0.157945 (Hartree/Particle)
 Thermal correction to Energy=                    0.166216
 Thermal correction to Enthalpy=                  0.167160
 Thermal correction to Gibbs Free Energy=         0.124997
 Sum of electronic and zero-point Energies=           -422.964082
 Sum of electronic and thermal Energies=              -422.955812
 Sum of electronic and thermal Enthalpies=            -422.954868
 Sum of electronic and thermal Free Energies=         -422.997031

                     E (Thermal)             CV                S
                      KCal/Mol        Cal/Mol-Kelvin    Cal/Mol-Kelvin
 Total                  104.302             31.804             88.740
 Electronic               0.000              0.000              0.000
 Translational            0.889              2.981             40.409
 Rotational               0.889              2.981             28.651
 Vibrational            102.524             25.842             19.681
 Vibration     1          0.599              1.964              3.961
 Vibration     2          0.615              1.914              2.818
 Vibration     3          0.630              1.865              2.315
 Vibration     4          0.632              1.857              2.250
 Vibration     5          0.697              1.660              1.377
 Vibration     6          0.724              1.583              1.183
 Vibration     7          0.748              1.518              1.048
 Vibration     8          0.795              1.395              0.845
 Vibration     9          0.818              1.339              0.767
 Vibration    10          0.876              1.203              0.607

 Normal termination of Gaussian 09 at Mon Jan 27 17:05:49 2020.
