 Gaussian 09, Revision D.01,
 Gaussian 09:  ES64L-G09RevD.01 24-Apr-2013

 -----------------------------
 # b3lyp 6-31G(2df,p) opt Freq
 -----------------------------

 -----
 titel
 -----
 Symbolic Z-matrix:
 Charge =  0 Multiplicity = 1

 SCF Done:  E(RB3LYP) =  -423.129084722     A.U. after   14 cycles
 Optimization completed.
    -- Stationary point found.
 Normal termination of Gaussian 09 at Mon Jan 27 18:11:02 2020.

 ----------------------------------------------------------------------
 #N Geom=AllCheck Guess=TCheck SCRF=Check GenChk RB3LYP/6-31G(2df,p) Fr
 eq
 ----------------------------------------------------------------------

 Structure from the checkpoint file:  "/scratch/puck/g09_a6702344-070e-4ebe-b1d5-ece18a4bf1f1/Gau-181905.chk"
 -----
 titel
 -----
 Charge =  0 Multiplicity = 1

                         Standard orientation:
 ---------------------------------------------------------------------
 Center     Atomic      Atomic             Coordinates (Angstroms)
 Number     Number       Type             X           Y           Z
 ---------------------------------------------------------------------
      1          6           0       -1.533560    1.691185    0.000018
      2          6           0       -0.922981    0.326134    0.000008
      3          8           0       -1.821621   -0.857475   -0.000005
      4          6           0       -0.456854   -1.412869   -0.000019
      5          6           0       -0.047847   -0.387020    1.082464
      6          6           0        1.417181    0.020385    1.182545
      7          8           0        1.862183    0.664468    0.000008
      8          6           0        1.417180    0.020415   -1.182544
      9          6           0       -0.047849   -0.386986   -1.082473
     10          1           0       -2.156402    1.834716    0.888246
     11          1           0       -0.744153    2.448821   -0.000528
     12          1           0       -2.157242    1.834294   -0.887689
     13          1           0       -0.352480   -2.498518   -0.000035
     14          1           0       -0.539999   -0.532807    2.046609
     15          1           0        1.566165    0.743404    1.990859
     16          1           0        2.040911   -0.862027    1.410066
     17          1           0        1.566173    0.743450   -1.990842
     18          1           0        2.040905   -0.861997   -1.410084
     19          1           0       -0.540000   -0.532752   -2.046623
 ---------------------------------------------------------------------

 SCF Done:  E(RB3LYP) =  -423.129084722     A.U. after    1 cycles

 The electronic state is 1-A.
 Alpha  occ. eigenvalues --  -19.14207 -19.12647 -10.25003 -10.24147 -10.23141
 Alpha  occ. eigenvalues --  -10.23139 -10.19415 -10.19415 -10.18294  -1.05609
 Alpha  occ. eigenvalues --   -1.03237  -0.80087  -0.75987  -0.74333  -0.64148
 Alpha  occ. eigenvalues --   -0.63987  -0.61306  -0.50714  -0.49102  -0.48163
 Alpha  occ. eigenvalues --   -0.47643  -0.46771  -0.42460  -0.42456  -0.41788
 Alpha  occ. eigenvalues --   -0.39522  -0.37764  -0.35153  -0.34500  -0.31695
 Alpha  occ. eigenvalues --   -0.30724  -0.29202  -0.25474  -0.23266
 Alpha virt. eigenvalues --    0.07344   0.10323   0.11560   0.12484   0.12700
 Alpha virt. eigenvalues --    0.13562   0.13650   0.14826   0.15195   0.15961
 Alpha virt. eigenvalues --    0.16126   0.17337   0.18166   0.18656   0.20326

 Mulliken charges:
               1
     1  C   -0.525616
     2  C    0.420625
     3  O   -0.350699
     4  C    0.033324
     5  C   -0.074441
     6  C   -0.119853
     7  O   -0.249671
     8  C   -0.119853
     9  C   -0.074441
    10  H    0.132389
    11  H    0.138923
    12  H    0.132402
    13  H    0.087118
    14  H    0.079754
    15  H    0.113858
    16  H    0.091285
    17  H    0.113857
    18  H    0.091285
    19  H    0.079753
 Sum of Mulliken charges =   0.00000

 Dipole moment (field-independent basis, Debye):
    X=              0.8358    Y=             -0.0108    Z=              0.0000  Tot=              0.8358
 Quadrupole moment (field-independent basis, Debye-Ang):
   XX=            -60.2104   YY=            -51.7588   ZZ=            -49.4016
   XY=             -5.1941   XZ=              0.0000   YZ=             -0.0001

  Exact polarizability:  74.709  -3.418  73.636   0.000   0.000  75.374
 Approx polarizability: 108.263  -0.564 110.226   0.000   0.000 110.118

                      1                      2                      3
                      A                      A                      A
 Frequencies --    163.9760               194.4218               201.8048
 Red. masses --      4.0547                 1.4941                 1.3147
 Frc consts  --      0.0642                 0.0333                 0.0315
 IR Inten    --      4.1438                 0.5951                 0.1227

                      4                      5                      6
                      A                      A                      A
 Frequencies --    253.0294               326.0352               413.3293
 Red. masses --      2.1381                 2.3321                 2.5969
 Frc consts  --      0.0807                 0.1461                 0.2614
 IR Inten    --      4.9052                 0.6501                 3.0761

                      7                      8                      9
                      A                      A                      A
 Frequencies --    474.4193               474.6415               615.8847
 Red. masses --      7.7275                 5.3540                 5.1243
 Frc consts  --      1.0247                 0.7107                 1.1452
 IR Inten    --      0.1354                 4.2828                 0.8298

                     10                     11                     12
                      A                      A                      A
 Frequencies --    629.2793               724.7617               763.3736
 Red. masses --      3.1695                 4.2331                 4.1505
 Frc consts  --      0.7395                 1.3101                 1.4250
 IR Inten    --      0.4431                14.9759                12.0742

                     13                     14                     15
                      A                      A                      A
 Frequencies --    790.2510               865.9005               869.2400
 Red. masses --      2.7790                 2.2575                 3.7699
 Frc consts  --      1.0225                 0.9973                 1.6783
 IR Inten    --      0.2663                 0.0710                28.8876

                     16                     17                     18
                      A                      A                      A
 Frequencies --    882.0125               952.5888               985.8095
 Red. masses --      2.8361                 3.3763                 2.2960
 Frc consts  --      1.2999                 1.8051                 1.3146
 IR Inten    --     21.5604                15.3216                 8.3533

                     19                     20                     21
                      A                      A                      A
 Frequencies --    989.3346              1003.6273              1062.4420
 Red. masses --      1.4360                 1.2265                 1.8988
 Frc consts  --      0.8281                 0.7279                 1.2628
 IR Inten    --      1.8330                 4.4310                 2.6184

                     22                     23                     24
                      A                      A                      A
 Frequencies --   1088.2518              1098.3327              1106.0454
 Red. masses --      2.0358                 1.9665                 1.8969
 Frc consts  --      1.4205                 1.3977                 1.3672
 IR Inten    --      4.8454                 2.0322                13.4770

                     25                     26                     27
                      A                      A                      A
 Frequencies --   1156.9370              1178.2077              1198.5928
 Red. masses --      3.3494                 1.9346                 1.7342
 Frc consts  --      2.6414                 1.5823                 1.4679
 IR Inten    --     49.4065                31.6096                13.9522

                     28                     29                     30
                      A                      A                      A
 Frequencies --   1227.9718              1247.9625              1262.6947
 Red. masses --      1.5548                 1.6771                 1.2598
 Frc consts  --      1.3814                 1.5389                 1.1835
 IR Inten    --      9.4695                 0.7836                18.0138

                     31                     32                     33
                      A                      A                      A
 Frequencies --   1299.0187              1306.5897              1310.0517
 Red. masses --      1.7498                 1.9668                 1.4533
 Frc consts  --      1.7397                 1.9783                 1.4695
 IR Inten    --     15.8976                 0.4255                 7.8891

                     34                     35                     36
                      A                      A                      A
 Frequencies --   1378.9479              1386.4904              1413.8525
 Red. masses --      1.2779                 1.5478                 1.6006
 Frc consts  --      1.4317                 1.7531                 1.8851
 IR Inten    --      0.9800                 3.1065                11.9651

                     37                     38                     39
                      A                      A                      A
 Frequencies --   1437.0574              1480.2854              1487.7621
 Red. masses --      1.9537                 1.0481                 1.0493
 Frc consts  --      2.3771                 1.3531                 1.3684
 IR Inten    --     13.3245                 3.1032                 4.3827

                     40                     41                     42
                      A                      A                      A
 Frequencies --   1500.8784              1510.7349              2950.7511
 Red. masses --      1.0793                 1.0955                 1.0717
 Frc consts  --      1.4324                 1.4732                 5.4976
 IR Inten    --      0.0181                 1.9690                48.4072

                     43                     44                     45
                      A                      A                      A
 Frequencies --   2956.0593              3039.7279              3069.0307
 Red. masses --      1.0724                 1.0345                 1.0893
 Frc consts  --      5.5214                 5.6317                 6.0453
 IR Inten    --     97.1448                15.2060                20.8535

                     46                     47                     48
                      A                      A                      A
 Frequencies --   3071.0513              3095.6390              3096.4361
 Red. masses --      1.0908                 1.0862                 1.0860
 Frc consts  --      6.0614                 6.1326                 6.1348
 IR Inten    --     24.1890                12.7977                60.1081

                     49                     50                     51
                      A                      A                      A
 Frequencies --   3113.2048              3113.9144              3119.1417
 Red. masses --      1.1018                 1.0943                 1.1011
 Frc consts  --      6.2915                 6.2520                 6.3114
 IR Inten    --     14.0653                45.4486                11.2428

 - Thermochemistry -
 -------------------
 Temperature   298.150 Kelvin.  Pressure   1.00000 Atm.
 Atom     1 has atomic number  6 and mass  12.00000

 Molecular mass:   126.06808 amu.
 Principal axes and moments of inertia in atomic units:
                           1         2         3
     Eigenvalues --   668.538581093.409001164.06233
           X            0.99688  -0.07899   0.00000
           Y            0.07899   0.99688   0.00000
           Z            0.00000   0.00000   1.00000
 This molecule is an asymmetric top.
 Rotational symmetry number  1.
 Warning -- assumption of classical behavior for rotation
           may cause significant error
 Rotational temperatures (Kelvin)      0.12956     0.07921     0.07441
 Rotational constants (GHZ):           2.69953     1.65056     1.55038
 Zero-point vibrational energy     420713.4 (Joules/Mol)
                                  100.55291 (Kcal/Mol)
 Warning -- explicit consideration of   9 degrees of freedom as
           vibrations may cause significant error
 Vibrational temperatures:    235.92   279.73   290.35   364.05   469.09
          (Kelvin)            594.69   682.58   682.90   886.12   905.39
                             1042.77  1098.32  1136.99  1245.84  1250.64
                             1269.02  1370.56  1418.36  1423.43  1443.99
                             1528.62  1565.75  1580.25  1591.35  1664.57
                             1695.18  1724.51  1766.78  1795.54  1816.73
                             1869.00  1879.89  1884.87  1984.00  1994.85
                             2034.22  2067.60  2129.80  2140.56  2159.43
                             2173.61  4245.47  4253.10  4373.48  4415.65
                             4418.55  4453.93  4455.08  4479.20  4480.22
                             4487.74

 Zero-point correction=                           0.160241 (Hartree/Particle)
 Thermal correction to Energy=                    0.167667
 Thermal correction to Enthalpy=                  0.168611
 Thermal correction to Gibbs Free Energy=         0.128734
 Sum of electronic and zero-point Energies=           -422.968843
 Sum of electronic and thermal Energies=              -422.961418
 Sum of electronic and thermal Enthalpies=            -422.960474
 Sum of electronic and thermal Free Energies=         -423.000351

                     E (Thermal)             CV                S
                      KCal/Mol        Cal/Mol-Kelvin    Cal/Mol-Kelvin
 Total                  105.212             29.817             83.928
 Electronic               0.000              0.000              0.000
 Translational            0.889              2.981             40.409
 Rotational               0.889              2.981             28.233
 Vibrational            103.435             23.855             15.287
 Vibration     1          0.623              1.887              2.503
 Vibration     2          0.635              1.848              2.185
 Vibration     3          0.639              1.837              2.117
 Vibration     4          0.664              1.758              1.709
 Vibration     5          0.710              1.623              1.280
 Vibration     6          0.777              1.441              0.915
 Vibration     7          0.831              1.307              0.725
 Vibration     8          0.831              1.306              0.725
 Vibration     9          0.975              0.998              0.423

 Optimization completed.
    -- Stationary point found.
 Normal termination of Gaussian 09 at Mon Jan 27 19:00:54 2020.
