 Gaussian 09, Revision D.01,
 Gaussian 09:  ES64L-G09RevD.01 24-Apr-2013

 -----------------------------
 # b3lyp 6-31G(2df,p) opt Freq
 -----------------------------

 -----
 titel
 -----
 Symbolic Z-matrix:
 Charge =  0 Multiplicity = 1

 SCF Done:  E(RB3LYP) =  -423.202448152     A.U. after   14 cycles
 Optimization completed.
    -- Stationary point found.
 Normal termination of Gaussian 09 at Tue Jan 28 00:29:17 2020.

 ----------------------------------------------------------------------
 #N Geom=AllCheck Guess=TCheck SCRF=Check GenChk RB3LYP/6-31G(2df,p) Fr
 eq
 ----------------------------------------------------------------------

 Structure from the checkpoint file:  "/scratch/puck/g09_b2211616-efa8-4dcc-8c27-b89a2017f0c0/Gau-106336.chk"
 -----
 titel
 -----
 Charge =  0 Multiplicity = 1

                         Standard orientation:
 ---------------------------------------------------------------------
 Center     Atomic      Atomic             Coordinates (Angstroms)
 Number     Number       Type             X           Y           Z
 ---------------------------------------------------------------------
      1          6           0       -0.377267   -0.412960    1.721380
      2          6           0       -0.251696   -0.449856    0.182837
      3          6           0        0.838886   -1.487041   -0.227158
      4          6           0        2.074816   -0.625978   -0.365054
      5          6           0        1.779686    0.670549   -0.420525
      6          6           0        0.291295    0.901675   -0.381080
      7          8           0       -0.053887    2.048691    0.373714
      8          6           0       -1.623906   -0.773195   -0.361031
      9          8           0       -2.356094    0.032863   -0.882894
     10          1           0       -0.787890   -1.356561    2.096667
     11          1           0        0.609372   -0.264650    2.168431
     12          1           0       -1.020167    0.406827    2.046130
     13          1           0        0.950821   -2.290140    0.510395
     14          1           0        0.598553   -1.974853   -1.182986
     15          1           0        3.068716   -1.051110   -0.447056
     16          1           0        2.478694    1.488461   -0.547312
     17          1           0       -0.084297    1.024990   -1.409112
     18          1           0       -0.970524    2.253800    0.158771
     19          1           0       -1.954316   -1.828364   -0.216698
 ---------------------------------------------------------------------

 SCF Done:  E(RB3LYP) =  -423.202448152     A.U. after    1 cycles

 The electronic state is 1-A.
 Alpha  occ. eigenvalues --  -19.14709 -19.13583 -10.27361 -10.23421 -10.20409
 Alpha  occ. eigenvalues --  -10.19866 -10.18985 -10.18465 -10.18289  -1.05325
 Alpha  occ. eigenvalues --   -1.01907  -0.85529  -0.76549  -0.70371  -0.67250
 Alpha  occ. eigenvalues --   -0.62407  -0.56175  -0.53307  -0.50862  -0.50316
 Alpha  occ. eigenvalues --   -0.45960  -0.44533  -0.43053  -0.42578  -0.39924
 Alpha  occ. eigenvalues --   -0.38754  -0.37692  -0.36773  -0.36055  -0.34544
 Alpha  occ. eigenvalues --   -0.32178  -0.27833  -0.25894  -0.24309
 Alpha virt. eigenvalues --   -0.02716   0.01144   0.08734   0.10125   0.11329
 Alpha virt. eigenvalues --    0.14054   0.14643   0.14986   0.15336   0.16622
 Alpha virt. eigenvalues --    0.16955   0.18450   0.19099   0.19876   0.21226

 Mulliken charges:
               1
     1  C   -0.419496
     2  C    0.146085
     3  C   -0.316987
     4  C   -0.067776
     5  C   -0.085523
     6  C    0.071322
     7  O   -0.439200
     8  C    0.113043
     9  O   -0.266784
    10  H    0.111902
    11  H    0.135517
    12  H    0.130797
    13  H    0.108444
    14  H    0.112482
    15  H    0.100059
    16  H    0.105756
    17  H    0.089402
    18  H    0.291107
    19  H    0.079850
 Sum of Mulliken charges =   0.00000

 Dipole moment (field-independent basis, Debye):
    X=              1.0201    Y=             -1.8341    Z=              0.2849  Tot=              2.1179
 Quadrupole moment (field-independent basis, Debye-Ang):
   XX=            -55.8075   YY=            -51.8945   ZZ=            -54.4331
   XY=             -1.0859   XZ=             -3.5869   YZ=             -1.2685

  Exact polarizability:  81.870  -2.737  83.706   0.239  -2.548  62.268
 Approx polarizability: 114.992 -10.961 135.412   5.803  -5.558  94.140

                      1                      2                      3
                      A                      A                      A
 Frequencies --     57.8294               108.2478               178.6658
 Red. masses --      5.2659                 2.7836                 4.7903
 Frc consts  --      0.0104                 0.0192                 0.0901
 IR Inten    --      6.0962                 0.6575                 5.8367

                      4                      5                      6
                      A                      A                      A
 Frequencies --    222.0200               281.9141               291.9495
 Red. masses --      1.1105                 2.7868                 2.9948
 Frc consts  --      0.0323                 0.1305                 0.1504
 IR Inten    --      0.2862                 2.0137                 2.1917

                      7                      8                      9
                      A                      A                      A
 Frequencies --    317.4809               370.9676               407.4686
 Red. masses --      2.3563                 2.3549                 1.0831
 Frc consts  --      0.1399                 0.1909                 0.1060
 IR Inten    --      1.7151                 5.4438                96.4511

                     10                     11                     12
                      A                      A                      A
 Frequencies --    431.5019               472.4794               568.3915
 Red. masses --      2.8775                 4.6456                 3.7350
 Frc consts  --      0.3157                 0.6110                 0.7109
 IR Inten    --     13.5186                 1.2610                14.1267

                     13                     14                     15
                      A                      A                      A
 Frequencies --    674.1324               715.2920               761.4291
 Red. masses --      2.7919                 2.1492                 4.7026
 Frc consts  --      0.7475                 0.6479                 1.6064
 IR Inten    --     22.5891                 7.0708                 4.8553

                     16                     17                     18
                      A                      A                      A
 Frequencies --    810.0293               916.0142               942.8674
 Red. masses --      2.2538                 1.8929                 1.9557
 Frc consts  --      0.8713                 0.9358                 1.0244
 IR Inten    --     11.3545                12.7452                 0.6089

                     19                     20                     21
                      A                      A                      A
 Frequencies --    953.4451               965.9905               982.3791
 Red. masses --      1.5687                 1.5888                 1.9999
 Frc consts  --      0.8402                 0.8735                 1.1372
 IR Inten    --      9.3584                 3.5450                 6.4629

                     22                     23                     24
                      A                      A                      A
 Frequencies --    987.5853              1025.0259              1083.6572
 Red. masses --      1.8821                 1.9855                 1.6859
 Frc consts  --      1.0815                 1.2291                 1.1665
 IR Inten    --      2.5440                 4.7093                40.6484

                     25                     26                     27
                      A                      A                      A
 Frequencies --   1115.5613              1151.1039              1171.7967
 Red. masses --      1.7931                 1.8170                 2.8812
 Frc consts  --      1.3148                 1.4185                 2.3309
 IR Inten    --     14.9445                37.5467                21.8263

                     28                     29                     30
                      A                      A                      A
 Frequencies --   1211.2142              1230.6665              1252.0684
 Red. masses --      1.7265                 1.7278                 1.3136
 Frc consts  --      1.4923                 1.5418                 1.2133
 IR Inten    --     29.0863                11.7314                40.5629

                     31                     32                     33
                      A                      A                      A
 Frequencies --   1306.0677              1351.8788              1358.7880
 Red. masses --      1.4397                 1.7430                 1.4862
 Frc consts  --      1.4470                 1.8768                 1.6167
 IR Inten    --      7.2247                21.4577                 0.8356

                     34                     35                     36
                      A                      A                      A
 Frequencies --   1398.2138              1421.8313              1441.7300
 Red. masses --      1.2056                 1.2269                 1.4702
 Frc consts  --      1.3886                 1.4613                 1.8006
 IR Inten    --      4.9178                 2.1991                 6.6645

                     37                     38                     39
                      A                      A                      A
 Frequencies --   1481.7509              1493.8364              1496.3554
 Red. masses --      1.0638                 1.0873                 1.0543
 Frc consts  --      1.3762                 1.4295                 1.3908
 IR Inten    --      2.6177                 6.3581                 5.2707

                     40                     41                     42
                      A                      A                      A
 Frequencies --   1687.6714              1812.5945              2860.1321
 Red. masses --      6.4532                10.6992                 1.0826
 Frc consts  --     10.8293                20.7110                 5.2179
 IR Inten    --      2.3615               152.6843               108.7889

                     43                     44                     45
                      A                      A                      A
 Frequencies --   2974.6148              3003.1013              3039.5860
 Red. masses --      1.0817                 1.0670                 1.0389
 Frc consts  --      5.6391                 5.6697                 5.6551
 IR Inten    --     31.8152                33.2864                13.8520

                     46                     47                     48
                      A                      A                      A
 Frequencies --   3052.7085              3110.9601              3138.8758
 Red. masses --      1.0927                 1.0993                 1.1007
 Frc consts  --      5.9994                 6.2685                 6.3893
 IR Inten    --     29.1053                14.0124                11.4522

                     49                     50                     51
                      A                      A                      A
 Frequencies --   3190.7014              3218.2260              3808.0055
 Red. masses --      1.0858                 1.1040                 1.0660
 Frc consts  --      6.5130                 6.7365                 9.1075
 IR Inten    --      6.2819                15.1956                30.3705

 - Thermochemistry -
 -------------------
 Temperature   298.150 Kelvin.  Pressure   1.00000 Atm.
 Atom     1 has atomic number  6 and mass  12.00000

 Molecular mass:   126.06808 amu.
 Principal axes and moments of inertia in atomic units:
                           1         2         3
     Eigenvalues --   803.502371148.540651411.77228
           X            0.99950  -0.01387  -0.02830
           Y            0.01291   0.99935  -0.03372
           Z            0.02875   0.03334   0.99903
 This molecule is an asymmetric top.
 Rotational symmetry number  1.
 Warning -- assumption of classical behavior for rotation
           may cause significant error
 Rotational temperatures (Kelvin)      0.10780     0.07541     0.06135
 Rotational constants (GHZ):           2.24609     1.57133     1.27835
 Zero-point vibrational energy     414546.7 (Joules/Mol)
                                   99.07905 (Kcal/Mol)
 Warning -- explicit consideration of  12 degrees of freedom as
           vibrations may cause significant error
 Vibrational temperatures:     83.20   155.74   257.06   319.44   405.61
          (Kelvin)            420.05   456.78   533.74   586.26   620.83
                              679.79   817.79   969.92  1029.14  1095.53
                             1165.45  1317.94  1356.57  1371.79  1389.84
                             1413.42  1420.91  1474.78  1559.14  1605.04
                             1656.18  1685.95  1742.66  1770.65  1801.44
                             1879.14  1945.05  1954.99  2011.72  2045.70
                             2074.33  2131.91  2149.29  2152.92  2428.18
                             2607.92  4115.09  4279.80  4320.79  4373.28
                             4392.16  4475.97  4516.14  4590.70  4630.30
                             5478.86

 Zero-point correction=                           0.157893 (Hartree/Particle)
 Thermal correction to Energy=                    0.166893
 Thermal correction to Enthalpy=                  0.167837
 Thermal correction to Gibbs Free Energy=         0.124170
 Sum of electronic and zero-point Energies=           -423.044556
 Sum of electronic and thermal Energies=              -423.035555
 Sum of electronic and thermal Enthalpies=            -423.034611
 Sum of electronic and thermal Free Energies=         -423.078278

                     E (Thermal)             CV                S
                      KCal/Mol        Cal/Mol-Kelvin    Cal/Mol-Kelvin
 Total                  104.727             33.893             91.906
 Electronic               0.000              0.000              0.000
 Translational            0.889              2.981             40.409
 Rotational               0.889              2.981             28.656
 Vibrational            102.950             27.931             22.841
 Vibration     1          0.596              1.974              4.530
 Vibration     2          0.606              1.943              3.300
 Vibration     3          0.629              1.869              2.342
 Vibration     4          0.648              1.808              1.943
 Vibration     5          0.681              1.707              1.522
 Vibration     6          0.687              1.689              1.463
 Vibration     7          0.704              1.640              1.323
 Vibration     8          0.743              1.532              1.076
 Vibration     9          0.772              1.454              0.936
 Vibration    10          0.793              1.402              0.854
 Vibration    11          0.829              1.311              0.731
 Vibration    12          0.924              1.100              0.507

 Optimization completed.
    -- Stationary point found.
 Normal termination of Gaussian 09 at Tue Jan 28 01:14:09 2020.
