 Gaussian 09, Revision D.01,
 Gaussian 09:  ES64L-G09RevD.01 24-Apr-2013

 -----------------------------
 # b3lyp 6-31G(2df,p) opt Freq
 -----------------------------

 -----
 titel
 -----
 Symbolic Z-matrix:
 Charge =  0 Multiplicity = 1

 SCF Done:  E(RB3LYP) =  -423.206670849     A.U. after   14 cycles
 Optimization completed.
    -- Stationary point found.
 Normal termination of Gaussian 09 at Mon Jan 27 17:14:07 2020.

 ----------------------------------------------------------------------
 #N Geom=AllCheck Guess=TCheck SCRF=Check GenChk RB3LYP/6-31G(2df,p) Fr
 eq
 ----------------------------------------------------------------------

 Structure from the checkpoint file:  "/scratch/puck/g09_f525abdf-65b2-4ca7-b1c7-4cd0eef1ca13/Gau-43340.chk"
 -----
 titel
 -----
 Charge =  0 Multiplicity = 1

                         Standard orientation:
 ---------------------------------------------------------------------
 Center     Atomic      Atomic             Coordinates (Angstroms)
 Number     Number       Type             X           Y           Z
 ---------------------------------------------------------------------
      1          6           0        2.181127   -0.743661   -0.244169
      2          6           0        0.726309   -0.423122   -0.024908
      3          6           0       -0.090610   -1.090845    1.113529
      4          6           0       -1.193202   -1.114116    0.039005
      5          6           0       -2.013639    0.177755    0.030719
      6          6           0       -1.072584    1.376017   -0.262899
      7          6           0        0.398474    1.075099    0.032746
      8          8           0        1.215421    1.925108    0.291239
      9          8           0       -0.178284   -1.022674   -1.005512
     10          1           0        2.505038   -0.385625   -1.226135
     11          1           0        2.789764   -0.241078    0.511677
     12          1           0        2.348283   -1.822352   -0.192268
     13          1           0        0.297330   -2.084735    1.345729
     14          1           0       -0.267828   -0.528547    2.033798
     15          1           0       -1.804822   -2.014359   -0.060506
     16          1           0       -2.796242    0.120825   -0.731516
     17          1           0       -2.516273    0.296676    0.997199
     18          1           0       -1.109096    1.608923   -1.333449
     19          1           0       -1.358494    2.288030    0.265521
 ---------------------------------------------------------------------

 SCF Done:  E(RB3LYP) =  -423.206670849     A.U. after    1 cycles

 The electronic state is 1-A.
 Alpha  occ. eigenvalues --  -19.13951 -19.13126 -10.26616 -10.24619 -10.24444
 Alpha  occ. eigenvalues --  -10.19791 -10.19560 -10.19417 -10.17863  -1.05392
 Alpha  occ. eigenvalues --   -1.03606  -0.80049  -0.77220  -0.73660  -0.68865
 Alpha  occ. eigenvalues --   -0.61365  -0.58461  -0.50736  -0.50025  -0.48124
 Alpha  occ. eigenvalues --   -0.46590  -0.45296  -0.43103  -0.41180  -0.39983
 Alpha  occ. eigenvalues --   -0.39654  -0.38465  -0.37201  -0.36257  -0.34451
 Alpha  occ. eigenvalues --   -0.31633  -0.31496  -0.28146  -0.22605
 Alpha virt. eigenvalues --   -0.01687   0.07596   0.10084   0.11037   0.11174
 Alpha virt. eigenvalues --    0.12643   0.14886   0.15192   0.16001   0.16369
 Alpha virt. eigenvalues --    0.17313   0.17790   0.19444   0.21275   0.21759

 Mulliken charges:
               1
     1  C   -0.479729
     2  C    0.297693
     3  C   -0.292408
     4  C    0.099310
     5  C   -0.233268
     6  C   -0.301410
     7  C    0.370827
     8  O   -0.322983
     9  O   -0.329326
    10  H    0.134771
    11  H    0.141525
    12  H    0.118049
    13  H    0.114323
    14  H    0.109902
    15  H    0.081616
    16  H    0.111567
    17  H    0.108061
    18  H    0.145812
    19  H    0.125669
 Sum of Mulliken charges =   0.00000

 Dipole moment (field-independent basis, Debye):
    X=             -1.8916    Y=             -1.4867    Z=              0.9671  Tot=              2.5930
 Quadrupole moment (field-independent basis, Debye-Ang):
   XX=            -51.4915   YY=            -56.8458   ZZ=            -53.3683
   XY=             -4.1370   XZ=             -0.8537   YZ=             -3.3865

  Exact polarizability:  84.231   0.926  76.273   0.509  -1.248  62.312
 Approx polarizability: 114.972   8.792 111.368   2.213   2.703 100.448

                      1                      2                      3
                      A                      A                      A
 Frequencies --     77.7344               159.4057               189.2319
 Red. masses --      3.0139                 1.2715                 1.5693
 Frc consts  --      0.0107                 0.0190                 0.0331
 IR Inten    --      4.1493                 1.1048                 0.4635

                      4                      5                      6
                      A                      A                      A
 Frequencies --    258.9621               296.2430               374.2359
 Red. masses --      2.9166                 2.8331                 2.1268
 Frc consts  --      0.1152                 0.1465                 0.1755
 IR Inten    --      5.0786                 2.6182                 1.4603

                      7                      8                      9
                      A                      A                      A
 Frequencies --    406.8222               452.8848               496.7912
 Red. masses --      4.1013                 4.7553                 4.6868
 Frc consts  --      0.3999                 0.5747                 0.6815
 IR Inten    --      2.4622                 7.2907                 5.3152

                     10                     11                     12
                      A                      A                      A
 Frequencies --    571.2601               609.7579               687.2360
 Red. masses --      2.7913                 3.8329                 3.0154
 Frc consts  --      0.5367                 0.8396                 0.8391
 IR Inten    --      6.1684                 1.7548                 3.5619

                     13                     14                     15
                      A                      A                      A
 Frequencies --    775.8723               799.2569               832.9332
 Red. masses --      2.6847                 1.8698                 2.4101
 Frc consts  --      0.9522                 0.7037                 0.9852
 IR Inten    --      1.4285                 4.5231                 5.1442

                     16                     17                     18
                      A                      A                      A
 Frequencies --    864.5956               914.7536               936.7036
 Red. masses --      2.3110                 3.0651                 4.1466
 Frc consts  --      1.0178                 1.5111                 2.1436
 IR Inten    --      9.8461                27.9698                 9.8042

                     19                     20                     21
                      A                      A                      A
 Frequencies --    965.0487               986.3431              1022.2227
 Red. masses --      1.8500                 2.7437                 1.4652
 Frc consts  --      1.0151                 1.5727                 0.9021
 IR Inten    --      6.6426                34.2749                 8.6679

                     22                     23                     24
                      A                      A                      A
 Frequencies --   1052.8647              1084.5503              1119.0441
 Red. masses --      2.1456                 1.5426                 2.1446
 Frc consts  --      1.4013                 1.0691                 1.5823
 IR Inten    --      5.8962                10.3258                32.8830

                     25                     26                     27
                      A                      A                      A
 Frequencies --   1129.7727              1176.8358              1227.8180
 Red. masses --      2.0270                 1.3299                 1.9421
 Frc consts  --      1.5244                 1.0852                 1.7250
 IR Inten    --     29.8292                 6.3955                13.9863

                     28                     29                     30
                      A                      A                      A
 Frequencies --   1230.8658              1250.8226              1280.9252
 Red. masses --      1.8939                 1.3460                 1.4790
 Frc consts  --      1.6906                 1.2408                 1.4298
 IR Inten    --      0.8397                 6.2851                 2.9267

                     31                     32                     33
                      A                      A                      A
 Frequencies --   1316.1423              1326.0485              1348.7977
 Red. masses --      2.4120                 1.6024                 1.6654
 Frc consts  --      2.4617                 1.6602                 1.7851
 IR Inten    --      3.4764                 2.2158                 0.8996

                     34                     35                     36
                      A                      A                      A
 Frequencies --   1370.7567              1406.1870              1450.3790
 Red. masses --      1.4533                 1.3822                 1.0756
 Frc consts  --      1.6089                 1.6103                 1.3331
 IR Inten    --      5.8116                10.3113                 5.0705

                     37                     38                     39
                      A                      A                      A
 Frequencies --   1474.1536              1483.6394              1488.4841
 Red. masses --      1.0532                 1.1049                 1.0675
 Frc consts  --      1.3485                 1.4329                 1.3935
 IR Inten    --      4.3932                 6.2292                 4.2560

                     40                     41                     42
                      A                      A                      A
 Frequencies --   1497.2003              1823.6763              3042.1780
 Red. masses --      1.1050                12.4331                 1.0608
 Frc consts  --      1.4594                24.3626                 5.7842
 IR Inten    --      2.5034               178.7720                23.4817

                     43                     44                     45
                      A                      A                      A
 Frequencies --   3048.4442              3049.4877              3063.3241
 Red. masses --      1.0350                 1.0678                 1.0595
 Frc consts  --      5.6667                 5.8505                 5.8576
 IR Inten    --     13.1381                 5.1069                18.1563

                     46                     47                     48
                      A                      A                      A
 Frequencies --   3078.5735              3088.0257              3113.6586
 Red. masses --      1.0896                 1.0981                 1.0982
 Frc consts  --      6.0844                 6.1694                 6.2730
 IR Inten    --     50.5748                29.4558                10.1993

                     49                     50                     51
                      A                      A                      A
 Frequencies --   3120.1813              3126.2108              3135.1027
 Red. masses --      1.1013                 1.1087                 1.1021
 Frc consts  --      6.3171                 6.3838                 6.3823
 IR Inten    --     11.5658                17.9967                11.5421

 - Thermochemistry -
 -------------------
 Temperature   298.150 Kelvin.  Pressure   1.00000 Atm.
 Atom     1 has atomic number  6 and mass  12.00000

 Molecular mass:   126.06808 amu.
 Principal axes and moments of inertia in atomic units:
                           1         2         3
     Eigenvalues --   765.97645 916.066461360.36176
           X            0.97750  -0.21082  -0.00723
           Y            0.21046   0.97700  -0.03422
           Z            0.01428   0.03193   0.99939
 This molecule is an asymmetric top.
 Rotational symmetry number  1.
 Warning -- assumption of classical behavior for rotation
           may cause significant error
 Rotational temperatures (Kelvin)      0.11308     0.09455     0.06367
 Rotational constants (GHZ):           2.35613     1.97010     1.32666
 Zero-point vibrational energy     419186.1 (Joules/Mol)
                                  100.18788 (Kcal/Mol)
 Warning -- explicit consideration of  11 degrees of freedom as
           vibrations may cause significant error
 Vibrational temperatures:    111.84   229.35   272.26   372.59   426.23
          (Kelvin)            538.44   585.33   651.60   714.77   821.91
                              877.30   988.78  1116.31  1149.95  1198.40
                             1243.96  1316.12  1347.71  1388.49  1419.13
                             1470.75  1514.84  1560.42  1610.05  1625.49
                             1693.20  1766.55  1770.94  1799.65  1842.96
                             1893.63  1907.89  1940.62  1972.21  2023.19
                             2086.77  2120.98  2134.62  2141.59  2154.13
                             2623.86  4377.01  4386.03  4387.53  4407.43
                             4429.38  4442.97  4479.85  4489.24  4497.91
                             4510.71

 Zero-point correction=                           0.159660 (Hartree/Particle)
 Thermal correction to Energy=                    0.167707
 Thermal correction to Enthalpy=                  0.168651
 Thermal correction to Gibbs Free Energy=         0.127196
 Sum of electronic and zero-point Energies=           -423.047011
 Sum of electronic and thermal Energies=              -423.038964
 Sum of electronic and thermal Enthalpies=            -423.038020
 Sum of electronic and thermal Free Energies=         -423.079475

                     E (Thermal)             CV                S
                      KCal/Mol        Cal/Mol-Kelvin    Cal/Mol-Kelvin
 Total                  105.237             31.350             87.250
 Electronic               0.000              0.000              0.000
 Translational            0.889              2.981             40.409
 Rotational               0.889              2.981             28.347
 Vibrational            103.460             25.388             18.494
 Vibration     1          0.599              1.964              3.947
 Vibration     2          0.621              1.892              2.557
 Vibration     3          0.633              1.855              2.235
 Vibration     4          0.668              1.748              1.669
 Vibration     5          0.690              1.681              1.438
 Vibration     6          0.745              1.525              1.062
 Vibration     7          0.772              1.455              0.938
 Vibration     8          0.811              1.355              0.787
 Vibration     9          0.852              1.257              0.666
 Vibration    10          0.927              1.093              0.502
 Vibration    11          0.969              1.011              0.433

 Normal termination of Gaussian 09 at Mon Jan 27 17:58:10 2020.
