 Gaussian 09, Revision D.01,
 Gaussian 09:  ES64L-G09RevD.01 24-Apr-2013

 -----------------------------
 # b3lyp 6-31G(2df,p) opt Freq
 -----------------------------

 -----
 titel
 -----
 Symbolic Z-matrix:
 Charge =  0 Multiplicity = 1

 SCF Done:  E(RB3LYP) =  -423.146517039     A.U. after   14 cycles
 Optimization completed.
    -- Stationary point found.
 Normal termination of Gaussian 09 at Tue Jan 28 09:04:40 2020.

 ----------------------------------------------------------------------
 #N Geom=AllCheck Guess=TCheck SCRF=Check GenChk RB3LYP/6-31G(2df,p) Fr
 eq
 ----------------------------------------------------------------------

 Structure from the checkpoint file:  "/scratch/puck/g09_2d185482-e880-4e81-9689-5e9f1062a032/Gau-94275.chk"
 -----
 titel
 -----
 Charge =  0 Multiplicity = 1

                         Standard orientation:
 ---------------------------------------------------------------------
 Center     Atomic      Atomic             Coordinates (Angstroms)
 Number     Number       Type             X           Y           Z
 ---------------------------------------------------------------------
      1          6           0        2.534538   -0.634460    0.138688
      2          8           0        1.351683   -0.802811   -0.621695
      3          6           0        0.244145   -0.065532   -0.152304
      4          6           0       -0.369821   -0.560201    1.199567
      5          6           0       -1.602680   -1.065188    0.435363
      6          6           0       -2.260403    0.062977   -0.301791
      7          6           0       -1.021715   -0.563907   -0.885104
      8          6           0        0.484063    1.422250   -0.333855
      9          8           0        0.035526    2.287879    0.375462
     10          1           0        2.413634   -0.985572    1.172662
     11          1           0        3.309078   -1.231167   -0.347551
     12          1           0        2.864394    0.414391    0.168934
     13          1           0        0.233106   -1.369916    1.614036
     14          1           0       -0.544467    0.203113    1.961662
     15          1           0       -2.113023   -2.000290    0.628387
     16          1           0       -3.177375   -0.191823   -0.823128
     17          1           0       -2.233806    1.073669    0.095515
     18          1           0       -0.983318   -1.028923   -1.861718
     19          1           0        1.085338    1.660342   -1.242317
 ---------------------------------------------------------------------

 SCF Done:  E(RB3LYP) =  -423.146517039     A.U. after    1 cycles

 The electronic state is 1-A.
 Alpha  occ. eigenvalues --  -19.15415 -19.14448 -10.26831 -10.24832 -10.23336
 Alpha  occ. eigenvalues --  -10.20022 -10.19922 -10.19094 -10.18888  -1.05529
 Alpha  occ. eigenvalues --   -1.04159  -0.89897  -0.74856  -0.70340  -0.66497
 Alpha  occ. eigenvalues --   -0.60997  -0.57864  -0.52784  -0.52614  -0.49137
 Alpha  occ. eigenvalues --   -0.47785  -0.46427  -0.43515  -0.43029  -0.42482
 Alpha  occ. eigenvalues --   -0.39667  -0.38139  -0.35851  -0.34229  -0.32508
 Alpha  occ. eigenvalues --   -0.29852  -0.28204  -0.28087  -0.23442
 Alpha virt. eigenvalues --   -0.03097   0.08642   0.10396   0.11222   0.12585
 Alpha virt. eigenvalues --    0.13303   0.13788   0.14543   0.15393   0.15826
 Alpha virt. eigenvalues --    0.16734   0.17263   0.19526   0.21487   0.22262

 Mulliken charges:
               1
     1  C   -0.262281
     2  O   -0.292655
     3  C    0.334654
     4  C   -0.306658
     5  C   -0.036029
     6  C   -0.292419
     7  C   -0.112268
     8  C    0.099984
     9  O   -0.254751
    10  H    0.115692
    11  H    0.134925
    12  H    0.115909
    13  H    0.113807
    14  H    0.115720
    15  H    0.090492
    16  H    0.116594
    17  H    0.134999
    18  H    0.098768
    19  H    0.085517
 Sum of Mulliken charges =   0.00000

 Dipole moment (field-independent basis, Debye):
    X=              0.5238    Y=             -1.7556    Z=             -0.1923  Tot=              1.8422
 Quadrupole moment (field-independent basis, Debye-Ang):
   XX=            -47.6964   YY=            -59.0614   ZZ=            -53.0540
   XY=              1.5081   XZ=              1.9924   YZ=             -2.9762

  Exact polarizability:  86.235   0.522  72.748  -1.071  -0.878  67.884
 Approx polarizability: 112.556  -2.393 110.973  -5.185   4.604 108.457

                      1                      2                      3
                      A                      A                      A
 Frequencies --     95.9862               137.2015               161.8257
 Red. masses --      4.0570                 2.4645                 1.5020
 Frc consts  --      0.0220                 0.0273                 0.0232
 IR Inten    --      5.8728                 2.4533                 0.4326

                      4                      5                      6
                      A                      A                      A
 Frequencies --    183.7201               200.2035               270.9324
 Red. masses --      3.0804                 2.0137                 2.4845
 Frc consts  --      0.0613                 0.0476                 0.1075
 IR Inten    --      2.4526                 1.4245                 5.4761

                      7                      8                      9
                      A                      A                      A
 Frequencies --    302.4941               389.4797               427.0166
 Red. masses --      2.9238                 3.5624                 2.3090
 Frc consts  --      0.1576                 0.3184                 0.2481
 IR Inten    --      6.9720                 2.5587                 0.3676

                     10                     11                     12
                      A                      A                      A
 Frequencies --    462.8746               571.7866               643.6634
 Red. masses --      3.3969                 4.3809                 3.5058
 Frc consts  --      0.4288                 0.8439                 0.8558
 IR Inten    --      7.7393                 3.9321                18.8843

                     13                     14                     15
                      A                      A                      A
 Frequencies --    758.9950               794.1864               843.2592
 Red. masses --      2.1538                 1.7525                 2.2527
 Frc consts  --      0.7310                 0.6513                 0.9438
 IR Inten    --      2.8461                 8.8709                20.2420

                     16                     17                     18
                      A                      A                      A
 Frequencies --    883.5996               928.9564               943.5188
 Red. masses --      2.4424                 2.1403                 1.8089
 Frc consts  --      1.1235                 1.0882                 0.9488
 IR Inten    --      2.5348                 0.7186                 9.6758

                     19                     20                     21
                      A                      A                      A
 Frequencies --    961.8009               980.8701              1042.1430
 Red. masses --      1.8054                 1.7847                 1.4299
 Frc consts  --      0.9840                 1.0117                 0.9150
 IR Inten    --      1.4542                 3.5154                 3.2268

                     22                     23                     24
                      A                      A                      A
 Frequencies --   1064.3629              1085.9072              1096.7151
 Red. masses --      1.2118                 3.8595                 1.4107
 Frc consts  --      0.8088                 2.6814                 0.9997
 IR Inten    --      0.5166                45.7925                 7.9287

                     25                     26                     27
                      A                      A                      A
 Frequencies --   1122.6226              1144.2182              1154.9898
 Red. masses --      2.3162                 1.6788                 2.6702
 Frc consts  --      1.7198                 1.2950                 2.0987
 IR Inten    --      7.3449                 9.9299                28.3008

                     28                     29                     30
                      A                      A                      A
 Frequencies --   1182.2286              1204.9058              1224.6168
 Red. masses --      1.2893                 2.5927                 1.7854
 Frc consts  --      1.0617                 2.2177                 1.5776
 IR Inten    --      1.9177                65.6034                 9.8535

                     31                     32                     33
                      A                      A                      A
 Frequencies --   1242.2084              1259.8723              1287.8073
 Red. masses --      1.7438                 1.9241                 1.7495
 Frc consts  --      1.5854                 1.7994                 1.7095
 IR Inten    --     18.3951                 4.5923                14.1299

                     34                     35                     36
                      A                      A                      A
 Frequencies --   1350.3344              1399.5546              1463.6819
 Red. masses --      2.1461                 1.2825                 1.1056
 Frc consts  --      2.3056                 1.4801                 1.3956
 IR Inten    --      1.4799                14.5675                 1.7159

                     37                     38                     39
                      A                      A                      A
 Frequencies --   1481.1303              1489.6899              1492.1846
 Red. masses --      1.1402                 1.0643                 1.1897
 Frc consts  --      1.4737                 1.3916                 1.5607
 IR Inten    --      0.3519                 4.6881                 3.9988

                     40                     41                     42
                      A                      A                      A
 Frequencies --   1508.5654              1820.3597              2864.8070
 Red. masses --      1.0600                10.8802                 1.0831
 Frc consts  --      1.4214                21.2424                 5.2374
 IR Inten    --      7.3339               109.1987               109.2593

                     43                     44                     45
                      A                      A                      A
 Frequencies --   2990.7275              3042.8344              3069.6274
 Red. masses --      1.0372                 1.1014                 1.0582
 Frc consts  --      5.4661                 6.0084                 5.8750
 IR Inten    --     42.4536                40.6580                25.4098

                     46                     47                     48
                      A                      A                      A
 Frequencies --   3122.8216              3124.5346              3131.2313
 Red. masses --      1.0548                 1.0977                 1.1072
 Frc consts  --      6.0606                 6.3137                 6.3961
 IR Inten    --     10.1607                25.4857                12.0118

                     49                     50                     51
                      A                      A                      A
 Frequencies --   3187.5750              3199.3914              3212.5156
 Red. masses --      1.0904                 1.1008                 1.1108
 Frc consts  --      6.5274                 6.6386                 6.7540
 IR Inten    --     16.2891                 3.8593                11.3419

 - Thermochemistry -
 -------------------
 Temperature   298.150 Kelvin.  Pressure   1.00000 Atm.
 Atom     1 has atomic number  6 and mass  12.00000

 Molecular mass:   126.06808 amu.
 Principal axes and moments of inertia in atomic units:
                           1         2         3
     Eigenvalues --   758.736491135.273411506.09370
           X            0.99989  -0.00345   0.01445
           Y            0.00395   0.99938  -0.03490
           Z           -0.01433   0.03496   0.99929
 This molecule is an asymmetric top.
 Rotational symmetry number  1.
 Warning -- assumption of classical behavior for rotation
           may cause significant error
 Rotational temperatures (Kelvin)      0.11416     0.07629     0.05751
 Rotational constants (GHZ):           2.37861     1.58970     1.19829
 Zero-point vibrational energy     412750.7 (Joules/Mol)
                                   98.64979 (Kcal/Mol)
 Warning -- explicit consideration of  11 degrees of freedom as
           vibrations may cause significant error
 Vibrational temperatures:    138.10   197.40   232.83   264.33   288.05
          (Kelvin)            389.81   435.22   560.37   614.38   665.97
                              822.67   926.09  1092.02  1142.66  1213.26
                             1271.30  1336.56  1357.51  1383.82  1411.25
                             1499.41  1531.38  1562.38  1577.93  1615.20
                             1646.27  1661.77  1700.96  1733.59  1761.95
                             1787.26  1812.67  1852.87  1942.83  2013.64
                             2105.91  2131.01  2143.33  2146.92  2170.49
                             2619.09  4121.81  4302.98  4377.95  4416.50
                             4493.04  4495.50  4505.14  4586.20  4603.20
                             4622.09

 Zero-point correction=                           0.157208 (Hartree/Particle)
 Thermal correction to Energy=                    0.166044
 Thermal correction to Enthalpy=                  0.166989
 Thermal correction to Gibbs Free Energy=         0.123807
 Sum of electronic and zero-point Energies=           -422.989309
 Sum of electronic and thermal Energies=              -422.980473
 Sum of electronic and thermal Enthalpies=            -422.979528
 Sum of electronic and thermal Free Energies=         -423.022710

                     E (Thermal)             CV                S
                      KCal/Mol        Cal/Mol-Kelvin    Cal/Mol-Kelvin
 Total                  104.194             33.017             90.884
 Electronic               0.000              0.000              0.000
 Translational            0.889              2.981             40.409
 Rotational               0.889              2.981             28.652
 Vibrational            102.417             27.055             21.823
 Vibration     1          0.603              1.952              3.534
 Vibration     2          0.614              1.916              2.843
 Vibration     3          0.622              1.889              2.528
 Vibration     4          0.631              1.862              2.290
 Vibration     5          0.638              1.840              2.131
 Vibration     6          0.675              1.727              1.590
 Vibration     7          0.694              1.669              1.403
 Vibration     8          0.757              1.493              1.002
 Vibration     9          0.789              1.411              0.868
 Vibration    10          0.821              1.332              0.758
 Vibration    11          0.928              1.092              0.501

 Optimization completed.
    -- Stationary point found.
 Normal termination of Gaussian 09 at Tue Jan 28 09:47:38 2020.
