 Gaussian 09, Revision D.01,
 Gaussian 09:  ES64L-G09RevD.01 24-Apr-2013

 -----------------------------
 # b3lyp 6-31G(2df,p) opt Freq
 -----------------------------

 -----
 titel
 -----
 Symbolic Z-matrix:
 Charge =  0 Multiplicity = 1

 SCF Done:  E(RB3LYP) =  -423.142746222     A.U. after   14 cycles
 Optimization completed.
    -- Stationary point found.
 Normal termination of Gaussian 09 at Mon Jan 27 15:46:14 2020.

 ----------------------------------------------------------------------
 #N Geom=AllCheck Guess=TCheck SCRF=Check GenChk RB3LYP/6-31G(2df,p) Fr
 eq
 ----------------------------------------------------------------------

 Structure from the checkpoint file:  "/scratch/puck/g09_ad50320a-83fc-4469-bc40-9114fcf7f921/Gau-108223.chk"
 -----
 titel
 -----
 Charge =  0 Multiplicity = 1

                         Standard orientation:
 ---------------------------------------------------------------------
 Center     Atomic      Atomic             Coordinates (Angstroms)
 Number     Number       Type             X           Y           Z
 ---------------------------------------------------------------------
      1          6           0        0.524057    2.377205   -0.099917
      2          6           0        0.590436    0.881549    0.216079
      3          6           0        1.794071    0.210295   -0.457984
      4          6           0        1.980438   -1.231264   -0.031964
      5          8           0        3.041345   -1.713710    0.274476
      6          8           0       -0.556552    0.178707   -0.255958
      7          6           0       -1.721687    0.348597    0.533186
      8          6           0       -2.766006   -0.550806    0.061059
      9          6           0       -3.643736   -1.281411   -0.309452
     10          1           0        0.439718    2.531991   -1.179988
     11          1           0       -0.333095    2.853767    0.384278
     12          1           0        1.427028    2.882668    0.255774
     13          1           0        0.666550    0.748201    1.309141
     14          1           0        1.614626    0.221451   -1.542268
     15          1           0        2.718712    0.757681   -0.257546
     16          1           0        1.046369   -1.831929   -0.023429
     17          1           0       -1.500124    0.136128    1.592727
     18          1           0       -2.087363    1.386026    0.487266
     19          1           0       -4.416201   -1.930947   -0.640143
 ---------------------------------------------------------------------

 SCF Done:  E(RB3LYP) =  -423.142746222     A.U. after    1 cycles

 The electronic state is 1-A.
 Alpha  occ. eigenvalues --  -19.15742 -19.13584 -10.26708 -10.26437 -10.25460
 Alpha  occ. eigenvalues --  -10.19568 -10.19038 -10.18996 -10.18401  -1.05127
 Alpha  occ. eigenvalues --   -1.04176  -0.81496  -0.76572  -0.72516  -0.69884
 Alpha  occ. eigenvalues --   -0.60904  -0.57598  -0.54315  -0.52114  -0.49666
 Alpha  occ. eigenvalues --   -0.48076  -0.46207  -0.44181  -0.43283  -0.41276
 Alpha  occ. eigenvalues --   -0.40077  -0.38606  -0.37698  -0.35932  -0.33084
 Alpha  occ. eigenvalues --   -0.28777  -0.28311  -0.26743  -0.24380
 Alpha virt. eigenvalues --   -0.01987   0.02521   0.04703   0.08398   0.10526
 Alpha virt. eigenvalues --    0.11825   0.12288   0.13634   0.14292   0.15141
 Alpha virt. eigenvalues --    0.16115   0.17772   0.19772   0.20309   0.20471

 Mulliken charges:
               1
     1  C   -0.405168
     2  C    0.137118
     3  C   -0.285606
     4  C    0.149520
     5  O   -0.243392
     6  O   -0.260222
     7  C   -0.219910
     8  C    0.283634
     9  C   -0.412426
    10  H    0.130535
    11  H    0.122366
    12  H    0.124942
    13  H    0.077312
    14  H    0.134048
    15  H    0.120021
    16  H    0.096293
    17  H    0.122014
    18  H    0.125079
    19  H    0.203841
 Sum of Mulliken charges =   0.00000

 Dipole moment (field-independent basis, Debye):
    X=             -1.9999    Y=              2.4214    Z=              0.2286  Tot=              3.1488
 Quadrupole moment (field-independent basis, Debye-Ang):
   XX=            -59.2455   YY=            -53.3952   ZZ=            -52.3201
   XY=              8.6591   XZ=             -1.8381   YZ=              2.3002

  Exact polarizability:  98.606  10.590  80.813   5.327   2.326  59.085
 Approx polarizability: 134.045  16.195 112.609  13.634   6.396  93.024

                      1                      2                      3
                      A                      A                      A
 Frequencies --     34.6511                54.3813                74.9297
 Red. masses --      3.5849                 3.4634                 3.4696
 Frc consts  --      0.0025                 0.0060                 0.0115
 IR Inten    --      0.5319                 5.0372                 2.1352

                      4                      5                      6
                      A                      A                      A
 Frequencies --    105.1775               134.2026               198.5831
 Red. masses --      2.6806                 3.1433                 1.8955
 Frc consts  --      0.0175                 0.0334                 0.0440
 IR Inten    --      3.3238                 1.9489                 2.0923

                      7                      8                      9
                      A                      A                      A
 Frequencies --    239.6124               271.2831               329.2716
 Red. masses --      1.3761                 3.7183                 3.5094
 Frc consts  --      0.0465                 0.1612                 0.2242
 IR Inten    --      1.9563                 2.0184                 2.4494

                     10                     11                     12
                      A                      A                      A
 Frequencies --    360.4023               399.1659               461.1529
 Red. masses --      3.1732                 5.0646                 3.1059
 Frc consts  --      0.2428                 0.4754                 0.3892
 IR Inten    --      1.2677                 5.6581                 0.3265

                     13                     14                     15
                      A                      A                      A
 Frequencies --    528.7755               546.7593               612.8924
 Red. masses --      2.0284                 4.6220                 1.1959
 Frc consts  --      0.3342                 0.8141                 0.2647
 IR Inten    --      6.3357                 6.0787                43.6710

                     16                     17                     18
                      A                      A                      A
 Frequencies --    679.3753               788.6134               860.1731
 Red. masses --      1.2435                 1.6420                 2.9555
 Frc consts  --      0.3382                 0.6017                 1.2884
 IR Inten    --     33.9056                 2.5470                 3.6324

                     19                     20                     21
                      A                      A                      A
 Frequencies --    941.0664               960.2777               977.0469
 Red. masses --      1.8086                 1.4253                 3.6527
 Frc consts  --      0.9437                 0.7744                 2.0545
 IR Inten    --      4.5345                 4.3829                 5.9382

                     22                     23                     24
                      A                      A                      A
 Frequencies --   1013.8418              1032.1029              1098.5633
 Red. masses --      3.2598                 1.6422                 5.1524
 Frc consts  --      1.9742                 1.0307                 3.6636
 IR Inten    --     10.9241                 3.2616               126.1216

                     25                     26                     27
                      A                      A                      A
 Frequencies --   1117.0971              1140.9017              1163.5628
 Red. masses --      2.4465                 2.4145                 2.2721
 Frc consts  --      1.7988                 1.8517                 1.8124
 IR Inten    --     45.6469                73.9171                78.5720

                     28                     29                     30
                      A                      A                      A
 Frequencies --   1244.4926              1254.8628              1292.6193
 Red. masses --      1.3236                 1.0902                 1.4003
 Frc consts  --      1.2078                 1.0115                 1.3785
 IR Inten    --      1.6795                 4.2281                 1.9910

                     31                     32                     33
                      A                      A                      A
 Frequencies --   1359.2306              1378.9735              1405.9899
 Red. masses --      1.2178                 1.3758                 1.2599
 Frc consts  --      1.3256                 1.5414                 1.4674
 IR Inten    --     68.6695                17.3934                15.5569

                     34                     35                     36
                      A                      A                      A
 Frequencies --   1416.5100              1427.9689              1443.8809
 Red. masses --      1.2685                 1.3326                 1.0941
 Frc consts  --      1.4996                 1.6010                 1.3439
 IR Inten    --     28.9314                 9.3688                 5.4867

                     37                     38                     39
                      A                      A                      A
 Frequencies --   1489.9293              1493.9542              1505.3047
 Red. masses --      1.0608                 1.0512                 1.0718
 Frc consts  --      1.3875                 1.3823                 1.4309
 IR Inten    --      1.2338                 3.5795                 4.4455

                     40                     41                     42
                      A                      A                      A
 Frequencies --   1829.7459              2249.0048              2915.1387
 Red. masses --      9.9329                 5.8887                 1.0835
 Frc consts  --     19.5934                17.5489                 5.4252
 IR Inten    --    183.7711                 2.6491                72.7641

                     43                     44                     45
                      A                      A                      A
 Frequencies --   2953.8776              2963.8803              2995.0455
 Red. masses --      1.0807                 1.0630                 1.0952
 Frc consts  --      5.5559                 5.5017                 5.7884
 IR Inten    --     23.7200                45.2939                26.2480

                     46                     47                     48
                      A                      A                      A
 Frequencies --   3025.1245              3041.8790              3107.4540
 Red. masses --      1.0642                 1.0354                 1.0975
 Frc consts  --      5.7380                 5.6448                 6.2440
 IR Inten    --      6.3330                14.0897                 3.0596

                     49                     50                     51
                      A                      A                      A
 Frequencies --   3115.2063              3119.1225              3505.7276
 Red. masses --      1.1005                 1.1021                 1.1641
 Frc consts  --      6.2923                 6.3171                 8.4297
 IR Inten    --     32.7633                22.2671                63.2539

 - Thermochemistry -
 -------------------
 Temperature   298.150 Kelvin.  Pressure   1.00000 Atm.
 Atom     1 has atomic number  6 and mass  12.00000

 Molecular mass:   126.06808 amu.
 Principal axes and moments of inertia in atomic units:
                           1         2         3
     Eigenvalues --   784.840782115.675412764.41522
           X            0.99958   0.02844  -0.00558
           Y           -0.02840   0.99957   0.00775
           Z            0.00580  -0.00759   0.99995
 This molecule is an asymmetric top.
 Rotational symmetry number  1.
 Warning -- assumption of classical behavior for rotation
           may cause significant error
 Rotational temperatures (Kelvin)      0.11036     0.04094     0.03133
 Rotational constants (GHZ):           2.29950     0.85303     0.65285
 Zero-point vibrational energy     404689.4 (Joules/Mol)
                                   96.72309 (Kcal/Mol)
 Warning -- explicit consideration of  15 degrees of freedom as
           vibrations may cause significant error
 Vibrational temperatures:     49.86    78.24   107.81   151.33   193.09
          (Kelvin)            285.72   344.75   390.32   473.75   518.54
                              574.31   663.50   760.79   786.66   881.81
                              977.47  1134.64  1237.60  1353.98  1381.62
                             1405.75  1458.69  1484.96  1580.59  1607.25
                             1641.50  1674.11  1790.55  1805.47  1859.79
                             1955.63  1984.03  2022.90  2038.04  2054.53
                             2077.42  2143.67  2149.46  2165.79  2632.59
                             3235.81  4194.23  4249.97  4264.36  4309.20
                             4352.47  4376.58  4470.93  4482.08  4487.72
                             5043.95

 Zero-point correction=                           0.154138 (Hartree/Particle)
 Thermal correction to Energy=                    0.164864
 Thermal correction to Enthalpy=                  0.165808
 Thermal correction to Gibbs Free Energy=         0.116551
 Sum of electronic and zero-point Energies=           -422.988608
 Sum of electronic and thermal Energies=              -422.977883
 Sum of electronic and thermal Enthalpies=            -422.976938
 Sum of electronic and thermal Free Energies=         -423.026195

                     E (Thermal)             CV                S
                      KCal/Mol        Cal/Mol-Kelvin    Cal/Mol-Kelvin
 Total                  103.454             36.895            103.669
 Electronic               0.000              0.000              0.000
 Translational            0.889              2.981             40.409
 Rotational               0.889              2.981             29.908
 Vibrational            101.676             30.934             33.353
 Vibration     1          0.594              1.983              5.544
 Vibration     2          0.596              1.976              4.651
 Vibration     3          0.599              1.966              4.019
 Vibration     4          0.605              1.945              3.356
 Vibration     5          0.613              1.919              2.885
 Vibration     6          0.637              1.842              2.146
 Vibration     7          0.657              1.780              1.806
 Vibration     8          0.675              1.726              1.588
 Vibration     9          0.712              1.617              1.264
 Vibration    10          0.735              1.554              1.120
 Vibration    11          0.765              1.472              0.966
 Vibration    12          0.819              1.336              0.763
 Vibration    13          0.884              1.186              0.590
 Vibration    14          0.902              1.147              0.551
 Vibration    15          0.972              1.005              0.428

 Optimization completed.
    -- Stationary point found.
 Normal termination of Gaussian 09 at Mon Jan 27 16:18:59 2020.
