 Gaussian 09, Revision D.01,
 Gaussian 09:  ES64L-G09RevD.01 24-Apr-2013

 -----------------------------
 # b3lyp 6-31G(2df,p) opt Freq
 -----------------------------

 -----
 titel
 -----
 Symbolic Z-matrix:
 Charge =  0 Multiplicity = 1

 SCF Done:  E(RB3LYP) =  -423.184366214     A.U. after   13 cycles
 Optimization completed.
    -- Stationary point found.
 Normal termination of Gaussian 09 at Tue Jan 28 03:16:48 2020.

 ----------------------------------------------------------------------
 #N Geom=AllCheck Guess=TCheck SCRF=Check GenChk RB3LYP/6-31G(2df,p) Fr
 eq
 ----------------------------------------------------------------------

 Structure from the checkpoint file:  "/scratch/puck/g09_fa59050d-3410-4cad-a52d-d080f0fe4805/Gau-66899.chk"
 -----
 titel
 -----
 Charge =  0 Multiplicity = 1

                         Standard orientation:
 ---------------------------------------------------------------------
 Center     Atomic      Atomic             Coordinates (Angstroms)
 Number     Number       Type             X           Y           Z
 ---------------------------------------------------------------------
      1          8           0        2.568623   -0.537388    0.026647
      2          6           0        1.324420   -0.254871   -0.584564
      3          6           0        0.903589    1.246337   -0.435266
      4          6           0       -0.343064    1.122154    0.473009
      5          8           0       -0.033716   -0.046499    1.259276
      6          6           0        0.159406   -0.954399    0.155882
      7          6           0       -1.126952   -0.806724   -0.652130
      8          6           0       -2.366974   -0.453483    0.130889
      9          6           0       -1.496710    0.646603   -0.412480
     10          1           0        2.458688   -0.342448    0.965547
     11          1           0        1.420699   -0.570469   -1.626172
     12          1           0        1.714616    1.798830    0.045683
     13          1           0        0.680346    1.726156   -1.391400
     14          1           0       -0.541630    1.959915    1.142222
     15          1           0        0.405356   -1.946878    0.535304
     16          1           0       -1.200017   -1.273000   -1.627144
     17          1           0       -3.313544   -0.611840   -0.373937
     18          1           0       -2.378204   -0.634399    1.199415
     19          1           0       -1.847858    1.291524   -1.208947
 ---------------------------------------------------------------------

 SCF Done:  E(RB3LYP) =  -423.184366214     A.U. after    1 cycles

 The electronic state is 1-A.
 Alpha  occ. eigenvalues --  -19.14528 -19.13112 -10.23622 -10.23092 -10.23011
 Alpha  occ. eigenvalues --  -10.19261 -10.19236 -10.18654 -10.18124  -1.05646
 Alpha  occ. eigenvalues --   -1.01078  -0.85873  -0.76561  -0.73905  -0.63378
 Alpha  occ. eigenvalues --   -0.60262  -0.56909  -0.56214  -0.52526  -0.51530
 Alpha  occ. eigenvalues --   -0.47473  -0.45168  -0.42576  -0.40630  -0.39410
 Alpha  occ. eigenvalues --   -0.38047  -0.37351  -0.35300  -0.33726  -0.32872
 Alpha  occ. eigenvalues --   -0.29125  -0.28260  -0.27332  -0.24903
 Alpha virt. eigenvalues --    0.07965   0.10573   0.11786   0.12555   0.12939
 Alpha virt. eigenvalues --    0.13682   0.14233   0.15424   0.15963   0.16281
 Alpha virt. eigenvalues --    0.16992   0.18240   0.19398   0.20066   0.22675

 Mulliken charges:
               1
     1  O   -0.448098
     2  C    0.175625
     3  C   -0.259568
     4  C    0.054731
     5  O   -0.280595
     6  C    0.003406
     7  C   -0.048619
     8  C   -0.314873
     9  C   -0.035570
    10  H    0.280464
    11  H    0.084157
    12  H    0.104089
    13  H    0.101501
    14  H    0.080661
    15  H    0.082445
    16  H    0.091593
    17  H    0.110553
    18  H    0.127247
    19  H    0.090852
 Sum of Mulliken charges =   0.00000

 Dipole moment (field-independent basis, Debye):
    X=             -1.3898    Y=              0.7727    Z=             -0.8086  Tot=              1.7840
 Quadrupole moment (field-independent basis, Debye-Ang):
   XX=            -57.4234   YY=            -51.3649   ZZ=            -52.1266
   XY=              1.4968   XZ=              3.2719   YZ=              0.3216

  Exact polarizability:  82.368   1.206  71.085   0.597   0.320  65.574
 Approx polarizability: 110.291  -1.618 108.931   0.460   0.924 105.642

                      1                      2                      3
                      A                      A                      A
 Frequencies --    125.1267               278.9840               303.2049
 Red. masses --      3.7624                 2.7786                 3.2524
 Frc consts  --      0.0347                 0.1274                 0.1762
 IR Inten    --      4.1601                 0.2038                 0.2938

                      4                      5                      6
                      A                      A                      A
 Frequencies --    371.2871               437.4798               456.8768
 Red. masses --      3.4041                 1.1995                 3.6519
 Frc consts  --      0.2765                 0.1353                 0.4491
 IR Inten    --      5.5846                67.4140                 3.2311

                      7                      8                      9
                      A                      A                      A
 Frequencies --    476.8943               606.1513               671.1902
 Red. masses --      2.2710                 4.4190                 3.1989
 Frc consts  --      0.3043                 0.9566                 0.8491
 IR Inten    --     16.3162                12.5467                 2.1129

                     10                     11                     12
                      A                      A                      A
 Frequencies --    755.5308               793.3723               819.8863
 Red. masses --      2.6814                 4.0681                 2.0977
 Frc consts  --      0.9018                 1.5087                 0.8308
 IR Inten    --      4.3265                15.5527                 2.7419

                     13                     14                     15
                      A                      A                      A
 Frequencies --    825.5133               855.7054               885.8734
 Red. masses --      1.6838                 2.6007                 2.4502
 Frc consts  --      0.6761                 1.1220                 1.1329
 IR Inten    --     13.0880                 7.3520                 7.1384

                     16                     17                     18
                      A                      A                      A
 Frequencies --    912.5952               938.2237               955.5412
 Red. masses --      2.8446                 2.8791                 2.0318
 Frc consts  --      1.3958                 1.4932                 1.0930
 IR Inten    --     13.7825                12.8680                 5.5913

                     19                     20                     21
                      A                      A                      A
 Frequencies --    972.0892               977.7076              1016.0381
 Red. masses --      2.5966                 3.0240                 2.0812
 Frc consts  --      1.4457                 1.7032                 1.2659
 IR Inten    --     12.1876                38.0852                 0.3622

                     22                     23                     24
                      A                      A                      A
 Frequencies --   1043.0950              1064.1153              1082.2772
 Red. masses --      2.1973                 1.8654                 1.6832
 Frc consts  --      1.4086                 1.2445                 1.1616
 IR Inten    --      3.4860                17.7201                21.9983

                     25                     26                     27
                      A                      A                      A
 Frequencies --   1085.8052              1094.4530              1109.0022
 Red. masses --      1.6138                 1.2614                 1.8388
 Frc consts  --      1.1210                 0.8902                 1.3325
 IR Inten    --     15.6663                30.4868                45.8942

                     28                     29                     30
                      A                      A                      A
 Frequencies --   1155.4432              1188.1725              1215.1237
 Red. masses --      1.1599                 1.7072                 1.6680
 Frc consts  --      0.9124                 1.4200                 1.4511
 IR Inten    --     23.6787                 1.0681                 6.7872

                     31                     32                     33
                      A                      A                      A
 Frequencies --   1234.7775              1269.6137              1282.7826
 Red. masses --      1.2700                 1.3723                 1.3490
 Frc consts  --      1.1408                 1.3033                 1.3079
 IR Inten    --      7.1290                 3.3655                 3.5823

                     34                     35                     36
                      A                      A                      A
 Frequencies --   1293.6990              1323.6007              1331.4057
 Red. masses --      1.4441                 1.5573                 1.8744
 Frc consts  --      1.4240                 1.6074                 1.9576
 IR Inten    --      1.0998                 3.2337                 4.1976

                     37                     38                     39
                      A                      A                      A
 Frequencies --   1337.4716              1376.2696              1435.1497
 Red. masses --      1.7819                 1.7724                 1.2313
 Frc consts  --      1.8780                 1.9780                 1.4942
 IR Inten    --     16.0789                 1.3395                71.1181

                     40                     41                     42
                      A                      A                      A
 Frequencies --   1473.0177              1487.7605              3065.2322
 Red. masses --      1.2773                 1.1020                 1.0601
 Frc consts  --      1.6329                 1.4371                 5.8683
 IR Inten    --      1.4858                 3.7589                19.8382

                     43                     44                     45
                      A                      A                      A
 Frequencies --   3087.8711              3112.1193              3117.2182
 Red. masses --      1.0873                 1.0918                 1.0939
 Frc consts  --      6.1083                 6.2301                 6.2628
 IR Inten    --     23.6742                35.9856                18.6509

                     46                     47                     48
                      A                      A                      A
 Frequencies --   3119.0260              3139.8844              3181.7838
 Red. masses --      1.0982                 1.0535                 1.0888
 Frc consts  --      6.2947                 6.1197                 6.4941
 IR Inten    --     31.2425                15.3707                12.5476

                     49                     50                     51
                      A                      A                      A
 Frequencies --   3190.3940              3229.0996              3782.6220
 Red. masses --      1.0952                 1.1156                 1.0654
 Frc consts  --      6.5682                 6.8539                 8.9815
 IR Inten    --      8.2874                 5.6042                17.8667

 - Thermochemistry -
 -------------------
 Temperature   298.150 Kelvin.  Pressure   1.00000 Atm.
 Atom     1 has atomic number  8 and mass  15.99491

 Molecular mass:   126.06808 amu.
 Principal axes and moments of inertia in atomic units:
                           1         2         3
     Eigenvalues --   495.500891200.109751303.44444
           X            0.99983   0.01722   0.00592
           Y           -0.01710   0.99967  -0.01896
           Z           -0.00625   0.01886   0.99980
 This molecule is an asymmetric top.
 Rotational symmetry number  1.
 Warning -- assumption of classical behavior for rotation
           may cause significant error
 Rotational temperatures (Kelvin)      0.17480     0.07217     0.06645
 Rotational constants (GHZ):           3.64226     1.50381     1.38459
 Zero-point vibrational energy     426729.2 (Joules/Mol)
                                  101.99073 (Kcal/Mol)
 Warning -- explicit consideration of   8 degrees of freedom as
           vibrations may cause significant error
 Vibrational temperatures:    180.03   401.40   436.24   534.20   629.44
          (Kelvin)            657.34   686.14   872.12   965.69  1087.04
                             1141.48  1179.63  1187.73  1231.17  1274.57
                             1313.02  1349.89  1374.81  1398.62  1406.70
                             1461.85  1500.78  1531.02  1557.15  1562.23
                             1574.67  1595.60  1662.42  1709.51  1748.29
                             1776.57  1826.69  1845.64  1861.34  1904.36
                             1915.59  1924.32  1980.14  2064.86  2119.34
                             2140.55  4410.18  4442.75  4477.64  4484.98
                             4487.58  4517.59  4577.87  4590.26  4645.95
                             5442.34

 Zero-point correction=                           0.162533 (Hartree/Particle)
 Thermal correction to Energy=                    0.169327
 Thermal correction to Enthalpy=                  0.170271
 Thermal correction to Gibbs Free Energy=         0.131643
 Sum of electronic and zero-point Energies=           -423.021834
 Sum of electronic and thermal Energies=              -423.015039
 Sum of electronic and thermal Enthalpies=            -423.014095
 Sum of electronic and thermal Free Energies=         -423.052724

                     E (Thermal)             CV                S
                      KCal/Mol        Cal/Mol-Kelvin    Cal/Mol-Kelvin
 Total                  106.254             28.831             81.301
 Electronic               0.000              0.000              0.000
 Translational            0.889              2.981             40.409
 Rotational               0.889              2.981             28.140
 Vibrational            104.477             22.870             12.752
 Vibration     1          0.610              1.928              3.020
 Vibration     2          0.679              1.712              1.540
 Vibration     3          0.695              1.668              1.399
 Vibration     4          0.743              1.531              1.074
 Vibration     5          0.798              1.388              0.835
 Vibration     6          0.815              1.346              0.775
 Vibration     7          0.833              1.301              0.718
 Vibration     8          0.965              1.019              0.439

 Normal termination of Gaussian 09 at Tue Jan 28 04:18:33 2020.
