 Gaussian 09, Revision D.01,
 Gaussian 09:  ES64L-G09RevD.01 24-Apr-2013

 -----------------------------
 # b3lyp 6-31G(2df,p) opt Freq
 -----------------------------

 -----
 titel
 -----
 Symbolic Z-matrix:
 Charge =  0 Multiplicity = 1

 SCF Done:  E(RB3LYP) =  -423.141909652     A.U. after   13 cycles
 Optimization completed.
    -- Stationary point found.
 Normal termination of Gaussian 09 at Tue Jan 28 09:17:44 2020.

 ----------------------------------------------------------------------
 #N Geom=AllCheck Guess=TCheck SCRF=Check GenChk RB3LYP/6-31G(2df,p) Fr
 eq
 ----------------------------------------------------------------------

 Structure from the checkpoint file:  "/scratch/puck/g09_067d1a2b-9187-4749-86ad-442be252b0eb/Gau-107400.chk"
 -----
 titel
 -----
 Charge =  0 Multiplicity = 1

                         Standard orientation:
 ---------------------------------------------------------------------
 Center     Atomic      Atomic             Coordinates (Angstroms)
 Number     Number       Type             X           Y           Z
 ---------------------------------------------------------------------
      1          8           0       -2.799155    0.076367   -0.602191
      2          6           0       -2.023226   -0.496537    0.442571
      3          6           0       -0.589114   -0.094937    0.227469
      4          6           0        0.572405   -0.658593    1.119563
      5          6           0        1.423531   -0.104604   -0.080238
      6          8           0        2.766572   -0.393483   -0.289778
      7          6           0        0.251080   -0.591580   -1.004311
      8          6           0        1.096761    1.390559    0.016620
      9          6           0       -0.221507    1.401403    0.215517
     10          1           0       -3.721410   -0.150909   -0.451637
     11          1           0       -2.360767   -0.140188    1.430172
     12          1           0       -2.106002   -1.595339    0.445836
     13          1           0        0.725196   -0.204498    2.101069
     14          1           0        0.572195   -1.753734    1.183548
     15          1           0        2.863891   -1.347848   -0.364122
     16          1           0        0.105905   -0.077151   -1.955143
     17          1           0        0.218657   -1.680898   -1.131333
     18          1           0        1.817349    2.190445   -0.073746
     19          1           0       -0.913928    2.222776    0.327968
 ---------------------------------------------------------------------

 SCF Done:  E(RB3LYP) =  -423.141909652     A.U. after    1 cycles

 The electronic state is 1-A.
 Alpha  occ. eigenvalues --  -19.14004 -19.13526 -10.24012 -10.22746 -10.19834
 Alpha  occ. eigenvalues --  -10.18079 -10.17728 -10.17282 -10.17100  -1.02655
 Alpha  occ. eigenvalues --   -1.01559  -0.88756  -0.73101  -0.70975  -0.65886
 Alpha  occ. eigenvalues --   -0.62548  -0.54976  -0.52610  -0.50939  -0.50184
 Alpha  occ. eigenvalues --   -0.47139  -0.44707  -0.41332  -0.40461  -0.39916
 Alpha  occ. eigenvalues --   -0.37945  -0.36972  -0.34433  -0.32585  -0.32004
 Alpha  occ. eigenvalues --   -0.28854  -0.26763  -0.26341  -0.22247
 Alpha virt. eigenvalues --    0.01711   0.07217   0.08107   0.10755   0.12268
 Alpha virt. eigenvalues --    0.14374   0.15003   0.16458   0.16917   0.17496
 Alpha virt. eigenvalues --    0.18795   0.19901   0.20713   0.21403   0.22516

 Mulliken charges:
               1
     1  O   -0.422985
     2  C   -0.203845
     3  C    0.316310
     4  C   -0.331538
     5  C    0.363907
     6  O   -0.489536
     7  C   -0.302270
     8  C   -0.120518
     9  C   -0.116611
    10  H    0.288407
    11  H    0.086460
    12  H    0.082391
    13  H    0.096334
    14  H    0.080167
    15  H    0.278970
    16  H    0.106156
    17  H    0.077735
    18  H    0.104961
    19  H    0.105504
 Sum of Mulliken charges =   0.00000

 Dipole moment (field-independent basis, Debye):
    X=             -1.5657    Y=             -1.8056    Z=              0.9517  Tot=              2.5724
 Quadrupole moment (field-independent basis, Debye-Ang):
   XX=            -49.6688   YY=            -49.0671   ZZ=            -55.0141
   XY=             -1.2968   XZ=             -2.3528   YZ=              0.8153

  Exact polarizability:  88.957  -0.382  74.880  -1.826  -0.142  63.914
 Approx polarizability: 130.254  -1.461 111.409  -3.935  -0.534  97.920

                      1                      2                      3
                      A                      A                      A
 Frequencies --     79.7966               155.7594               237.6241
 Red. masses --      4.1848                 4.6589                 1.5244
 Frc consts  --      0.0157                 0.0666                 0.0507
 IR Inten    --      1.8466                 2.2197                48.2511

                      4                      5                      6
                      A                      A                      A
 Frequencies --    274.9460               290.4444               333.6272
 Red. masses --      1.2078                 1.5105                 3.1126
 Frc consts  --      0.0538                 0.0751                 0.2041
 IR Inten    --     34.9016                81.4329                47.8204

                      7                      8                      9
                      A                      A                      A
 Frequencies --    380.2341               418.9053               476.3689
 Red. masses --      2.8369                 3.7805                 1.9803
 Frc consts  --      0.2417                 0.3909                 0.2648
 IR Inten    --      6.2618                 0.1995                 0.5914

                     10                     11                     12
                      A                      A                      A
 Frequencies --    538.8801               549.2898               630.4358
 Red. masses --      1.9070                 2.7345                 4.9939
 Frc consts  --      0.3263                 0.4861                 1.1694
 IR Inten    --      0.2413                 0.5659                17.2950

                     13                     14                     15
                      A                      A                      A
 Frequencies --    650.7178               695.9910               711.4330
 Red. masses --      3.4157                 1.5109                 3.2450
 Frc consts  --      0.8522                 0.4312                 0.9677
 IR Inten    --      4.4844                30.4278                 0.8138

                     16                     17                     18
                      A                      A                      A
 Frequencies --    864.5581               872.4309               903.6396
 Red. masses --      2.9151                 4.1087                 1.3848
 Frc consts  --      1.2838                 1.8425                 0.6663
 IR Inten    --      0.8137                 0.6161                 0.1570

                     19                     20                     21
                      A                      A                      A
 Frequencies --    920.0538               941.0702               979.4901
 Red. masses --      2.2661                 1.9484                 2.2787
 Frc consts  --      1.1302                 1.0167                 1.2881
 IR Inten    --      1.7924                 5.4411                10.8329

                     22                     23                     24
                      A                      A                      A
 Frequencies --   1032.0850              1051.6317              1057.2446
 Red. masses --      1.7051                 1.8468                 1.2542
 Frc consts  --      1.0701                 1.2033                 0.8260
 IR Inten    --     13.7154                16.0642                 0.9123

                     25                     26                     27
                      A                      A                      A
 Frequencies --   1062.4921              1087.4969              1115.1426
 Red. masses --      1.7025                 2.7026                 1.3713
 Frc consts  --      1.1323                 1.8832                 1.0047
 IR Inten    --     60.5196                 4.7956                28.5698

                     28                     29                     30
                      A                      A                      A
 Frequencies --   1146.3985              1174.4702              1182.9246
 Red. masses --      1.9730                 1.4272                 1.5093
 Frc consts  --      1.5277                 1.1599                 1.2444
 IR Inten    --     17.1400                 1.9003                 2.4596

                     31                     32                     33
                      A                      A                      A
 Frequencies --   1236.6958              1253.0735              1277.6926
 Red. masses --      1.5822                 1.4009                 1.2929
 Frc consts  --      1.4257                 1.2960                 1.2436
 IR Inten    --     24.6057                65.2115                33.1508

                     34                     35                     36
                      A                      A                      A
 Frequencies --   1298.7334              1346.8932              1394.9195
 Red. masses --      2.1763                 2.3510                 2.0147
 Frc consts  --      2.1628                 2.5129                 2.3097
 IR Inten    --    204.3990                 7.6609                 4.8965

                     37                     38                     39
                      A                      A                      A
 Frequencies --   1467.1943              1472.7856              1514.3011
 Red. masses --      1.6127                 1.1099                 1.1477
 Frc consts  --      2.0454                 1.4184                 1.5506
 IR Inten    --     10.6048                 1.3215                 0.5220

                     40                     41                     42
                      A                      A                      A
 Frequencies --   1518.6113              1635.7143              2958.5168
 Red. masses --      1.1286                 6.3242                 1.0558
 Frc consts  --      1.5336                 9.9695                 5.4448
 IR Inten    --      5.7327                 3.4838                59.6789

                     43                     44                     45
                      A                      A                      A
 Frequencies --   2987.1450              3022.8141              3037.1703
 Red. masses --      1.1052                 1.0608                 1.0616
 Frc consts  --      5.8102                 5.7110                 5.7697
 IR Inten    --     49.0340                30.3213                68.3200

                     46                     47                     48
                      A                      A                      A
 Frequencies --   3114.5649              3130.1995              3226.5226
 Red. masses --      1.1047                 1.1028                 1.0859
 Frc consts  --      6.3138                 6.3661                 6.6605
 IR Inten    --     34.2804                24.3268                 1.7802

                     49                     50                     51
                      A                      A                      A
 Frequencies --   3253.7724              3823.1517              3828.7750
 Red. masses --      1.1112                 1.0659                 1.0663
 Frc consts  --      6.9311                 9.1791                 9.2102
 IR Inten    --      6.5595                23.0461                20.5342

 - Thermochemistry -
 -------------------
 Temperature   298.150 Kelvin.  Pressure   1.00000 Atm.
 Atom     1 has atomic number  8 and mass  15.99491

 Molecular mass:   126.06808 amu.
 Principal axes and moments of inertia in atomic units:
                           1         2         3
     Eigenvalues --   477.523671549.840991658.98641
           X            0.99997   0.00278  -0.00720
           Y           -0.00285   0.99996  -0.00890
           Z            0.00718   0.00892   0.99993
 This molecule is an asymmetric top.
 Rotational symmetry number  1.
 Warning -- assumption of classical behavior for rotation
           may cause significant error
 Rotational temperatures (Kelvin)      0.18138     0.05589     0.05221
 Rotational constants (GHZ):           3.77938     1.16447     1.08786
 Zero-point vibrational energy     416389.1 (Joules/Mol)
                                   99.51939 (Kcal/Mol)
 Warning -- explicit consideration of  11 degrees of freedom as
           vibrations may cause significant error
 Vibrational temperatures:    114.81   224.10   341.89   395.59   417.88
          (Kelvin)            480.01   547.07   602.71   685.39   775.33
                              790.30   907.06   936.24  1001.37  1023.59
                             1243.90  1255.23  1300.13  1323.75  1353.99
                             1409.27  1484.94  1513.06  1521.14  1528.69
                             1564.66  1604.44  1649.41  1689.80  1701.96
                             1779.33  1802.89  1838.31  1868.59  1937.88
                             2006.98  2110.96  2119.01  2178.74  2184.94
                             2353.43  4256.64  4297.83  4349.15  4369.81
                             4481.16  4503.65  4642.24  4681.45  5500.66
                             5508.75

 Zero-point correction=                           0.158594 (Hartree/Particle)
 Thermal correction to Energy=                    0.166983
 Thermal correction to Enthalpy=                  0.167928
 Thermal correction to Gibbs Free Energy=         0.125955
 Sum of electronic and zero-point Energies=           -422.983315
 Sum of electronic and thermal Energies=              -422.974926
 Sum of electronic and thermal Enthalpies=            -422.973982
 Sum of electronic and thermal Free Energies=         -423.015955

                     E (Thermal)             CV                S
                      KCal/Mol        Cal/Mol-Kelvin    Cal/Mol-Kelvin
 Total                  104.784             33.406             88.340
 Electronic               0.000              0.000              0.000
 Translational            0.889              2.981             40.409
 Rotational               0.889              2.981             28.598
 Vibrational            103.006             27.445             19.334
 Vibration     1          0.600              1.963              3.896
 Vibration     2          0.620              1.896              2.601
 Vibration     3          0.656              1.783              1.821
 Vibration     4          0.677              1.720              1.565
 Vibration     5          0.686              1.692              1.471
 Vibration     6          0.715              1.608              1.242
 Vibration     7          0.750              1.512              1.038
 Vibration     8          0.782              1.429              0.896
 Vibration     9          0.833              1.302              0.720
 Vibration    10          0.894              1.164              0.568
 Vibration    11          0.905              1.141              0.546

 Optimization completed.
    -- Stationary point found.
 Normal termination of Gaussian 09 at Tue Jan 28 10:00:04 2020.
