 Gaussian 09, Revision D.01,
 Gaussian 09:  ES64L-G09RevD.01 24-Apr-2013

 -----------------------------
 # b3lyp 6-31G(2df,p) opt Freq
 -----------------------------

 -----
 titel
 -----
 Symbolic Z-matrix:
 Charge =  0 Multiplicity = 1

 SCF Done:  E(RB3LYP) =  -423.148903137     A.U. after   14 cycles
 Optimization completed.
    -- Stationary point found.
 Normal termination of Gaussian 09 at Mon Jan 27 22:56:59 2020.

 ----------------------------------------------------------------------
 #N Geom=AllCheck Guess=TCheck SCRF=Check GenChk RB3LYP/6-31G(2df,p) Fr
 eq
 ----------------------------------------------------------------------

 Structure from the checkpoint file:  "/scratch/puck/g09_9bcb6d08-3e13-4636-a265-d3add5c6ff96/Gau-183491.chk"
 -----
 titel
 -----
 Charge =  0 Multiplicity = 1

                         Standard orientation:
 ---------------------------------------------------------------------
 Center     Atomic      Atomic             Coordinates (Angstroms)
 Number     Number       Type             X           Y           Z
 ---------------------------------------------------------------------
      1          8           0       -3.478741   -0.285652    0.047468
      2          6           0       -2.170422    0.027217    0.430145
      3          6           0       -1.311852    0.831334   -0.500472
      4          6           0        0.013199    1.197964    0.173079
      5          6           0        0.303031   -0.326041    0.415822
      6          6           0        1.538385   -0.852942   -0.328577
      7          6           0        2.807206   -0.322788    0.297505
      8          8           0        3.554396    0.465212   -0.223797
      9          6           0       -1.031211   -0.671206   -0.257511
     10          1           0       -3.505624   -0.387899   -0.909889
     11          1           0       -2.144375    0.205542    1.503713
     12          1           0       -1.743167    1.324299   -1.365292
     13          1           0        0.740658    1.642298   -0.510250
     14          1           0       -0.059986    1.832090    1.062918
     15          1           0        0.359672   -0.619744    1.472067
     16          1           0        1.551652   -1.950275   -0.270424
     17          1           0        1.511893   -0.557450   -1.381882
     18          1           0        3.003762   -0.698745    1.329466
     19          1           0       -1.209751   -1.527825   -0.899747
 ---------------------------------------------------------------------

 SCF Done:  E(RB3LYP) =  -423.148903137     A.U. after    1 cycles

 The electronic state is 1-A.
 Alpha  occ. eigenvalues --  -19.14867 -19.14180 -10.27336 -10.24187 -10.20963
 Alpha  occ. eigenvalues --  -10.19814 -10.19710 -10.19661 -10.19279  -1.04801
 Alpha  occ. eigenvalues --   -1.03492  -0.89635  -0.78392  -0.70465  -0.65234
 Alpha  occ. eigenvalues --   -0.61315  -0.57795  -0.54387  -0.51906  -0.49459
 Alpha  occ. eigenvalues --   -0.48029  -0.45519  -0.43623  -0.43188  -0.39958
 Alpha  occ. eigenvalues --   -0.38966  -0.37915  -0.36471  -0.35374  -0.33840
 Alpha  occ. eigenvalues --   -0.33283  -0.26529  -0.25710  -0.23841
 Alpha virt. eigenvalues --   -0.02468   0.06922   0.09464   0.09872   0.10371
 Alpha virt. eigenvalues --    0.12031   0.13178   0.14115   0.14845   0.14997
 Alpha virt. eigenvalues --    0.16768   0.17205   0.18934   0.20829   0.23361

 Mulliken charges:
               1
     1  O   -0.441908
     2  C    0.148453
     3  C   -0.108320
     4  C   -0.259906
     5  C   -0.001184
     6  C   -0.297596
     7  C    0.160786
     8  O   -0.238964
     9  C   -0.124299
    10  H    0.284442
    11  H    0.100218
    12  H    0.085818
    13  H    0.124674
    14  H    0.101682
    15  H    0.074760
    16  H    0.113431
    17  H    0.120766
    18  H    0.073724
    19  H    0.083424
 Sum of Mulliken charges =   0.00000

 Dipole moment (field-independent basis, Debye):
    X=             -1.0772    Y=             -1.3182    Z=             -0.4609  Tot=              1.7636
 Quadrupole moment (field-independent basis, Debye-Ang):
   XX=            -68.9922   YY=            -52.5887   ZZ=            -49.9763
   XY=             -5.0030   XZ=              7.1924   YZ=              0.8997

  Exact polarizability:  93.456   2.537  68.843   2.264  -1.561  67.530
 Approx polarizability: 119.740   8.236 109.347  -1.735  -5.844 106.091

                      1                      2                      3
                      A                      A                      A
 Frequencies --     43.6821                69.6196               128.6490
 Red. masses --      6.6474                 4.9614                 1.6290
 Frc consts  --      0.0075                 0.0142                 0.0159
 IR Inten    --      5.9787                 4.4469                29.7358

                      4                      5                      6
                      A                      A                      A
 Frequencies --    155.8246               191.3135               266.3358
 Red. masses --      1.3805                 3.3348                 2.8732
 Frc consts  --      0.0197                 0.0719                 0.1201
 IR Inten    --     57.7587                 2.1340                 1.8211

                      7                      8                      9
                      A                      A                      A
 Frequencies --    281.4336               365.4775               435.3331
 Red. masses --      3.9156                 3.9424                 2.0168
 Frc consts  --      0.1827                 0.3103                 0.2252
 IR Inten    --      8.0758                 2.5789                 0.0923

                     10                     11                     12
                      A                      A                      A
 Frequencies --    481.5635               523.3883               715.2986
 Red. masses --      3.2079                 2.7572                 2.9248
 Frc consts  --      0.4383                 0.4450                 0.8817
 IR Inten    --      7.0125                15.3012                 7.3289

                     13                     14                     15
                      A                      A                      A
 Frequencies --    786.5017               813.4897               864.9285
 Red. masses --      2.2640                 1.7981                 2.3890
 Frc consts  --      0.8251                 0.7011                 1.0530
 IR Inten    --      8.3816                 2.9948                 6.4123

                     16                     17                     18
                      A                      A                      A
 Frequencies --    884.8460               920.0131               945.8530
 Red. masses --      1.6742                 2.3543                 1.7305
 Frc consts  --      0.7723                 1.1741                 0.9122
 IR Inten    --      6.8526                12.4242                11.1589

                     19                     20                     21
                      A                      A                      A
 Frequencies --    961.6135               991.7835              1010.9401
 Red. masses --      2.4456                 1.2416                 2.1655
 Frc consts  --      1.3324                 0.7196                 1.3039
 IR Inten    --      3.6186                 1.4148                24.6107

                     22                     23                     24
                      A                      A                      A
 Frequencies --   1055.2567              1075.5630              1093.3346
 Red. masses --      1.7484                 2.1297                 1.6133
 Frc consts  --      1.1471                 1.4516                 1.1362
 IR Inten    --      4.4534                 2.3209                 4.6982

                     25                     26                     27
                      A                      A                      A
 Frequencies --   1117.5068              1130.7482              1158.0144
 Red. masses --      2.2083                 2.0964                 1.9184
 Frc consts  --      1.6248                 1.5792                 1.5157
 IR Inten    --     71.3719                 2.1024                 8.1889

                     28                     29                     30
                      A                      A                      A
 Frequencies --   1164.9400              1218.7562              1234.7773
 Red. masses --      1.5695                 1.2627                 1.3359
 Frc consts  --      1.2549                 1.1051                 1.2001
 IR Inten    --     59.0545                 1.1642                 0.9805

                     31                     32                     33
                      A                      A                      A
 Frequencies --   1251.8452              1271.2315              1294.7516
 Red. masses --      1.4546                 1.6046                 1.5118
 Frc consts  --      1.3431                 1.5278                 1.4932
 IR Inten    --      7.4636                 7.8836                 2.9221

                     34                     35                     36
                      A                      A                      A
 Frequencies --   1303.6179              1348.9595              1377.0692
 Red. masses --      1.5693                 1.5734                 1.4916
 Frc consts  --      1.5713                 1.6868                 1.6665
 IR Inten    --      1.6843                11.2452                 5.8679

                     37                     38                     39
                      A                      A                      A
 Frequencies --   1429.5072              1452.0663              1469.7410
 Red. masses --      1.1942                 1.8214                 1.1033
 Frc consts  --      1.4378                 2.2628                 1.4042
 IR Inten    --      9.5967                94.6794                 6.5027

                     40                     41                     42
                      A                      A                      A
 Frequencies --   1493.5409              1831.0494              2853.5379
 Red. masses --      1.1119                10.0263                 1.0818
 Frc consts  --      1.4613                19.8057                 5.1900
 IR Inten    --      3.8378               164.1426               112.5449

                     43                     44                     45
                      A                      A                      A
 Frequencies --   3014.6286              3018.4046              3046.6415
 Red. masses --      1.0810                 1.0649                 1.0625
 Frc consts  --      5.7885                 5.7165                 5.8106
 IR Inten    --     26.5452                22.5790                39.8693

                     46                     47                     48
                      A                      A                      A
 Frequencies --   3094.3949              3107.4529              3123.9477
 Red. masses --      1.0993                 1.1032                 1.0897
 Frc consts  --      6.2018                 6.2767                 6.2656
 IR Inten    --     12.8381                18.5325                24.2630

                     49                     50                     51
                      A                      A                      A
 Frequencies --   3157.1929              3169.2098              3811.4938
 Red. masses --      1.0882                 1.0957                 1.0658
 Frc consts  --      6.3911                 6.4841                 9.1222
 IR Inten    --     16.4049                20.2120                20.1618

 - Thermochemistry -
 -------------------
 Temperature   298.150 Kelvin.  Pressure   1.00000 Atm.
 Atom     1 has atomic number  8 and mass  15.99491

 Molecular mass:   126.06808 amu.
 Principal axes and moments of inertia in atomic units:
                           1         2         3
     Eigenvalues --   311.172272394.554562528.82731
           X            0.99994  -0.00800   0.00784
           Y            0.00784   0.99977   0.01998
           Z           -0.00800  -0.01991   0.99977
 This molecule is an asymmetric top.
 Rotational symmetry number  1.
 Rotational temperatures (Kelvin)      0.27835     0.03617     0.03425
 Rotational constants (GHZ):           5.79981     0.75369     0.71367
 Zero-point vibrational energy     412753.9 (Joules/Mol)
                                   98.65056 (Kcal/Mol)
 Warning -- explicit consideration of  11 degrees of freedom as
           vibrations may cause significant error
 Vibrational temperatures:     62.85   100.17   185.10   224.20   275.26
          (Kelvin)            383.20   404.92   525.84   626.35   692.86
                              753.04  1029.15  1131.60  1170.43  1244.44
                             1273.09  1323.69  1360.87  1383.55  1426.95
                             1454.52  1518.28  1547.49  1573.06  1607.84
                             1626.89  1666.12  1676.09  1753.52  1776.57
                             1801.12  1829.02  1862.86  1875.61  1940.85
                             1981.29  2056.74  2089.20  2114.63  2148.87
                             2634.47  4105.60  4337.37  4342.81  4383.43
                             4452.14  4470.93  4494.66  4542.49  4559.78
                             5483.88

 Zero-point correction=                           0.157210 (Hartree/Particle)
 Thermal correction to Energy=                    0.166430
 Thermal correction to Enthalpy=                  0.167374
 Thermal correction to Gibbs Free Energy=         0.122180
 Sum of electronic and zero-point Energies=           -422.991693
 Sum of electronic and thermal Energies=              -422.982473
 Sum of electronic and thermal Enthalpies=            -422.981529
 Sum of electronic and thermal Free Energies=         -423.026723

                     E (Thermal)             CV                S
                      KCal/Mol        Cal/Mol-Kelvin    Cal/Mol-Kelvin
 Total                  104.436             33.219             95.119
 Electronic               0.000              0.000              0.000
 Translational            0.889              2.981             40.409
 Rotational               0.889              2.981             29.023
 Vibrational            102.659             27.257             25.687
 Vibration     1          0.595              1.980              5.085
 Vibration     2          0.598              1.969              4.164
 Vibration     3          0.611              1.925              2.966
 Vibration     4          0.620              1.896              2.600
 Vibration     5          0.634              1.852              2.215
 Vibration     6          0.672              1.735              1.620
 Vibration     7          0.681              1.708              1.525
 Vibration     8          0.739              1.543              1.099
 Vibration     9          0.796              1.393              0.841
 Vibration    10          0.838              1.291              0.706
 Vibration    11          0.878              1.198              0.602

 Normal termination of Gaussian 09 at Mon Jan 27 23:37:05 2020.
