 Gaussian 09, Revision D.01,
 Gaussian 09:  ES64L-G09RevD.01 24-Apr-2013

 -----------------------------
 # b3lyp 6-31G(2df,p) opt Freq
 -----------------------------

 -----
 titel
 -----
 Symbolic Z-matrix:
 Charge =  0 Multiplicity = 1

 SCF Done:  E(RB3LYP) =  -423.128223074     A.U. after   14 cycles
 Optimization completed.
    -- Stationary point found.
 Normal termination of Gaussian 09 at Mon Jan 27 22:13:15 2020.

 ----------------------------------------------------------------------
 #N Geom=AllCheck Guess=TCheck SCRF=Check GenChk RB3LYP/6-31G(2df,p) Fr
 eq
 ----------------------------------------------------------------------

 Structure from the checkpoint file:  "/scratch/puck/g09_ec42c55b-37bf-45ec-8946-9d014849e733/Gau-28984.chk"
 -----
 titel
 -----
 Charge =  0 Multiplicity = 1

                         Standard orientation:
 ---------------------------------------------------------------------
 Center     Atomic      Atomic             Coordinates (Angstroms)
 Number     Number       Type             X           Y           Z
 ---------------------------------------------------------------------
      1          6           0       -3.121977   -0.305969   -0.017594
      2          6           0       -1.678929   -0.159567    0.417248
      3          6           0       -0.841820    0.907394   -0.223602
      4          6           0       -0.608993   -0.575253   -0.566256
      5          6           0        0.749534   -0.493095    0.078154
      6          6           0        1.721067   -1.484623    0.535119
      7          8           0        1.925324   -0.742839   -0.688346
      8          6           0        0.521879    0.985397    0.502109
      9          8           0        1.474713    1.853688   -0.043519
     10          1           0       -3.769275    0.384857    0.532603
     11          1           0       -3.235511   -0.090265   -1.085080
     12          1           0       -3.487859   -1.322897    0.159013
     13          1           0       -1.507735   -0.370815    1.473504
     14          1           0       -1.253026    1.694941   -0.842325
     15          1           0       -0.833742   -1.128578   -1.470483
     16          1           0        2.408706   -1.237803    1.342545
     17          1           0        1.527481   -2.546846    0.394798
     18          1           0        0.440248    1.178490    1.579922
     19          1           0        2.065842    1.306422   -0.580646
 ---------------------------------------------------------------------

 SCF Done:  E(RB3LYP) =  -423.128223074     A.U. after    1 cycles

 The electronic state is 1-A.
 Alpha  occ. eigenvalues --  -19.16363 -19.12932 -10.24764 -10.23980 -10.23503
 Alpha  occ. eigenvalues --  -10.20202 -10.19705 -10.19189 -10.18516  -1.08197
 Alpha  occ. eigenvalues --   -1.01451  -0.89717  -0.74774  -0.67902  -0.66354
 Alpha  occ. eigenvalues --   -0.63905  -0.57438  -0.55098  -0.52541  -0.50495
 Alpha  occ. eigenvalues --   -0.46911  -0.45207  -0.43774  -0.41744  -0.40075
 Alpha  occ. eigenvalues --   -0.38814  -0.37899  -0.37017  -0.33774  -0.32044
 Alpha  occ. eigenvalues --   -0.29234  -0.27914  -0.25989  -0.25522
 Alpha virt. eigenvalues --    0.07955   0.08665   0.09558   0.10413   0.11707
 Alpha virt. eigenvalues --    0.12780   0.14333   0.14867   0.15322   0.16410
 Alpha virt. eigenvalues --    0.16839   0.17614   0.18708   0.19566   0.22714

 Mulliken charges:
               1
     1  C   -0.422729
     2  C   -0.018492
     3  C   -0.099657
     4  C   -0.156268
     5  C    0.380076
     6  C   -0.268427
     7  O   -0.288473
     8  C    0.065880
     9  O   -0.445845
    10  H    0.123276
    11  H    0.119874
    12  H    0.121040
    13  H    0.080324
    14  H    0.096854
    15  H    0.096145
    16  H    0.122876
    17  H    0.121724
    18  H    0.076646
    19  H    0.295177
 Sum of Mulliken charges =   0.00000

 Dipole moment (field-independent basis, Debye):
    X=             -1.4260    Y=             -1.8226    Z=              0.8071  Tot=              2.4509
 Quadrupole moment (field-independent basis, Debye-Ang):
   XX=            -52.4919   YY=            -55.6163   ZZ=            -52.1289
   XY=             -2.6614   XZ=              2.3350   YZ=             -1.7142

  Exact polarizability:  89.926  -2.756  74.901   1.830  -1.143  63.764
 Approx polarizability: 114.747  -3.270 112.354  -2.869  -1.666 101.889

                      1                      2                      3
                      A                      A                      A
 Frequencies --    106.3088               172.8948               213.3862
 Red. masses --      3.1626                 3.4707                 2.6743
 Frc consts  --      0.0211                 0.0611                 0.0717
 IR Inten    --      1.1212                 2.4860                 0.6500

                      4                      5                      6
                      A                      A                      A
 Frequencies --    220.4314               255.5371               283.6816
 Red. masses --      1.1933                 3.4060                 2.4714
 Frc consts  --      0.0342                 0.1310                 0.1172
 IR Inten    --      0.1440                16.7910                 3.0644

                      7                      8                      9
                      A                      A                      A
 Frequencies --    364.0100               389.0046               412.3120
 Red. masses --      1.7846                 2.4969                 2.2362
 Frc consts  --      0.1393                 0.2226                 0.2240
 IR Inten    --     24.4764                 6.9358                26.2345

                     10                     11                     12
                      A                      A                      A
 Frequencies --    452.0697               581.4250               612.3692
 Red. masses --      4.3718                 4.5308                 3.4376
 Frc consts  --      0.5264                 0.9024                 0.7595
 IR Inten    --      1.2871                 5.0955                 9.3578

                     13                     14                     15
                      A                      A                      A
 Frequencies --    785.5033               820.9629               864.8276
 Red. masses --      2.1312                 3.0930                 1.9755
 Frc consts  --      0.7748                 1.2282                 0.8705
 IR Inten    --      8.3705                33.5779                 4.6323

                     16                     17                     18
                      A                      A                      A
 Frequencies --    881.4856               886.1109               928.8457
 Red. masses --      1.6350                 2.5537                 2.2978
 Frc consts  --      0.7485                 1.1814                 1.1680
 IR Inten    --      3.5009                 9.9967                 4.5590

                     19                     20                     21
                      A                      A                      A
 Frequencies --    959.3620               991.8479              1008.2736
 Red. masses --      3.1260                 2.9783                 2.0122
 Frc consts  --      1.6951                 1.7263                 1.2053
 IR Inten    --      4.3443                45.1961                11.5892

                     22                     23                     24
                      A                      A                      A
 Frequencies --   1044.4832              1048.1433              1090.9050
 Red. masses --      1.7129                 1.2730                 1.8146
 Frc consts  --      1.1010                 0.8240                 1.2723
 IR Inten    --      7.5551                 7.3162                 4.3830

                     25                     26                     27
                      A                      A                      A
 Frequencies --   1118.0065              1145.3666              1151.4532
 Red. masses --      1.2859                 2.2501                 1.6538
 Frc consts  --      0.9470                 1.7391                 1.2919
 IR Inten    --      1.4735                62.4144                46.0351

                     28                     29                     30
                      A                      A                      A
 Frequencies --   1158.7567              1179.4910              1207.5446
 Red. masses --      1.5093                 1.6421                 2.2566
 Frc consts  --      1.1940                 1.3460                 1.9387
 IR Inten    --      6.8711                 0.9377                 9.5812

                     31                     32                     33
                      A                      A                      A
 Frequencies --   1215.3964              1261.6478              1279.3132
 Red. masses --      1.5287                 1.9405                 1.5854
 Frc consts  --      1.3304                 1.8198                 1.5288
 IR Inten    --      7.1533                 6.1389                 1.8012

                     34                     35                     36
                      A                      A                      A
 Frequencies --   1347.5581              1414.0128              1419.1335
 Red. masses --      1.4161                 1.7608                 1.3227
 Frc consts  --      1.5151                 2.0743                 1.5695
 IR Inten    --      6.3862                11.8659                28.9307

                     37                     38                     39
                      A                      A                      A
 Frequencies --   1424.4474              1450.9894              1494.3389
 Red. masses --      1.4835                 1.9872                 1.0445
 Frc consts  --      1.7735                 2.4651                 1.3743
 IR Inten    --     35.8465                55.7572                 1.9369

                     40                     41                     42
                      A                      A                      A
 Frequencies --   1503.3450              1531.2872              3014.0741
 Red. masses --      1.0734                 1.6208                 1.0852
 Frc consts  --      1.4294                 2.2392                 5.8083
 IR Inten    --      5.0454                10.5391                51.1478

                     43                     44                     45
                      A                      A                      A
 Frequencies --   3031.6834              3086.3303              3086.9603
 Red. masses --      1.0350                 1.0769                 1.0628
 Frc consts  --      5.6049                 6.0438                 5.9674
 IR Inten    --     33.7900                 4.3659                23.0609

                     46                     47                     48
                      A                      A                      A
 Frequencies --   3097.3441              3106.7650              3175.5609
 Red. masses --      1.1016                 1.0988                 1.1194
 Frc consts  --      6.2267                 6.2489                 6.6506
 IR Inten    --     22.0418                42.0869                13.9004

                     49                     50                     51
                      A                      A                      A
 Frequencies --   3181.6532              3199.5685              3724.3326
 Red. masses --      1.0909                 1.0957                 1.0652
 Frc consts  --      6.5063                 6.6090                 8.7055
 IR Inten    --     11.7096                 7.7144                57.1262

 - Thermochemistry -
 -------------------
 Temperature   298.150 Kelvin.  Pressure   1.00000 Atm.
 Atom     1 has atomic number  6 and mass  12.00000

 Molecular mass:   126.06808 amu.
 Principal axes and moments of inertia in atomic units:
                           1         2         3
     Eigenvalues --   605.335501390.444311767.29480
           X            0.99991  -0.00278   0.01298
           Y            0.00300   0.99985  -0.01709
           Z           -0.01293   0.01713   0.99977
 This molecule is an asymmetric top.
 Rotational symmetry number  1.
 Warning -- assumption of classical behavior for rotation
           may cause significant error
 Rotational temperatures (Kelvin)      0.14308     0.06229     0.04901
 Rotational constants (GHZ):           2.98139     1.29796     1.02119
 Zero-point vibrational energy     414987.8 (Joules/Mol)
                                   99.18446 (Kcal/Mol)
 Warning -- explicit consideration of  12 degrees of freedom as
           vibrations may cause significant error
 Vibrational temperatures:    152.95   248.76   307.01   317.15   367.66
          (Kelvin)            408.15   523.73   559.69   593.22   650.43
                              836.54   881.06  1130.16  1181.18  1244.29
                             1268.26  1274.91  1336.40  1380.31  1427.05
                             1450.68  1502.78  1508.04  1569.57  1608.56
                             1647.93  1656.68  1667.19  1697.02  1737.39
                             1748.68  1815.23  1840.64  1938.83  2034.45
                             2041.81  2049.46  2087.65  2150.02  2162.98
                             2203.18  4336.57  4361.91  4440.54  4441.44
                             4456.38  4469.94  4568.92  4577.68  4603.46
                             5358.48

 Zero-point correction=                           0.158061 (Hartree/Particle)
 Thermal correction to Energy=                    0.166553
 Thermal correction to Enthalpy=                  0.167497
 Thermal correction to Gibbs Free Energy=         0.125275
 Sum of electronic and zero-point Energies=           -422.970163
 Sum of electronic and thermal Energies=              -422.961670
 Sum of electronic and thermal Enthalpies=            -422.960726
 Sum of electronic and thermal Free Energies=         -423.002948

                     E (Thermal)             CV                S
                      KCal/Mol        Cal/Mol-Kelvin    Cal/Mol-Kelvin
 Total                  104.514             32.912             88.864
 Electronic               0.000              0.000              0.000
 Translational            0.889              2.981             40.409
 Rotational               0.889              2.981             28.788
 Vibrational            102.736             26.950             19.667
 Vibration     1          0.605              1.944              3.335
 Vibration     2          0.626              1.876              2.404
 Vibration     3          0.644              1.821              2.015
 Vibration     4          0.647              1.810              1.956
 Vibration     5          0.666              1.753              1.692
 Vibration     6          0.682              1.704              1.511
 Vibration     7          0.738              1.546              1.105
 Vibration     8          0.757              1.494              1.004
 Vibration     9          0.776              1.444              0.918
 Vibration    10          0.811              1.356              0.790
 Vibration    11          0.938              1.071              0.483
 Vibration    12          0.972              1.006              0.429

 Optimization completed.
    -- Stationary point found.
 Normal termination of Gaussian 09 at Tue Jan 28 00:23:32 2020.
