 Gaussian 09, Revision D.01,
 Gaussian 09:  ES64L-G09RevD.01 24-Apr-2013

 -----------------------------
 # b3lyp 6-31G(2df,p) opt Freq
 -----------------------------

 -----
 titel
 -----
 Symbolic Z-matrix:
 Charge =  0 Multiplicity = 1

 SCF Done:  E(RB3LYP) =  -423.101668075     A.U. after   12 cycles
 Optimization completed.
    -- Stationary point found.
 Normal termination of Gaussian 09 at Mon Jan 27 22:06:03 2020.

 ----------------------------------------------------------------------
 #N Geom=AllCheck Guess=TCheck SCRF=Check GenChk RB3LYP/6-31G(2df,p) Fr
 eq
 ----------------------------------------------------------------------

 Structure from the checkpoint file:  "/scratch/puck/g09_2af3dc16-6f87-4837-8b68-2aa376badeba/Gau-85611.chk"
 -----
 titel
 -----
 Charge =  0 Multiplicity = 1

                         Standard orientation:
 ---------------------------------------------------------------------
 Center     Atomic      Atomic             Coordinates (Angstroms)
 Number     Number       Type             X           Y           Z
 ---------------------------------------------------------------------
      1          6           0       -2.245270    1.129834   -0.124928
      2          6           0       -1.171552    0.081338   -0.156947
      3          6           0       -1.374963   -1.323543   -0.666222
      4          6           0       -0.928177   -1.106349    0.762880
      5          6           0        0.567600   -0.721618    0.917849
      6          6           0        1.323392   -0.612098   -0.400828
      7          8           0        2.655677   -0.216095   -0.271910
      8          6           0        0.338573    0.454787   -0.022726
      9          8           0        0.803901    1.763685    0.002488
     10          1           0       -2.078627    1.860012    0.676179
     11          1           0       -2.292449    1.685873   -1.068583
     12          1           0       -3.225283    0.672277    0.043366
     13          1           0       -2.420078   -1.606944   -0.762746
     14          1           0       -0.743095   -1.782056   -1.417498
     15          1           0       -1.531956   -1.433812    1.600983
     16          1           0        1.126424   -0.784526    1.842804
     17          1           0        1.182639   -1.310072   -1.220894
     18          1           0        2.650480    0.750792   -0.251244
     19          1           0        0.597698    2.153628    0.858547
 ---------------------------------------------------------------------

 SCF Done:  E(RB3LYP) =  -423.101668075     A.U. after    1 cycles

 The electronic state is 1-A.
 Alpha  occ. eigenvalues --  -19.16706 -19.13198 -10.24031 -10.23144 -10.19988
 Alpha  occ. eigenvalues --  -10.19363 -10.18859 -10.18595 -10.18411  -1.05457
 Alpha  occ. eigenvalues --   -1.01434  -0.90968  -0.79319  -0.71927  -0.63817
 Alpha  occ. eigenvalues --   -0.62172  -0.57055  -0.55605  -0.51391  -0.50238
 Alpha  occ. eigenvalues --   -0.46617  -0.45391  -0.41781  -0.40783  -0.40062
 Alpha  occ. eigenvalues --   -0.39559  -0.38407  -0.36207  -0.34176  -0.30989
 Alpha  occ. eigenvalues --   -0.29689  -0.28728  -0.24459  -0.20646
 Alpha virt. eigenvalues --    0.05381   0.08390   0.09838   0.10736   0.12045
 Alpha virt. eigenvalues --    0.13079   0.14945   0.15791   0.15986   0.16790
 Alpha virt. eigenvalues --    0.17710   0.19646   0.21715   0.22308   0.23744

 Mulliken charges:
               1
     1  C   -0.486978
     2  C    0.275459
     3  C   -0.356608
     4  C   -0.109060
     5  C   -0.195440
     6  C    0.076986
     7  O   -0.451837
     8  C    0.261357
     9  O   -0.456416
    10  H    0.104061
    11  H    0.128329
    12  H    0.120063
    13  H    0.108663
    14  H    0.118774
    15  H    0.088977
    16  H    0.096478
    17  H    0.092618
    18  H    0.289539
    19  H    0.295035
 Sum of Mulliken charges =   0.00000

 Dipole moment (field-independent basis, Debye):
    X=             -2.0367    Y=              1.0690    Z=              1.2891  Tot=              2.6368
 Quadrupole moment (field-independent basis, Debye-Ang):
   XX=            -56.7857   YY=            -52.0011   ZZ=            -51.0260
   XY=              2.9699   XZ=              1.0390   YZ=              3.3613

  Exact polarizability:  83.785   0.864  74.853   0.685   1.312  65.350
 Approx polarizability: 111.865   1.765 113.817  -0.324  -0.999 104.518

                      1                      2                      3
                      A                      A                      A
 Frequencies --    135.7319               189.6150               216.0136
 Red. masses --      3.2997                 1.1384                 3.0996
 Frc consts  --      0.0358                 0.0241                 0.0852
 IR Inten    --      1.7358                 0.1399                 1.0109

                      4                      5                      6
                      A                      A                      A
 Frequencies --    258.7807               274.4223               290.4635
 Red. masses --      3.4091                 1.8984                 1.6395
 Frc consts  --      0.1345                 0.0842                 0.0815
 IR Inten    --      2.8212                11.2914                49.6653

                      7                      8                      9
                      A                      A                      A
 Frequencies --    313.0164               373.6221               416.0607
 Red. masses --      2.4293                 2.9830                 1.4708
 Frc consts  --      0.1402                 0.2453                 0.1500
 IR Inten    --     14.6184                 3.5050                46.3728

                     10                     11                     12
                      A                      A                      A
 Frequencies --    448.2083               466.9436               542.1217
 Red. masses --      2.3828                 2.5851                 3.2600
 Frc consts  --      0.2820                 0.3321                 0.5645
 IR Inten    --     29.0137                 9.5294                 1.8817

                     13                     14                     15
                      A                      A                      A
 Frequencies --    622.1750               687.3198               774.2792
 Red. masses --      3.2836                 4.7096                 2.4991
 Frc consts  --      0.7489                 1.3108                 0.8827
 IR Inten    --      5.5252                21.3814                 3.3305

                     16                     17                     18
                      A                      A                      A
 Frequencies --    856.5347               878.1601               887.3516
 Red. masses --      2.6664                 2.4596                 1.7762
 Frc consts  --      1.1526                 1.1175                 0.8240
 IR Inten    --      7.4639                 2.8738                14.1138

                     19                     20                     21
                      A                      A                      A
 Frequencies --    906.5547               915.4147               963.0919
 Red. masses --      3.6072                 1.7493                 1.4233
 Frc consts  --      1.7467                 0.8637                 0.7778
 IR Inten    --      6.7813                 4.2343                 0.9218

                     22                     23                     24
                      A                      A                      A
 Frequencies --    972.6376              1005.8553              1053.1650
 Red. masses --      1.4882                 1.4795                 1.4129
 Frc consts  --      0.8295                 0.8820                 0.9233
 IR Inten    --      7.4415                11.8777                 1.8263

                     25                     26                     27
                      A                      A                      A
 Frequencies --   1066.1278              1093.9905              1110.2018
 Red. masses --      1.7717                 1.5855                 1.7914
 Frc consts  --      1.1865                 1.1180                 1.3009
 IR Inten    --     39.4075                 6.6377                 7.7954

                     28                     29                     30
                      A                      A                      A
 Frequencies --   1120.8150              1168.2367              1222.0139
 Red. masses --      2.3245                 2.7028                 2.0353
 Frc consts  --      1.7204                 2.1734                 1.7907
 IR Inten    --     65.1947                43.1836                 9.1324

                     31                     32                     33
                      A                      A                      A
 Frequencies --   1238.9158              1259.2720              1295.1352
 Red. masses --      1.5951                 2.0042                 1.8458
 Frc consts  --      1.4425                 1.8725                 1.8242
 IR Inten    --     68.5225                21.5452                39.0661

                     34                     35                     36
                      A                      A                      A
 Frequencies --   1324.3634              1367.5834              1389.4360
 Red. masses --      1.8879                 2.7900                 1.3913
 Frc consts  --      1.9510                 3.0744                 1.5825
 IR Inten    --     18.5017                 8.4591                44.7580

                     37                     38                     39
                      A                      A                      A
 Frequencies --   1416.6662              1451.0495              1482.5018
 Red. masses --      1.3003                 2.5219                 1.0503
 Frc consts  --      1.5375                 3.1286                 1.3600
 IR Inten    --      8.3122                43.0470                 4.2658

                     40                     41                     42
                      A                      A                      A
 Frequencies --   1496.9741              1504.2272              3019.7399
 Red. masses --      1.0573                 1.2824                 1.0361
 Frc consts  --      1.3960                 1.7096                 5.5667
 IR Inten    --     11.0929                 4.0896                39.7279

                     43                     44                     45
                      A                      A                      A
 Frequencies --   3074.4372              3098.8264              3120.9172
 Red. masses --      1.1001                 1.0998                 1.0620
 Frc consts  --      6.1266                 6.2222                 6.0946
 IR Inten    --     26.4262                18.1101                 5.0248

                     46                     47                     48
                      A                      A                      A
 Frequencies --   3141.5866              3175.6454              3199.6346
 Red. masses --      1.0836                 1.0920                 1.0936
 Frc consts  --      6.3014                 6.4882                 6.5962
 IR Inten    --     38.0648                15.1307                 7.6174

                     49                     50                     51
                      A                      A                      A
 Frequencies --   3207.0925              3743.7418              3803.9707
 Red. masses --      1.1110                 1.0653                 1.0665
 Frc consts  --      6.7328                 8.7971                 9.0922
 IR Inten    --     16.9761                48.1575                31.9581

 - Thermochemistry -
 -------------------
 Temperature   298.150 Kelvin.  Pressure   1.00000 Atm.
 Atom     1 has atomic number  6 and mass  12.00000

 Molecular mass:   126.06808 amu.
 Principal axes and moments of inertia in atomic units:
                           1         2         3
     Eigenvalues --   627.208021202.111431554.56116
           X            0.99992  -0.01049   0.00674
           Y            0.01030   0.99957   0.02760
           Z           -0.00703  -0.02753   0.99960
 This molecule is an asymmetric top.
 Rotational symmetry number  1.
 Warning -- assumption of classical behavior for rotation
           may cause significant error
 Rotational temperatures (Kelvin)      0.13809     0.07205     0.05572
 Rotational constants (GHZ):           2.87742     1.50131     1.16093
 Zero-point vibrational energy     412954.7 (Joules/Mol)
                                   98.69855 (Kcal/Mol)
 Warning -- explicit consideration of  12 degrees of freedom as
           vibrations may cause significant error
 Vibrational temperatures:    195.29   272.81   310.80   372.33   394.83
          (Kelvin)            417.91   450.36   537.56   598.62   644.87
                              671.83   779.99   895.17   988.90  1114.01
                             1232.36  1263.47  1276.70  1304.33  1317.08
                             1385.67  1399.41  1447.20  1515.27  1533.92
                             1574.01  1597.33  1612.60  1680.83  1758.20
                             1782.52  1811.81  1863.41  1905.46  1967.65
                             1999.09  2038.26  2087.73  2132.99  2153.81
                             2164.24  4344.73  4423.42  4458.51  4490.30
                             4520.04  4569.04  4603.55  4614.28  5386.40
                             5473.06

 Zero-point correction=                           0.157286 (Hartree/Particle)
 Thermal correction to Energy=                    0.166017
 Thermal correction to Enthalpy=                  0.166961
 Thermal correction to Gibbs Free Energy=         0.124759
 Sum of electronic and zero-point Energies=           -422.944382
 Sum of electronic and thermal Energies=              -422.935651
 Sum of electronic and thermal Enthalpies=            -422.934707
 Sum of electronic and thermal Free Energies=         -422.976909

                     E (Thermal)             CV                S
                      KCal/Mol        Cal/Mol-Kelvin    Cal/Mol-Kelvin
 Total                  104.177             34.631             88.822
 Electronic               0.000              0.000              0.000
 Translational            0.889              2.981             40.409
 Rotational               0.889              2.981             28.551
 Vibrational            102.400             28.669             19.862
 Vibration     1          0.614              1.918              2.863
 Vibration     2          0.633              1.854              2.232
 Vibration     3          0.645              1.817              1.992
 Vibration     4          0.668              1.748              1.670
 Vibration     5          0.677              1.721              1.568
 Vibration     6          0.686              1.691              1.471
 Vibration     7          0.701              1.649              1.346
 Vibration     8          0.745              1.526              1.065
 Vibration     9          0.779              1.435              0.905
 Vibration    10          0.807              1.365              0.801
 Vibration    11          0.824              1.323              0.746
 Vibration    12          0.897              1.157              0.561

 Normal termination of Gaussian 09 at Mon Jan 27 23:06:54 2020.
