 Gaussian 09, Revision D.01,
 Gaussian 09:  ES64L-G09RevD.01 24-Apr-2013

 -----------------------------
 # b3lyp 6-31G(2df,p) opt Freq
 -----------------------------

 -----
 titel
 -----
 Symbolic Z-matrix:
 Charge =  0 Multiplicity = 1

 SCF Done:  E(RB3LYP) =  -423.177000108     A.U. after   13 cycles
 SCF Done:  E(RB3LYP) =  -423.177000468     A.U. after    6 cycles
 Optimization completed.
    -- Stationary point found.
 Normal termination of Gaussian 09 at Mon Jan 27 23:56:47 2020.

 ----------------------------------------------------------------------
 #N Geom=AllCheck Guess=TCheck SCRF=Check GenChk RB3LYP/6-31G(2df,p) Fr
 eq
 ----------------------------------------------------------------------

 Structure from the checkpoint file:  "/scratch/puck/g09_4478fc06-3b6d-4824-9613-936077fb66e3/Gau-194061.chk"
 -----
 titel
 -----
 Charge =  0 Multiplicity = 1

                         Standard orientation:
 ---------------------------------------------------------------------
 Center     Atomic      Atomic             Coordinates (Angstroms)
 Number     Number       Type             X           Y           Z
 ---------------------------------------------------------------------
      1          8           0        2.402905    0.134014   -0.103810
      2          6           0        1.203964   -0.535130    0.229465
      3          6           0        0.257385    0.350484    1.071494
      4          6           0        0.133508    1.541146    0.090793
      5          6           0       -0.608482    0.703403   -0.980749
      6          6           0       -1.898462    0.430234   -0.171840
      7          6           0       -1.131422   -0.433708    0.843413
      8          8           0       -0.777202   -1.511096   -0.052807
      9          6           0        0.117355   -0.731469   -0.862231
     10          1           0        2.946615   -0.478318   -0.607910
     11          1           0        1.413007   -1.505982    0.690024
     12          1           0        0.542745    0.549301    2.103080
     13          1           0       -0.477092    2.368320    0.458997
     14          1           0        1.108072    1.922463   -0.206990
     15          1           0       -0.704647    1.112647   -1.984834
     16          1           0       -2.346437    1.350186    0.210355
     17          1           0       -2.658166   -0.173595   -0.670388
     18          1           0       -1.642051   -0.822760    1.722431
     19          1           0        0.369247   -1.255379   -1.783895
 ---------------------------------------------------------------------

 SCF Done:  E(RB3LYP) =  -423.177000468     A.U. after    1 cycles

 The electronic state is 1-A.
 Alpha  occ. eigenvalues --  -19.14007 -19.13236 -10.23080 -10.22659 -10.22634
 Alpha  occ. eigenvalues --  -10.18804 -10.18685 -10.17547 -10.17082  -1.04774
 Alpha  occ. eigenvalues --   -1.01984  -0.83852  -0.74763  -0.71058  -0.66410
 Alpha  occ. eigenvalues --   -0.58517  -0.56087  -0.54076  -0.52286  -0.52136
 Alpha  occ. eigenvalues --   -0.46618  -0.45027  -0.41854  -0.39757  -0.37872
 Alpha  occ. eigenvalues --   -0.35753  -0.35051  -0.34519  -0.33384  -0.31831
 Alpha  occ. eigenvalues --   -0.31229  -0.30329  -0.27369  -0.23549
 Alpha virt. eigenvalues --    0.06943   0.09947   0.12052   0.13030   0.13174
 Alpha virt. eigenvalues --    0.15664   0.15868   0.16017   0.16910   0.17537
 Alpha virt. eigenvalues --    0.18247   0.18679   0.20894   0.21829   0.22149

 Mulliken charges:
               1
     1  O   -0.442909
     2  C    0.163221
     3  C   -0.102768
     4  C   -0.209361
     5  C   -0.067636
     6  C   -0.195684
     7  C    0.071789
     8  O   -0.267128
     9  C    0.010578
    10  H    0.285855
    11  H    0.074787
    12  H    0.067756
    13  H    0.086373
    14  H    0.123215
    15  H    0.064749
    16  H    0.091748
    17  H    0.101598
    18  H    0.076256
    19  H    0.067561
 Sum of Mulliken charges =   0.00000

 Dipole moment (field-independent basis, Debye):
    X=              0.3454    Y=              0.1628    Z=             -0.4012  Tot=              0.5539
 Quadrupole moment (field-independent basis, Debye-Ang):
   XX=            -51.4046   YY=            -55.5746   ZZ=            -50.2191
   XY=             -5.3532   XZ=             -3.1959   YZ=              0.6962

  Exact polarizability:  78.689  -2.556  70.401  -1.907   0.638  68.969
 Approx polarizability: 110.141  -0.777 109.031  -4.164   1.713 105.977

                      1                      2                      3
                      A                      A                      A
 Frequencies --    216.8062               269.3920               331.3285
 Red. masses --      3.4424                 1.1776                 3.6323
 Frc consts  --      0.0953                 0.0504                 0.2349
 IR Inten    --      0.8805               100.0833                 8.5614

                      4                      5                      6
                      A                      A                      A
 Frequencies --    407.9122               520.4987               548.4589
 Red. masses --      2.6971                 5.2438                 2.3380
 Frc consts  --      0.2644                 0.8370                 0.4144
 IR Inten    --      4.5500                 3.3205                 4.7974

                      7                      8                      9
                      A                      A                      A
 Frequencies --    579.3528               629.8811               693.2017
 Red. masses --      2.8971                 5.8390                 4.4790
 Frc consts  --      0.5729                 1.3649                 1.2681
 IR Inten    --      8.2079                 0.8012                 2.6854

                     10                     11                     12
                      A                      A                      A
 Frequencies --    771.8452               806.3192               818.4700
 Red. masses --      2.7435                 4.7081                 4.3590
 Frc consts  --      0.9630                 1.8035                 1.7205
 IR Inten    --      2.7855                 3.0227                 0.6573

                     13                     14                     15
                      A                      A                      A
 Frequencies --    876.9149               894.7782               908.0209
 Red. masses --      2.2457                 2.9013                 2.1016
 Frc consts  --      1.0175                 1.3686                 1.0209
 IR Inten    --     10.9500                 1.5523                 5.2571

                     16                     17                     18
                      A                      A                      A
 Frequencies --    918.0491               932.0730               944.7713
 Red. masses --      3.1528                 2.3166                 3.1983
 Frc consts  --      1.5656                 1.1857                 1.6820
 IR Inten    --      7.9416                 8.3785                 4.4484

                     19                     20                     21
                      A                      A                      A
 Frequencies --    958.1898               972.9683              1015.3298
 Red. masses --      1.6073                 1.8725                 2.6673
 Frc consts  --      0.8695                 1.0444                 1.6201
 IR Inten    --     17.5018                27.5116                10.4320

                     22                     23                     24
                      A                      A                      A
 Frequencies --   1026.4699              1054.2108              1101.4472
 Red. masses --      1.5848                 1.7543                 1.0831
 Frc consts  --      0.9838                 1.1487                 0.7742
 IR Inten    --     15.5696                30.1210                 1.0783

                     25                     26                     27
                      A                      A                      A
 Frequencies --   1132.3013              1144.3434              1165.2734
 Red. masses --      3.0123                 1.5614                 1.7658
 Frc consts  --      2.2755                 1.2047                 1.4127
 IR Inten    --     76.5658                 5.3579                 3.6667

                     28                     29                     30
                      A                      A                      A
 Frequencies --   1181.9407              1200.9073              1233.0565
 Red. masses --      1.4328                 1.7889                 1.3949
 Frc consts  --      1.1793                 1.5200                 1.2496
 IR Inten    --      3.5241                 2.9818                10.0719

                     31                     32                     33
                      A                      A                      A
 Frequencies --   1245.8793              1263.6147              1270.6280
 Red. masses --      1.2244                 1.5187                 1.3980
 Frc consts  --      1.1198                 1.4287                 1.3298
 IR Inten    --      2.2573                29.5172                 3.1724

                     34                     35                     36
                      A                      A                      A
 Frequencies --   1285.7805              1298.8186              1314.5643
 Red. masses --      1.4832                 1.5184                 1.6049
 Frc consts  --      1.4447                 1.5092                 1.6340
 IR Inten    --      4.4756                 7.1637                 5.9695

                     37                     38                     39
                      A                      A                      A
 Frequencies --   1326.6965              1343.0995              1422.5518
 Red. masses --      1.4368                 1.4317                 1.3942
 Frc consts  --      1.4900                 1.5217                 1.6623
 IR Inten    --      9.2685                14.0456                 4.0898

                     40                     41                     42
                      A                      A                      A
 Frequencies --   1487.2774              1522.1912              3052.2093
 Red. masses --      1.1064                 1.0981                 1.0858
 Frc consts  --      1.4419                 1.4990                 5.9595
 IR Inten    --      1.0332                10.4521                39.2374

                     43                     44                     45
                      A                      A                      A
 Frequencies --   3069.1261              3082.8659              3122.6249
 Red. masses --      1.0615                 1.0644                 1.0906
 Frc consts  --      5.8910                 5.9601                 6.2653
 IR Inten    --     12.5497                42.0437                31.3302

                     46                     47                     48
                      A                      A                      A
 Frequencies --   3129.1002              3130.5433              3134.4716
 Red. masses --      1.1048                 1.0911                 1.0892
 Frc consts  --      6.3737                 6.3004                 6.3051
 IR Inten    --     13.9103                27.2633                64.7472

                     49                     50                     51
                      A                      A                      A
 Frequencies --   3143.2433              3154.7584              3830.4181
 Red. masses --      1.0925                 1.0990                 1.0664
 Frc consts  --      6.3595                 6.4443                 9.2183
 IR Inten    --     23.5745                 8.4755                28.9300

 - Thermochemistry -
 -------------------
 Temperature   298.150 Kelvin.  Pressure   1.00000 Atm.
 Atom     1 has atomic number  8 and mass  15.99491

 Molecular mass:   126.06808 amu.
 Principal axes and moments of inertia in atomic units:
                           1         2         3
     Eigenvalues --   588.00075 973.826711131.13111
           X            0.99898  -0.04473  -0.00613
           Y            0.04475   0.99899   0.00311
           Z            0.00599  -0.00338   0.99998
 This molecule is an asymmetric top.
 Rotational symmetry number  1.
 Warning -- assumption of classical behavior for rotation
           may cause significant error
 Rotational temperatures (Kelvin)      0.14730     0.08894     0.07657
 Rotational constants (GHZ):           3.06928     1.85325     1.59552
 Zero-point vibrational energy     429967.6 (Joules/Mol)
                                  102.76473 (Kcal/Mol)
 Warning -- explicit consideration of   7 degrees of freedom as
           vibrations may cause significant error
 Vibrational temperatures:    311.94   387.59   476.71   586.89   748.88
          (Kelvin)            789.11   833.56   906.26   997.36  1110.51
                             1160.11  1177.59  1261.68  1287.38  1306.44
                             1320.87  1341.04  1359.31  1378.62  1399.88
                             1460.83  1476.86  1516.77  1584.73  1629.13
                             1646.45  1676.57  1700.55  1727.84  1774.09
                             1792.54  1818.06  1828.15  1849.95  1868.71
                             1891.36  1908.82  1932.42  2046.73  2139.86
                             2190.09  4391.44  4415.78  4435.55  4492.76
                             4502.07  4504.15  4509.80  4522.42  4538.99
                             5511.11

 Zero-point correction=                           0.163766 (Hartree/Particle)
 Thermal correction to Energy=                    0.170083
 Thermal correction to Enthalpy=                  0.171027
 Thermal correction to Gibbs Free Energy=         0.133494
 Sum of electronic and zero-point Energies=           -423.013234
 Sum of electronic and thermal Energies=              -423.006917
 Sum of electronic and thermal Enthalpies=            -423.005973
 Sum of electronic and thermal Free Energies=         -423.043506

                     E (Thermal)             CV                S
                      KCal/Mol        Cal/Mol-Kelvin    Cal/Mol-Kelvin
 Total                  106.729             27.608             78.995
 Electronic               0.000              0.000              0.000
 Translational            0.889              2.981             40.409
 Rotational               0.889              2.981             27.962
 Vibrational            104.951             21.646             10.624
 Vibration     1          0.646              1.815              1.986
 Vibration     2          0.674              1.729              1.600
 Vibration     3          0.714              1.613              1.254
 Vibration     4          0.772              1.453              0.934
 Vibration     5          0.875              1.205              0.609
 Vibration     6          0.904              1.143              0.547
 Vibration     7          0.936              1.076              0.487

 Normal termination of Gaussian 09 at Tue Jan 28 00:45:26 2020.
