 Gaussian 09, Revision D.01,
 Gaussian 09:  ES64L-G09RevD.01 24-Apr-2013

 -----------------------------
 # b3lyp 6-31G(2df,p) opt Freq
 -----------------------------

 -----
 titel
 -----
 Symbolic Z-matrix:
 Charge =  0 Multiplicity = 1

 SCF Done:  E(RB3LYP) =  -423.114891973     A.U. after   13 cycles
 Optimization completed.
    -- Stationary point found.
 Normal termination of Gaussian 09 at Tue Jan 28 02:51:38 2020.

 ----------------------------------------------------------------------
 #N Geom=AllCheck Guess=TCheck SCRF=Check GenChk RB3LYP/6-31G(2df,p) Fr
 eq
 ----------------------------------------------------------------------

 Structure from the checkpoint file:  "/scratch/puck/g09_7fa5a86c-3d30-4146-baf7-94aca098fa6b/Gau-196319.chk"
 -----
 titel
 -----
 Charge =  0 Multiplicity = 1

                         Standard orientation:
 ---------------------------------------------------------------------
 Center     Atomic      Atomic             Coordinates (Angstroms)
 Number     Number       Type             X           Y           Z
 ---------------------------------------------------------------------
      1          6           0       -3.218265   -0.674290    0.105936
      2          6           0       -1.898945   -0.238724   -0.496062
      3          8           0       -1.658119    1.188825   -0.262581
      4          6           0       -0.532257    0.874700    0.551194
      5          6           0        0.537086    0.180431   -0.248361
      6          6           0        1.851703   -0.046293    0.415211
      7          6           0        3.117481    0.399722   -0.179296
      8          8           0        2.742960   -0.979035   -0.209517
      9          6           0       -0.644792   -0.606192    0.298096
     10          1           0       -4.044865   -0.141675   -0.373553
     11          1           0       -3.367937   -1.749391   -0.043356
     12          1           0       -3.244410   -0.462177    1.178767
     13          1           0       -1.863102   -0.464517   -1.569677
     14          1           0       -0.360354    1.469011    1.442104
     15          1           0        0.584124    0.381144   -1.316786
     16          1           0        1.811356   -0.142240    1.502583
     17          1           0        3.104270    0.908812   -1.142374
     18          1           0        3.963854    0.644044    0.461602
     19          1           0       -0.533729   -1.457453    0.957165
 ---------------------------------------------------------------------

 SCF Done:  E(RB3LYP) =  -423.114891973     A.U. after    1 cycles

 The electronic state is 1-A.
 Alpha  occ. eigenvalues --  -19.14922 -19.13866 -10.24421 -10.24416 -10.24245
 Alpha  occ. eigenvalues --  -10.23414 -10.19979 -10.19844 -10.18088  -1.06941
 Alpha  occ. eigenvalues --   -1.05290  -0.84349  -0.75959  -0.68949  -0.65051
 Alpha  occ. eigenvalues --   -0.63611  -0.58717  -0.54212  -0.51939  -0.50844
 Alpha  occ. eigenvalues --   -0.48219  -0.46472  -0.44308  -0.40767  -0.39511
 Alpha  occ. eigenvalues --   -0.38985  -0.37943  -0.36938  -0.35278  -0.32670
 Alpha  occ. eigenvalues --   -0.30649  -0.27291  -0.26964  -0.23489
 Alpha virt. eigenvalues --    0.07555   0.09166   0.10353   0.10490   0.11486
 Alpha virt. eigenvalues --    0.11658   0.12947   0.14306   0.14851   0.15875
 Alpha virt. eigenvalues --    0.16904   0.17825   0.18292   0.19034   0.21784

 Mulliken charges:
               1
     1  C   -0.400409
     2  C    0.126985
     3  O   -0.308425
     4  C    0.088200
     5  C   -0.082420
     6  C    0.073160
     7  C   -0.188289
     8  O   -0.239346
     9  C   -0.147074
    10  H    0.129544
    11  H    0.117605
    12  H    0.123462
    13  H    0.084488
    14  H    0.104704
    15  H    0.094828
    16  H    0.089831
    17  H    0.115197
    18  H    0.114702
    19  H    0.103258
 Sum of Mulliken charges =   0.00000

 Dipole moment (field-independent basis, Debye):
    X=             -0.2205    Y=              0.1836    Z=              0.9798  Tot=              1.0210
 Quadrupole moment (field-independent basis, Debye-Ang):
   XX=            -53.3647   YY=            -56.6304   ZZ=            -50.5651
   XY=              8.7758   XZ=              1.1378   YZ=              0.2369

  Exact polarizability: 100.838   6.525  64.675  -0.399   0.077  65.600
 Approx polarizability: 120.438   3.505 107.260  -1.866   1.501 100.141

                      1                      2                      3
                      A                      A                      A
 Frequencies --     66.6329               121.3505               145.6155
 Red. masses --      3.7387                 2.9953                 3.6954
 Frc consts  --      0.0098                 0.0260                 0.0462
 IR Inten    --      3.6723                 0.0777                 6.0364

                      4                      5                      6
                      A                      A                      A
 Frequencies --    230.0647               245.6580               286.6686
 Red. masses --      3.0550                 1.1087                 2.5725
 Frc consts  --      0.0953                 0.0394                 0.1246
 IR Inten    --      1.7702                 0.2397                 0.8112

                      7                      8                      9
                      A                      A                      A
 Frequencies --    348.8530               461.4058               473.1427
 Red. masses --      4.8179                 3.1456                 3.7391
 Frc consts  --      0.3455                 0.3946                 0.4932
 IR Inten    --      1.6765                 0.9589                 2.8302

                     10                     11                     12
                      A                      A                      A
 Frequencies --    485.2701               778.0678               801.4202
 Red. masses --      3.3863                 2.5892                 1.5701
 Frc consts  --      0.4698                 0.9235                 0.5941
 IR Inten    --     10.3415                 3.9952                 5.0650

                     13                     14                     15
                      A                      A                      A
 Frequencies --    844.0778               855.6122               866.4972
 Red. masses --      5.7315                 1.8508                 2.9463
 Frc consts  --      2.4059                 0.7983                 1.3034
 IR Inten    --     40.3716                13.4884                38.3394

                     16                     17                     18
                      A                      A                      A
 Frequencies --    909.0816               937.0231               948.5059
 Red. masses --      2.1827                 4.1456                 2.8942
 Frc consts  --      1.0628                 2.1446                 1.5341
 IR Inten    --      3.6313                 2.2012                10.5324

                     19                     20                     21
                      A                      A                      A
 Frequencies --    998.4946              1018.4203              1026.7256
 Red. masses --      1.7798                 2.0896                 1.6124
 Frc consts  --      1.0455                 1.2769                 1.0014
 IR Inten    --     20.1423                60.7488                 4.3468

                     22                     23                     24
                      A                      A                      A
 Frequencies --   1063.0726              1090.9686              1094.0355
 Red. masses --      1.7368                 1.4351                 1.6358
 Frc consts  --      1.1565                 1.0063                 1.1536
 IR Inten    --     20.4868                 4.0253                 7.7172

                     25                     26                     27
                      A                      A                      A
 Frequencies --   1099.0585              1124.5089              1151.5481
 Red. masses --      1.4350                 2.0503                 1.6778
 Frc consts  --      1.0213                 1.5275                 1.3109
 IR Inten    --     13.8732                 6.7826                 4.0382

                     28                     29                     30
                      A                      A                      A
 Frequencies --   1161.8263              1176.6713              1212.6520
 Red. masses --      1.5364                 1.5121                 2.0528
 Frc consts  --      1.2219                 1.2335                 1.7786
 IR Inten    --      9.3070                 2.7227                 8.6815

                     31                     32                     33
                      A                      A                      A
 Frequencies --   1228.5320              1256.6777              1297.1056
 Red. masses --      1.5391                 1.3284                 1.4938
 Frc consts  --      1.3687                 1.2361                 1.4808
 IR Inten    --      4.6869                 9.6171                 2.3926

                     34                     35                     36
                      A                      A                      A
 Frequencies --   1303.4324              1366.6357              1390.5350
 Red. masses --      1.7192                 1.8439                 1.6170
 Frc consts  --      1.7209                 2.0291                 1.8422
 IR Inten    --      8.6715                11.7949                 7.8245

                     37                     38                     39
                      A                      A                      A
 Frequencies --   1406.7110              1470.8427              1485.4276
 Red. masses --      1.3530                 1.7534                 1.0562
 Frc consts  --      1.5775                 2.2350                 1.3731
 IR Inten    --     11.4167                28.3976                 3.3535

                     40                     41                     42
                      A                      A                      A
 Frequencies --   1491.0768              1532.7475              3023.4296
 Red. masses --      1.0498                 1.4607                 1.0836
 Frc consts  --      1.3752                 2.0219                 5.8362
 IR Inten    --      2.4637                 8.1372                42.3592

                     43                     44                     45
                      A                      A                      A
 Frequencies --   3035.8058              3078.6003              3084.3411
 Red. masses --      1.0361                 1.0541                 1.0831
 Frc consts  --      5.6260                 5.8865                 6.0706
 IR Inten    --     19.2796                29.5509                17.2235

                     46                     47                     48
                      A                      A                      A
 Frequencies --   3107.7405              3119.9714              3129.9281
 Red. masses --      1.1003                 1.1026                 1.0889
 Frc consts  --      6.2611                 6.3240                 6.2852
 IR Inten    --     18.4269                23.4542                10.0720

                     49                     50                     51
                      A                      A                      A
 Frequencies --   3165.8787              3168.6399              3198.5845
 Red. masses --      1.1193                 1.0910                 1.0962
 Frc consts  --      6.6096                 6.4541                 6.6078
 IR Inten    --     26.1579                24.1782                 6.6120

 - Thermochemistry -
 -------------------
 Temperature   298.150 Kelvin.  Pressure   1.00000 Atm.
 Atom     1 has atomic number  6 and mass  12.00000

 Molecular mass:   126.06808 amu.
 Principal axes and moments of inertia in atomic units:
                           1         2         3
     Eigenvalues --   336.557062138.387262293.64776
           X            0.99960   0.02837  -0.00039
           Y           -0.02838   0.99955  -0.00983
           Z            0.00011   0.00984   0.99995
 This molecule is an asymmetric top.
 Rotational symmetry number  1.
 Rotational temperatures (Kelvin)      0.25735     0.04050     0.03776
 Rotational constants (GHZ):           5.36236     0.84397     0.78684
 Zero-point vibrational energy     414898.3 (Joules/Mol)
                                   99.16306 (Kcal/Mol)
 Warning -- explicit consideration of  10 degrees of freedom as
           vibrations may cause significant error
 Vibrational temperatures:     95.87   174.60   209.51   331.01   353.45
          (Kelvin)            412.45   501.92   663.86   680.75   698.19
                             1119.46  1153.06  1214.44  1231.03  1246.69
                             1307.96  1348.17  1364.69  1436.61  1465.28
                             1477.23  1529.52  1569.66  1574.07  1581.30
                             1617.92  1656.82  1671.61  1692.97  1744.73
                             1767.58  1808.08  1866.24  1875.35  1966.28
                             2000.67  2023.94  2116.21  2137.20  2145.32
                             2205.28  4350.04  4367.84  4429.41  4437.67
                             4471.34  4488.94  4503.26  4554.99  4558.96
                             4602.04

 Zero-point correction=                           0.158026 (Hartree/Particle)
 Thermal correction to Energy=                    0.166446
 Thermal correction to Enthalpy=                  0.167390
 Thermal correction to Gibbs Free Energy=         0.124557
 Sum of electronic and zero-point Energies=           -422.956866
 Sum of electronic and thermal Energies=              -422.948446
 Sum of electronic and thermal Enthalpies=            -422.947502
 Sum of electronic and thermal Free Energies=         -422.990335

                     E (Thermal)             CV                S
                      KCal/Mol        Cal/Mol-Kelvin    Cal/Mol-Kelvin
 Total                  104.447             31.634             90.150
 Electronic               0.000              0.000              0.000
 Translational            0.889              2.981             40.409
 Rotational               0.889              2.981             28.892
 Vibrational            102.669             25.673             20.850
 Vibration     1          0.598              1.970              4.250
 Vibration     2          0.609              1.931              3.079
 Vibration     3          0.617              1.907              2.729
 Vibration     4          0.652              1.795              1.878
 Vibration     5          0.660              1.770              1.762
 Vibration     6          0.684              1.698              1.494
 Vibration     7          0.726              1.578              1.171
 Vibration     8          0.819              1.336              0.762
 Vibration     9          0.830              1.310              0.729
 Vibration    10          0.841              1.283              0.696

 Optimization completed.
    -- Stationary point found.
 Normal termination of Gaussian 09 at Tue Jan 28 03:32:10 2020.
