 Gaussian 09, Revision D.01,
 Gaussian 09:  ES64L-G09RevD.01 24-Apr-2013

 -----------------------------
 # b3lyp 6-31G(2df,p) opt Freq
 -----------------------------

 -----
 titel
 -----
 Symbolic Z-matrix:
 Charge =  0 Multiplicity = 1

 SCF Done:  E(RB3LYP) =  -423.111217122     A.U. after   13 cycles
 Optimization completed.
    -- Stationary point found.
 Normal termination of Gaussian 09 at Tue Jan 28 12:07:22 2020.

 ----------------------------------------------------------------------
 #N Geom=AllCheck Guess=TCheck SCRF=Check GenChk RB3LYP/6-31G(2df,p) Fr
 eq
 ----------------------------------------------------------------------

 Structure from the checkpoint file:  "/scratch/puck/g09_781a38ad-9f5e-4531-abaa-da940e0a8eba/Gau-1198.chk"
 -----
 titel
 -----
 Charge =  0 Multiplicity = 1

                         Standard orientation:
 ---------------------------------------------------------------------
 Center     Atomic      Atomic             Coordinates (Angstroms)
 Number     Number       Type             X           Y           Z
 ---------------------------------------------------------------------
      1          6           0        4.174656   -0.620087    0.000704
      2          8           0        2.766071   -0.601643    0.000467
      3          6           0        2.253989    0.717112   -0.000534
      4          6           0        0.797813    0.692169   -0.000741
      5          6           0       -0.406512    0.699078   -0.000978
      6          6           0       -1.852374    0.674182   -0.001133
      7          6           0       -2.593393   -0.219000    1.034823
      8          8           0       -3.398467   -0.814683    0.001178
      9          6           0       -2.593281   -0.222306   -1.034261
     10          1           0        4.483884   -1.667501    0.000872
     11          1           0        4.591286   -0.124937   -0.891169
     12          1           0        4.591056   -0.124749    0.892583
     13          1           0        2.618021    1.270703    0.883263
     14          1           0        2.618325    1.269536   -0.884928
     15          1           0       -2.251299    1.692622   -0.002909
     16          1           0       -1.940680   -0.950584    1.526826
     17          1           0       -3.198249    0.299826    1.785953
     18          1           0       -1.940452   -0.955343   -1.523889
     19          1           0       -3.198103    0.294141   -1.787040
 ---------------------------------------------------------------------

 SCF Done:  E(RB3LYP) =  -423.111217122     A.U. after    1 cycles

 The electronic state is 1-A.
 Alpha  occ. eigenvalues --  -19.14609 -19.13418 -10.25418 -10.23543 -10.23543
 Alpha  occ. eigenvalues --  -10.22857 -10.21775 -10.18104 -10.17772  -1.04118
 Alpha  occ. eigenvalues --   -1.03975  -0.79511  -0.76059  -0.69862  -0.69378
 Alpha  occ. eigenvalues --   -0.65147  -0.58180  -0.52388  -0.50458  -0.49143
 Alpha  occ. eigenvalues --   -0.48962  -0.48352  -0.44906  -0.41078  -0.40940
 Alpha  occ. eigenvalues --   -0.40555  -0.39782  -0.35178  -0.33125  -0.32554
 Alpha  occ. eigenvalues --   -0.26909  -0.26254  -0.24945  -0.24893
 Alpha virt. eigenvalues --    0.02866   0.04135   0.08435   0.09176   0.10883
 Alpha virt. eigenvalues --    0.13017   0.14167   0.14914   0.15723   0.16267
 Alpha virt. eigenvalues --    0.16970   0.18021   0.18364   0.18575   0.20693

 Mulliken charges:
               1
     1  C   -0.218873
     2  O   -0.227674
     3  C   -0.202173
     4  C   -0.002734
     5  C    0.160319
     6  C   -0.218391
     7  C   -0.073960
     8  O   -0.268249
     9  C   -0.073953
    10  H    0.132150
    11  H    0.104911
    12  H    0.104918
    13  H    0.114460
    14  H    0.114467
    15  H    0.111891
    16  H    0.112284
    17  H    0.109163
    18  H    0.112284
    19  H    0.109160
 Sum of Mulliken charges =   0.00000

 Dipole moment (field-independent basis, Debye):
    X=              1.8483    Y=              1.8608    Z=             -0.0021  Tot=              2.6227
 Quadrupole moment (field-independent basis, Debye-Ang):
   XX=            -49.6539   YY=            -53.9054   ZZ=            -51.1130
   XY=             -3.3745   XZ=              0.0072   YZ=              0.0040

  Exact polarizability: 118.932  -1.473  63.179   0.007   0.008  67.420
 Approx polarizability: 156.464   0.467  92.075   0.010   0.006  95.108

                      1                      2                      3
                      A                      A                      A
 Frequencies --     21.8760                56.7573                72.5465
 Red. masses --      2.2909                 6.0753                 2.5199
 Frc consts  --      0.0006                 0.0115                 0.0078
 IR Inten    --      0.7534                 0.1854                 4.4540

                      4                      5                      6
                      A                      A                      A
 Frequencies --    116.8630               125.1744               226.7230
 Red. masses --      3.4179                 3.2910                 3.1256
 Frc consts  --      0.0275                 0.0304                 0.0947
 IR Inten    --      8.8642                 0.0851                 0.3401

                      7                      8                      9
                      A                      A                      A
 Frequencies --    232.1853               299.3836               352.0850
 Red. masses --      1.1591                 3.5067                 4.0664
 Frc consts  --      0.0368                 0.1852                 0.2970
 IR Inten    --      2.6451                 4.0410                 0.7419

                     10                     11                     12
                      A                      A                      A
 Frequencies --    388.3905               502.7632               566.7986
 Red. masses --      4.3440                 5.3059                 4.2756
 Frc consts  --      0.3861                 0.7902                 0.8093
 IR Inten    --      0.1695                 4.0652                 0.6815

                     13                     14                     15
                      A                      A                      A
 Frequencies --    658.4210               852.6713               890.6146
 Red. masses --      3.4811                 3.8844                 1.2231
 Frc consts  --      0.8892                 1.6639                 0.5716
 IR Inten    --      1.8673                 9.4847                 0.0519

                     16                     17                     18
                      A                      A                      A
 Frequencies --    922.8467               978.0151              1001.0424
 Red. masses --      2.9976                 4.5961                 4.2381
 Frc consts  --      1.5041                 2.5902                 2.5022
 IR Inten    --     24.4793                23.9085                 0.1702

                     19                     20                     21
                      A                      A                      A
 Frequencies --   1025.4641              1026.9484              1038.9952
 Red. masses --      3.4799                 1.6131                10.6053
 Frc consts  --      2.1561                 1.0024                 6.7453
 IR Inten    --     17.7155                 3.4977                87.6166

                     22                     23                     24
                      A                      A                      A
 Frequencies --   1109.0917              1143.4399              1157.9202
 Red. masses --      2.3043                 5.7941                 1.0901
 Frc consts  --      1.6700                 4.4634                 0.8611
 IR Inten    --      0.2599               167.8620                 1.2619

                     25                     26                     27
                      A                      A                      A
 Frequencies --   1172.3046              1182.1995              1198.8805
 Red. masses --      1.1975                 1.2765                 2.1809
 Frc consts  --      0.9696                 1.0511                 1.8469
 IR Inten    --      0.0364                 2.8414                26.2495

                     28                     29                     30
                      A                      A                      A
 Frequencies --   1219.8927              1237.2587              1252.2666
 Red. masses --      1.5525                 1.2437                 1.0832
 Frc consts  --      1.3612                 1.1217                 1.0008
 IR Inten    --     37.2152                 2.4333                 4.7717

                     31                     32                     33
                      A                      A                      A
 Frequencies --   1303.8855              1344.9495              1381.3802
 Red. masses --      1.2521                 1.5311                 1.5675
 Frc consts  --      1.2542                 1.6318                 1.7623
 IR Inten    --      0.0295                25.0294                 3.1271

                     34                     35                     36
                      A                      A                      A
 Frequencies --   1410.4807              1477.4276              1484.3921
 Red. masses --      1.4129                 1.1613                 1.0469
 Frc consts  --      1.6562                 1.4935                 1.3591
 IR Inten    --    111.3789                 0.5597                 5.3162

                     37                     38                     39
                      A                      A                      A
 Frequencies --   1495.2489              1510.2752              1516.2908
 Red. masses --      1.0708                 1.0767                 1.0749
 Frc consts  --      1.4106                 1.4470                 1.4561
 IR Inten    --      3.2316                 1.4639                 3.4149

                     40                     41                     42
                      A                      A                      A
 Frequencies --   1536.6859              2368.7483              2940.8238
 Red. masses --      1.1093                11.9128                 1.0532
 Frc consts  --      1.5434                39.3822                 5.3664
 IR Inten    --      1.0715                 9.1754                32.0698

                     43                     44                     45
                      A                      A                      A
 Frequencies --   2957.3312              2968.0943              3010.5280
 Red. masses --      1.1027                 1.0382                 1.1031
 Frc consts  --      5.6820                 5.3885                 5.8903
 IR Inten    --     44.9280                79.9302                55.0498

                     46                     47                     48
                      A                      A                      A
 Frequencies --   3017.2834              3027.5154              3058.8693
 Red. masses --      1.0535                 1.0589                 1.0912
 Frc consts  --      5.6509                 5.7185                 6.0156
 IR Inten    --    110.0604                 4.7284                 2.8635

                     49                     50                     51
                      A                      A                      A
 Frequencies --   3075.3755              3083.8628              3121.4917
 Red. masses --      1.1094                 1.1047                 1.0955
 Frc consts  --      6.1820                 6.1896                 6.2891
 IR Inten    --     11.1436                84.0457                24.4205

 - Thermochemistry -
 -------------------
 Temperature   298.150 Kelvin.  Pressure   1.00000 Atm.
 Atom     1 has atomic number  6 and mass  12.00000

 Molecular mass:   126.06808 amu.
 Principal axes and moments of inertia in atomic units:
                           1         2         3
     Eigenvalues --   344.147493353.196653411.74120
           X            0.99999  -0.00463   0.00001
           Y            0.00463   0.99999   0.00041
           Z           -0.00001  -0.00041   1.00000
 This molecule is an asymmetric top.
 Rotational symmetry number  1.
 Rotational temperatures (Kelvin)      0.25168     0.02583     0.02539
 Rotational constants (GHZ):           5.24409     0.53822     0.52898
 Zero-point vibrational energy     413434.0 (Joules/Mol)
                                   98.81309 (Kcal/Mol)
 Warning -- explicit consideration of  12 degrees of freedom as
           vibrations may cause significant error
 Vibrational temperatures:     31.47    81.66   104.38   168.14   180.10
          (Kelvin)            326.20   334.06   430.75   506.57   558.81
                              723.36   815.50   947.32  1226.80  1281.39
                             1327.77  1407.14  1440.27  1475.41  1477.55
                             1494.88  1595.73  1645.15  1665.99  1686.68
                             1700.92  1724.92  1755.15  1780.14  1801.73
                             1876.00  1935.08  1987.50  2029.36  2125.69
                             2135.71  2151.33  2172.95  2181.60  2210.95
                             3408.10  4231.18  4254.93  4270.42  4331.47
                             4341.19  4355.91  4401.03  4424.77  4436.99
                             4491.12

 Zero-point correction=                           0.157469 (Hartree/Particle)
 Thermal correction to Energy=                    0.167432
 Thermal correction to Enthalpy=                  0.168377
 Thermal correction to Gibbs Free Energy=         0.120030
 Sum of electronic and zero-point Energies=           -422.953748
 Sum of electronic and thermal Energies=              -422.943785
 Sum of electronic and thermal Enthalpies=            -422.942840
 Sum of electronic and thermal Free Energies=         -422.991187

                     E (Thermal)             CV                S
                      KCal/Mol        Cal/Mol-Kelvin    Cal/Mol-Kelvin
 Total                  105.065             33.589            101.753
 Electronic               0.000              0.000              0.000
 Translational            0.889              2.981             40.409
 Rotational               0.889              2.981             29.755
 Vibrational            103.288             27.628             31.589
 Vibration     1          0.593              1.985              6.456
 Vibration     2          0.596              1.975              4.567
 Vibration     3          0.599              1.967              4.083
 Vibration     4          0.608              1.935              3.152
 Vibration     5          0.610              1.928              3.019
 Vibration     6          0.650              1.800              1.905
 Vibration     7          0.653              1.792              1.862
 Vibration     8          0.692              1.675              1.420
 Vibration     9          0.729              1.571              1.157
 Vibration    10          0.757              1.495              1.006
 Vibration    11          0.858              1.244              0.651
 Vibration    12          0.923              1.103              0.510

 Normal termination of Gaussian 09 at Tue Jan 28 12:43:47 2020.
