 Gaussian 09, Revision D.01,
 Gaussian 09:  ES64L-G09RevD.01 24-Apr-2013

 -----------------------------
 # b3lyp 6-31G(2df,p) opt Freq
 -----------------------------

 -----
 titel
 -----
 Symbolic Z-matrix:
 Charge =  0 Multiplicity = 1

 SCF Done:  E(RB3LYP) =  -423.100778594     A.U. after   14 cycles
 Optimization completed.
    -- Stationary point found.
 Normal termination of Gaussian 09 at Mon Jan 27 18:37:57 2020.

 ----------------------------------------------------------------------
 #N Geom=AllCheck Guess=TCheck SCRF=Check GenChk RB3LYP/6-31G(2df,p) Fr
 eq
 ----------------------------------------------------------------------

 Structure from the checkpoint file:  "/scratch/puck/g09_0ba8e534-5166-47d1-a84b-6af0cb3b1447/Gau-172903.chk"
 -----
 titel
 -----
 Charge =  0 Multiplicity = 1

                         Standard orientation:
 ---------------------------------------------------------------------
 Center     Atomic      Atomic             Coordinates (Angstroms)
 Number     Number       Type             X           Y           Z
 ---------------------------------------------------------------------
      1          6           0        0.576489    1.979680    0.032761
      2          6           0        0.460242    0.542096   -0.436748
      3          6           0        1.824955   -0.231261   -0.363716
      4          8           0        1.401006   -0.969457    0.840707
      5          6           0        0.067907   -0.634320    0.497444
      6          6           0       -0.560426   -1.365664   -0.754236
      7          6           0       -0.868695    0.086455   -1.094362
      8          8           0       -1.802371    0.420669    0.003147
      9          6           0       -1.173328   -0.131177    1.206405
     10          1           0        1.128264    2.045226    0.978001
     11          1           0        1.122896    2.578595   -0.705445
     12          1           0       -0.408599    2.427697    0.176224
     13          1           0        2.082299   -0.910595   -1.180659
     14          1           0        2.678774    0.410228   -0.134108
     15          1           0        0.183283   -1.852206   -1.381685
     16          1           0       -1.421624   -2.013709   -0.588537
     17          1           0       -1.310506    0.457116   -2.018681
     18          1           0       -0.982220    0.665402    1.931905
     19          1           0       -1.824502   -0.892295    1.646865
 ---------------------------------------------------------------------

 SCF Done:  E(RB3LYP) =  -423.100778594     A.U. after    1 cycles

 The electronic state is 1-A.
 Alpha  occ. eigenvalues --  -19.14821 -19.14037 -10.24756 -10.24486 -10.24457
 Alpha  occ. eigenvalues --  -10.23359 -10.19606 -10.18372 -10.17670  -1.06018
 Alpha  occ. eigenvalues --   -1.02551  -0.82583  -0.74929  -0.72615  -0.67648
 Alpha  occ. eigenvalues --   -0.63280  -0.58023  -0.52750  -0.50754  -0.49234
 Alpha  occ. eigenvalues --   -0.47040  -0.46064  -0.43067  -0.40320  -0.39647
 Alpha  occ. eigenvalues --   -0.39512  -0.38812  -0.36563  -0.34157  -0.33883
 Alpha  occ. eigenvalues --   -0.31642  -0.26360  -0.25432  -0.24632
 Alpha virt. eigenvalues --    0.06219   0.08937   0.09508   0.11719   0.11993
 Alpha virt. eigenvalues --    0.13492   0.13959   0.14488   0.15621   0.15715
 Alpha virt. eigenvalues --    0.17385   0.18054   0.18824   0.20021   0.21947

 Mulliken charges:
               1
     1  C   -0.478445
     2  C    0.263941
     3  C   -0.195682
     4  O   -0.347300
     5  C    0.377480
     6  C   -0.293690
     7  C    0.002926
     8  O   -0.294409
     9  C   -0.159763
    10  H    0.123139
    11  H    0.114996
    12  H    0.140818
    13  H    0.115524
    14  H    0.118304
    15  H    0.109328
    16  H    0.104750
    17  H    0.077265
    18  H    0.111988
    19  H    0.108830
 Sum of Mulliken charges =   0.00000

 Dipole moment (field-independent basis, Debye):
    X=              0.7085    Y=              0.2349    Z=             -1.0244  Tot=              1.2675
 Quadrupole moment (field-independent basis, Debye-Ang):
   XX=            -56.0058   YY=            -53.6935   ZZ=            -51.5745
   XY=              3.6891   XZ=             -3.2374   YZ=              1.5492

  Exact polarizability:  79.238   3.936  73.584  -2.979   2.189  69.087
 Approx polarizability: 118.657   1.187 106.077  -1.803  -1.126 108.567

                      1                      2                      3
                      A                      A                      A
 Frequencies --    211.1773               233.0682               270.9886
 Red. masses --      1.3438                 1.7558                 2.7940
 Frc consts  --      0.0353                 0.0562                 0.1209
 IR Inten    --      0.3819                 0.3471                 0.9569

                      4                      5                      6
                      A                      A                      A
 Frequencies --    354.5231               362.4463               409.5773
 Red. masses --      4.5811                 2.5926                 2.3232
 Frc consts  --      0.3392                 0.2007                 0.2296
 IR Inten    --      8.2528                 8.4370                 2.1878

                      7                      8                      9
                      A                      A                      A
 Frequencies --    502.9896               506.0207               544.6180
 Red. masses --      2.0668                 3.0606                 4.8538
 Frc consts  --      0.3081                 0.4617                 0.8482
 IR Inten    --      1.1416                 3.0735                 1.7738

                     10                     11                     12
                      A                      A                      A
 Frequencies --    622.4859               722.9641               785.3746
 Red. masses --      3.5377                 4.0922                 3.6977
 Frc consts  --      0.8077                 1.2602                 1.3438
 IR Inten    --      2.1994                 2.0619                11.1915

                     13                     14                     15
                      A                      A                      A
 Frequencies --    799.9097               838.5109               868.3040
 Red. masses --      4.1205                 4.1858                 4.2405
 Frc consts  --      1.5534                 1.7340                 1.8837
 IR Inten    --     12.2024                 7.9793                33.2210

                     16                     17                     18
                      A                      A                      A
 Frequencies --    889.4087               911.5007               932.6914
 Red. masses --      3.1941                 1.8002                 3.9588
 Frc consts  --      1.4887                 0.8812                 2.0290
 IR Inten    --      8.4328                 6.9981                52.3225

                     19                     20                     21
                      A                      A                      A
 Frequencies --    960.0856               970.5553               983.0604
 Red. masses --      2.0895                 1.8907                 1.5328
 Frc consts  --      1.1348                 1.0493                 0.8728
 IR Inten    --      7.7990                28.3646                 6.1854

                     22                     23                     24
                      A                      A                      A
 Frequencies --   1056.3241              1082.1344              1104.5415
 Red. masses --      1.3214                 1.9253                 1.9035
 Frc consts  --      0.8687                 1.3284                 1.3683
 IR Inten    --      4.4263                 1.1772                 7.7790

                     25                     26                     27
                      A                      A                      A
 Frequencies --   1145.6923              1158.1804              1170.6509
 Red. masses --      1.2171                 1.7310                 1.4418
 Frc consts  --      0.9413                 1.3680                 1.1642
 IR Inten    --      1.3872                 8.1165                 5.6976

                     28                     29                     30
                      A                      A                      A
 Frequencies --   1192.0846              1213.0489              1225.0038
 Red. masses --      2.8350                 1.7229                 1.7383
 Frc consts  --      2.3737                 1.4937                 1.5369
 IR Inten    --     17.1179                11.6231                22.2969

                     31                     32                     33
                      A                      A                      A
 Frequencies --   1262.6386              1281.5403              1295.5948
 Red. masses --      1.6073                 2.0919                 1.9806
 Frc consts  --      1.5098                 2.0242                 1.9587
 IR Inten    --      3.1146                 2.9135                30.1782

                     34                     35                     36
                      A                      A                      A
 Frequencies --   1322.1075              1359.4901              1402.3664
 Red. masses --      1.8431                 1.9328                 1.2546
 Frc consts  --      1.8982                 2.1046                 1.4537
 IR Inten    --      0.9046                13.3811                 4.8013

                     37                     38                     39
                      A                      A                      A
 Frequencies --   1484.3564              1490.3717              1503.7057
 Red. masses --      1.1072                 1.0762                 1.0564
 Frc consts  --      1.4373                 1.4084                 1.4074
 IR Inten    --      5.4101                 3.3952                 4.2214

                     40                     41                     42
                      A                      A                      A
 Frequencies --   1522.2283              1527.6421              3025.5715
 Red. masses --      1.0957                 1.1016                 1.0386
 Frc consts  --      1.4959                 1.5147                 5.6017
 IR Inten    --      2.2337                 0.7573                24.4948

                     43                     44                     45
                      A                      A                      A
 Frequencies --   3041.9246              3055.4940              3079.6321
 Red. masses --      1.0548                 1.0561                 1.1003
 Frc consts  --      5.7504                 5.8091                 6.1482
 IR Inten    --     56.4030                45.7947                19.5637

                     46                     47                     48
                      A                      A                      A
 Frequencies --   3090.4128              3095.4838              3114.3332
 Red. masses --      1.1088                 1.0627                 1.1111
 Frc consts  --      6.2391                 5.9998                 6.3496
 IR Inten    --     18.0496                25.3148                31.6983

                     49                     50                     51
                      A                      A                      A
 Frequencies --   3125.6007              3131.0076              3167.3400
 Red. masses --      1.0917                 1.0979                 1.1083
 Frc consts  --      6.2840                 6.3411                 6.5510
 IR Inten    --     43.5768                11.7632                16.8952

 - Thermochemistry -
 -------------------
 Temperature   298.150 Kelvin.  Pressure   1.00000 Atm.
 Atom     1 has atomic number  6 and mass  12.00000

 Molecular mass:   126.06808 amu.
 Principal axes and moments of inertia in atomic units:
                           1         2         3
     Eigenvalues --   696.74634 909.531591091.05884
           X            0.99321   0.11128  -0.03398
           Y           -0.10839   0.99108   0.07753
           Z            0.04231  -0.07332   0.99641
 This molecule is an asymmetric top.
 Rotational symmetry number  1.
 Warning -- assumption of classical behavior for rotation
           may cause significant error
 Rotational temperatures (Kelvin)      0.12431     0.09523     0.07939
 Rotational constants (GHZ):           2.59024     1.98425     1.65412
 Zero-point vibrational energy     421126.0 (Joules/Mol)
                                  100.65152 (Kcal/Mol)
 Warning -- explicit consideration of   9 degrees of freedom as
           vibrations may cause significant error
 Vibrational temperatures:    303.84   335.33   389.89   510.08   521.48
          (Kelvin)            589.29   723.69   728.05   783.58   895.62
                             1040.18  1129.98  1150.89  1206.43  1249.29
                             1279.66  1311.44  1341.93  1381.35  1396.41
                             1414.40  1519.81  1556.95  1589.19  1648.39
                             1666.36  1684.30  1715.14  1745.30  1762.51
                             1816.65  1843.85  1864.07  1902.22  1956.00
                             2017.69  2135.66  2144.31  2163.49  2190.14
                             2197.93  4353.12  4376.65  4396.17  4430.90
                             4446.41  4453.71  4480.83  4497.04  4504.82
                             4557.09

 Zero-point correction=                           0.160398 (Hartree/Particle)
 Thermal correction to Energy=                    0.167478
 Thermal correction to Enthalpy=                  0.168422
 Thermal correction to Gibbs Free Energy=         0.129555
 Sum of electronic and zero-point Energies=           -422.940380
 Sum of electronic and thermal Energies=              -422.933300
 Sum of electronic and thermal Enthalpies=            -422.932356
 Sum of electronic and thermal Free Energies=         -422.971223

                     E (Thermal)             CV                S
                      KCal/Mol        Cal/Mol-Kelvin    Cal/Mol-Kelvin
 Total                  105.094             29.812             81.802
 Electronic               0.000              0.000              0.000
 Translational            0.889              2.981             40.409
 Rotational               0.889              2.981             28.027
 Vibrational            103.317             23.851             13.367
 Vibration     1          0.643              1.824              2.033
 Vibration     2          0.654              1.790              1.855
 Vibration     3          0.675              1.727              1.590
 Vibration     4          0.730              1.566              1.146
 Vibration     5          0.736              1.550              1.112
 Vibration     6          0.774              1.449              0.928
 Vibration     7          0.858              1.243              0.651
 Vibration     8          0.861              1.237              0.643
 Vibration     9          0.900              1.151              0.555

 Normal termination of Gaussian 09 at Mon Jan 27 19:28:43 2020.
