 Gaussian 09, Revision D.01,
 Gaussian 09:  ES64L-G09RevD.01 24-Apr-2013

 -----------------------------
 # b3lyp 6-31G(2df,p) opt Freq
 -----------------------------

 -----
 titel
 -----
 Symbolic Z-matrix:
 Charge =  0 Multiplicity = 1

 SCF Done:  E(RB3LYP) =  -423.204831598     A.U. after   14 cycles
 Optimization completed.
    -- Stationary point found.
 Normal termination of Gaussian 09 at Tue Jan 28 01:56:10 2020.

 ----------------------------------------------------------------------
 #N Geom=AllCheck Guess=TCheck SCRF=Check GenChk RB3LYP/6-31G(2df,p) Fr
 eq
 ----------------------------------------------------------------------

 Structure from the checkpoint file:  "/scratch/puck/g09_56cebfe6-b648-4718-bf53-434000ef352a/Gau-26450.chk"
 -----
 titel
 -----
 Charge =  0 Multiplicity = 1

                         Standard orientation:
 ---------------------------------------------------------------------
 Center     Atomic      Atomic             Coordinates (Angstroms)
 Number     Number       Type             X           Y           Z
 ---------------------------------------------------------------------
      1          6           0       -2.617360    0.209431   -0.984152
      2          6           0       -1.772117   -0.636046   -0.057813
      3          6           0       -1.359028   -0.122222    1.321433
      4          6           0       -0.356770   -0.283443    0.232417
      5          8           0        0.671150   -1.308257    0.310541
      6          6           0        1.602967   -0.461965   -0.242563
      7          8           0        2.752080   -0.682558   -0.451806
      8          6           0        0.617539    0.703649   -0.408065
      9          6           0        0.967501    1.993735    0.323551
     10          1           0       -2.488335   -0.093212   -2.028887
     11          1           0       -3.680350    0.118084   -0.737713
     12          1           0       -2.351837    1.269320   -0.908786
     13          1           0       -1.965748   -1.704937   -0.099486
     14          1           0       -1.649254    0.886075    1.602340
     15          1           0       -1.328911   -0.832653    2.140140
     16          1           0        0.405373    0.894772   -1.464791
     17          1           0        0.149949    2.717840    0.252706
     18          1           0        1.166465    1.806140    1.382484
     19          1           0        1.860420    2.446248   -0.116732
 ---------------------------------------------------------------------

 SCF Done:  E(RB3LYP) =  -423.204831598     A.U. after    1 cycles

 The electronic state is 1-A.
 Alpha  occ. eigenvalues --  -19.17924 -19.13201 -10.30454 -10.25723 -10.21553
 Alpha  occ. eigenvalues --  -10.20684 -10.19846 -10.19620 -10.19342  -1.10483
 Alpha  occ. eigenvalues --   -1.03129  -0.87350  -0.79418  -0.72573  -0.67822
 Alpha  occ. eigenvalues --   -0.60947  -0.58007  -0.53185  -0.52578  -0.48345
 Alpha  occ. eigenvalues --   -0.47092  -0.45034  -0.43800  -0.42311  -0.41413
 Alpha  occ. eigenvalues --   -0.40579  -0.38658  -0.37751  -0.37130  -0.34814
 Alpha  occ. eigenvalues --   -0.34088  -0.29833  -0.26953  -0.26757
 Alpha virt. eigenvalues --    0.01198   0.07034   0.08158   0.10574   0.12320
 Alpha virt. eigenvalues --    0.12544   0.12818   0.14002   0.15012   0.15981
 Alpha virt. eigenvalues --    0.16778   0.16847   0.19017   0.21098   0.21906

 Mulliken charges:
               1
     1  C   -0.411204
     2  C   -0.079505
     3  C   -0.363094
     4  C    0.454455
     5  O   -0.270759
     6  C    0.449259
     7  O   -0.326829
     8  C   -0.291175
     9  C   -0.409570
    10  H    0.126616
    11  H    0.127586
    12  H    0.117404
    13  H    0.108147
    14  H    0.119849
    15  H    0.132905
    16  H    0.115740
    17  H    0.124152
    18  H    0.133771
    19  H    0.142252
 Sum of Mulliken charges =   0.00000

 Dipole moment (field-independent basis, Debye):
    X=             -3.5400    Y=              2.2284    Z=              0.0741  Tot=              4.1836
 Quadrupole moment (field-independent basis, Debye-Ang):
   XX=            -61.0676   YY=            -53.3471   ZZ=            -51.4867
   XY=              4.4358   XZ=              1.4674   YZ=             -0.0947

  Exact polarizability:  90.775   0.905  70.294  -2.020  -0.395  67.202
 Approx polarizability: 126.447  -1.005 102.211  -6.393  -0.849 100.237

                      1                      2                      3
                      A                      A                      A
 Frequencies --     81.0409               129.2065               169.8192
 Red. masses --      4.4343                 3.0685                 1.4233
 Frc consts  --      0.0172                 0.0302                 0.0242
 IR Inten    --      1.0027                 0.1713                 0.0551

                      4                      5                      6
                      A                      A                      A
 Frequencies --    203.5321               211.5083               220.3943
 Red. masses --      1.5364                 1.1478                 2.9684
 Frc consts  --      0.0375                 0.0303                 0.0850
 IR Inten    --      0.5080                 0.3848                 1.7717

                      7                      8                      9
                      A                      A                      A
 Frequencies --    254.4074               350.7653               419.0262
 Red. masses --      3.5594                 3.6315                 2.2209
 Frc consts  --      0.1357                 0.2632                 0.2298
 IR Inten    --      2.2720                 2.4058                 1.4281

                     10                     11                     12
                      A                      A                      A
 Frequencies --    505.6244               520.7942               561.7242
 Red. masses --      3.7312                 4.4816                 3.3438
 Frc consts  --      0.5620                 0.7162                 0.6216
 IR Inten    --      3.6200                 3.5065                 1.2769

                     13                     14                     15
                      A                      A                      A
 Frequencies --    695.6414               772.8578               815.2969
 Red. masses --      4.8449                 2.5946                 2.5281
 Frc consts  --      1.3813                 0.9131                 0.9901
 IR Inten    --      2.2495                 4.4172                 4.7097

                     16                     17                     18
                      A                      A                      A
 Frequencies --    836.5376               861.9494               888.2521
 Red. masses --      2.3135                 2.1763                 1.7071
 Frc consts  --      0.9539                 0.9526                 0.7936
 IR Inten    --      0.4616                33.5378                28.5674

                     19                     20                     21
                      A                      A                      A
 Frequencies --    946.9185               989.6334              1034.3823
 Red. masses --      2.3365                 1.4448                 1.4330
 Frc consts  --      1.2343                 0.8337                 0.9034
 IR Inten    --     11.1133                11.6213                12.3071

                     22                     23                     24
                      A                      A                      A
 Frequencies --   1063.1156              1075.6995              1083.0331
 Red. masses --      1.8643                 1.8774                 1.9315
 Frc consts  --      1.2414                 1.2799                 1.3348
 IR Inten    --     53.0486                 9.0303                82.9128

                     25                     26                     27
                      A                      A                      A
 Frequencies --   1119.1567              1131.1672              1146.3213
 Red. masses --      1.8979                 3.0615                 2.0040
 Frc consts  --      1.4006                 2.3080                 1.5515
 IR Inten    --      2.8193                23.0371                10.4613

                     28                     29                     30
                      A                      A                      A
 Frequencies --   1178.7530              1217.3312              1249.9046
 Red. masses --      1.7735                 1.6675                 2.4857
 Frc consts  --      1.4518                 1.4559                 2.2880
 IR Inten    --      2.6019                 9.3379                48.1777

                     31                     32                     33
                      A                      A                      A
 Frequencies --   1317.4533              1362.7054              1409.9949
 Red. masses --      1.5408                 1.8651                 1.2706
 Frc consts  --      1.5756                 2.0406                 1.4884
 IR Inten    --     15.1895                 3.9479                 2.4625

                     34                     35                     36
                      A                      A                      A
 Frequencies --   1413.9527              1425.0810              1486.7710
 Red. masses --      1.2390                 1.4487                 1.3001
 Frc consts  --      1.4594                 1.7335                 1.6933
 IR Inten    --      1.7768                 4.9222                 8.2943

                     37                     38                     39
                      A                      A                      A
 Frequencies --   1490.9669              1495.9439              1498.1152
 Red. masses --      1.0637                 1.0607                 1.0650
 Frc consts  --      1.3931                 1.3985                 1.4083
 IR Inten    --      4.4112                 9.1551                 5.8669

                     40                     41                     42
                      A                      A                      A
 Frequencies --   1510.2142              1938.9916              3030.1036
 Red. masses --      1.5152                12.9168                 1.0351
 Frc consts  --      2.0361                28.6125                 5.5995
 IR Inten    --     19.8177               459.8614                23.9812

                     43                     44                     45
                      A                      A                      A
 Frequencies --   3042.4115              3065.9603              3095.6389
 Red. masses --      1.0349                 1.0841                 1.1006
 Frc consts  --      5.6442                 6.0043                 6.2140
 IR Inten    --     15.8785                 6.6734                19.0034

                     46                     47                     48
                      A                      A                      A
 Frequencies --   3097.2333              3112.5875              3122.7085
 Red. masses --      1.1011                 1.1015                 1.1018
 Frc consts  --      6.2234                 6.2876                 6.3300
 IR Inten    --     23.1994                15.3650                14.0719

                     49                     50                     51
                      A                      A                      A
 Frequencies --   3126.2126              3147.2596              3218.2271
 Red. masses --      1.0554                 1.0881                 1.1156
 Frc consts  --      6.0771                 6.3499                 6.8075
 IR Inten    --      7.1127                10.0110                 3.6090

 - Thermochemistry -
 -------------------
 Temperature   298.150 Kelvin.  Pressure   1.00000 Atm.
 Atom     1 has atomic number  6 and mass  12.00000

 Molecular mass:   126.06808 amu.
 Principal axes and moments of inertia in atomic units:
                           1         2         3
     Eigenvalues --   640.695571485.087451705.52871
           X            0.99945   0.02770   0.01829
           Y           -0.02784   0.99958   0.00746
           Z           -0.01807  -0.00797   0.99980
 This molecule is an asymmetric top.
 Rotational symmetry number  1.
 Warning -- assumption of classical behavior for rotation
           may cause significant error
 Rotational temperatures (Kelvin)      0.13519     0.05832     0.05078
 Rotational constants (GHZ):           2.81685     1.21524     1.05817
 Zero-point vibrational energy     413563.0 (Joules/Mol)
                                   98.84392 (Kcal/Mol)
 Warning -- explicit consideration of  12 degrees of freedom as
           vibrations may cause significant error
 Vibrational temperatures:    116.60   185.90   244.33   292.84   304.31
          (Kelvin)            317.10   366.03   504.67   602.88   727.48
                              749.31   808.19  1000.87  1111.97  1173.03
                             1203.59  1240.15  1278.00  1362.40  1423.86
                             1488.24  1529.58  1547.69  1558.24  1610.21
                             1627.50  1649.30  1695.96  1751.47  1798.33
                             1895.52  1960.63  2028.67  2034.36  2050.37
                             2139.13  2145.17  2152.33  2155.45  2172.86
                             2789.77  4359.64  4377.35  4411.23  4453.93
                             4456.22  4478.31  4492.88  4497.92  4528.20
                             4630.31

 Zero-point correction=                           0.157518 (Hartree/Particle)
 Thermal correction to Energy=                    0.166623
 Thermal correction to Enthalpy=                  0.167567
 Thermal correction to Gibbs Free Energy=         0.123698
 Sum of electronic and zero-point Energies=           -423.047314
 Sum of electronic and thermal Energies=              -423.038209
 Sum of electronic and thermal Enthalpies=            -423.037264
 Sum of electronic and thermal Free Energies=         -423.081133

                     E (Thermal)             CV                S
                      KCal/Mol        Cal/Mol-Kelvin    Cal/Mol-Kelvin
 Total                  104.558             33.714             92.330
 Electronic               0.000              0.000              0.000
 Translational            0.889              2.981             40.409
 Rotational               0.889              2.981             28.875
 Vibrational            102.780             27.753             23.047
 Vibration     1          0.600              1.962              3.866
 Vibration     2          0.612              1.924              2.958
 Vibration     3          0.625              1.880              2.437
 Vibration     4          0.639              1.835              2.101
 Vibration     5          0.643              1.823              2.031
 Vibration     6          0.647              1.810              1.956
 Vibration     7          0.665              1.755              1.700
 Vibration     8          0.728              1.574              1.163
 Vibration     9          0.782              1.429              0.895
 Vibration    10          0.861              1.238              0.644
 Vibration    11          0.876              1.204              0.608
 Vibration    12          0.917              1.114              0.520

 Normal termination of Gaussian 09 at Tue Jan 28 02:41:51 2020.
