 Gaussian 09, Revision D.01,
 Gaussian 09:  ES64L-G09RevD.01 24-Apr-2013

 -----------------------------
 # b3lyp 6-31G(2df,p) opt Freq
 -----------------------------

 -----
 titel
 -----
 Symbolic Z-matrix:
 Charge =  0 Multiplicity = 1

 SCF Done:  E(RB3LYP) =  -423.157887388     A.U. after   14 cycles
 Optimization completed.
    -- Stationary point found.
 Normal termination of Gaussian 09 at Tue Jan 28 00:05:35 2020.

 ----------------------------------------------------------------------
 #N Geom=AllCheck Guess=TCheck SCRF=Check GenChk RB3LYP/6-31G(2df,p) Fr
 eq
 ----------------------------------------------------------------------

 Structure from the checkpoint file:  "/scratch/puck/g09_82d88766-bb01-4159-96d1-10bc24a93a45/Gau-2900.chk"
 -----
 titel
 -----
 Charge =  0 Multiplicity = 1

                         Standard orientation:
 ---------------------------------------------------------------------
 Center     Atomic      Atomic             Coordinates (Angstroms)
 Number     Number       Type             X           Y           Z
 ---------------------------------------------------------------------
      1          8           0       -2.682608   -1.007602   -0.134683
      2          6           0       -1.497406   -0.317884   -0.404189
      3          6           0       -1.153797    0.750689    0.582930
      4          6           0       -0.269534    1.904232    0.117514
      5          6           0        0.927170    1.234117   -0.596517
      6          6           0        1.031091   -0.160496    0.025715
      7          6           0        2.266669   -0.690385    0.615961
      8          8           0        1.814369   -1.139206   -0.666300
      9          6           0       -0.329421   -0.528763    0.540615
     10          1           0       -2.562243   -1.921222   -0.415044
     11          1           0       -1.292714   -0.152675   -1.462668
     12          1           0       -1.869239    0.913691    1.380568
     13          1           0       -0.796734    2.612502   -0.530087
     14          1           0        0.076094    2.462505    0.994555
     15          1           0        0.729665    1.119587   -1.667943
     16          1           0        1.854632    1.803819   -0.503704
     17          1           0        3.172753   -0.084379    0.607758
     18          1           0        2.215326   -1.429950    1.415235
     19          1           0       -0.430267   -1.298480    1.297024
 ---------------------------------------------------------------------

 SCF Done:  E(RB3LYP) =  -423.157887388     A.U. after    1 cycles

 The electronic state is 1-A.
 Alpha  occ. eigenvalues --  -19.14371 -19.14359 -10.24043 -10.23506 -10.22859
 Alpha  occ. eigenvalues --  -10.19098 -10.18914 -10.18765 -10.18616  -1.06426
 Alpha  occ. eigenvalues --   -1.02913  -0.87539  -0.75908  -0.69298  -0.65489
 Alpha  occ. eigenvalues --   -0.62155  -0.56485  -0.55126  -0.53152  -0.48551
 Alpha  occ. eigenvalues --   -0.47551  -0.45783  -0.44570  -0.41966  -0.39698
 Alpha  occ. eigenvalues --   -0.36906  -0.36396  -0.35258  -0.34937  -0.32774
 Alpha  occ. eigenvalues --   -0.30197  -0.27731  -0.25845  -0.24604
 Alpha virt. eigenvalues --    0.07361   0.08846   0.09591   0.10968   0.11633
 Alpha virt. eigenvalues --    0.12714   0.13361   0.14721   0.16378   0.17389
 Alpha virt. eigenvalues --    0.18389   0.19461   0.20629   0.21459   0.22696

 Mulliken charges:
               1
     1  O   -0.433313
     2  C    0.088279
     3  C   -0.060083
     4  C   -0.231469
     5  C   -0.324648
     6  C    0.486606
     7  C   -0.259870
     8  O   -0.292586
     9  C   -0.190948
    10  H    0.287829
    11  H    0.088959
    12  H    0.097166
    13  H    0.104457
    14  H    0.105924
    15  H    0.120548
    16  H    0.106243
    17  H    0.109117
    18  H    0.109626
    19  H    0.088164
 Sum of Mulliken charges =   0.00000

 Dipole moment (field-independent basis, Debye):
    X=              0.4471    Y=              0.5342    Z=              0.8505  Tot=              1.0994
 Quadrupole moment (field-independent basis, Debye-Ang):
   XX=            -57.4734   YY=            -49.9268   ZZ=            -52.2645
   XY=              4.0820   XZ=              3.8775   YZ=             -1.2609

  Exact polarizability:  85.195  -0.318  75.642   3.113  -2.422  64.042
 Approx polarizability: 114.445  -2.576 108.415   4.210   0.538 101.578

                      1                      2                      3
                      A                      A                      A
 Frequencies --    106.6371               185.9483               241.5132
 Red. masses --      3.5929                 3.2005                 2.7092
 Frc consts  --      0.0241                 0.0652                 0.0931
 IR Inten    --      2.9265                 1.5820                 6.5085

                      4                      5                      6
                      A                      A                      A
 Frequencies --    276.1423               337.5782               349.2321
 Red. masses --      2.1510                 1.4739                 2.0080
 Frc consts  --      0.0966                 0.0990                 0.1443
 IR Inten    --      6.9608                87.2572                13.9501

                      7                      8                      9
                      A                      A                      A
 Frequencies --    373.9249               420.6593               468.3957
 Red. masses --      3.1862                 3.3882                 4.0258
 Frc consts  --      0.2625                 0.3532                 0.5204
 IR Inten    --      3.3279                 3.6843                 3.2695

                     10                     11                     12
                      A                      A                      A
 Frequencies --    532.4502               647.5392               776.7358
 Red. masses --      5.6999                 2.8091                 2.3033
 Frc consts  --      0.9521                 0.6940                 0.8187
 IR Inten    --     12.5749                 1.1914                 4.7618

                     13                     14                     15
                      A                      A                      A
 Frequencies --    818.3560               854.6101               867.9214
 Red. masses --      1.9560                 3.8657                 2.8766
 Frc consts  --      0.7718                 1.6635                 1.2767
 IR Inten    --      6.8727                32.9735                 6.7706

                     16                     17                     18
                      A                      A                      A
 Frequencies --    893.8009               918.1929               934.3509
 Red. masses --      2.4187                 1.6599                 2.3987
 Frc consts  --      1.1385                 0.8245                 1.2338
 IR Inten    --      8.6022                 2.4381                13.4338

                     19                     20                     21
                      A                      A                      A
 Frequencies --    955.3312               976.6291              1032.0687
 Red. masses --      2.0466                 2.2676                 1.9280
 Frc consts  --      1.1005                 1.2743                 1.2099
 IR Inten    --      2.7526                14.9962                 6.5791

                     22                     23                     24
                      A                      A                      A
 Frequencies --   1042.2842              1083.5637              1095.3137
 Red. masses --      1.3602                 1.2089                 1.9278
 Frc consts  --      0.8706                 0.8363                 1.3626
 IR Inten    --      8.6107                 0.1854                 7.7724

                     25                     26                     27
                      A                      A                      A
 Frequencies --   1128.6542              1140.3956              1165.5977
 Red. masses --      1.3090                 1.8591                 1.5268
 Frc consts  --      0.9824                 1.4245                 1.2222
 IR Inten    --      0.9283                59.4351                15.1079

                     28                     29                     30
                      A                      A                      A
 Frequencies --   1183.7606              1189.5446              1219.4480
 Red. masses --      1.5561                 1.8462                 1.7300
 Frc consts  --      1.2847                 1.5392                 1.5158
 IR Inten    --      2.2039                 5.4620                 0.7431

                     31                     32                     33
                      A                      A                      A
 Frequencies --   1244.0967              1274.8503              1294.4114
 Red. masses --      1.5289                 2.2092                 1.2819
 Frc consts  --      1.3942                 2.1155                 1.2655
 IR Inten    --      0.4472                49.7447                 8.4568

                     34                     35                     36
                      A                      A                      A
 Frequencies --   1311.9294              1330.0105              1351.8088
 Red. masses --      1.3517                 1.6623                 1.4197
 Frc consts  --      1.3707                 1.7324                 1.5286
 IR Inten    --     26.1577                24.9567                 0.9107

                     37                     38                     39
                      A                      A                      A
 Frequencies --   1426.2448              1470.7668              1490.7993
 Red. masses --      2.3611                 2.1354                 1.0949
 Frc consts  --      2.8298                 2.7216                 1.4338
 IR Inten    --     25.6941                12.2711                 2.4597

                     40                     41                     42
                      A                      A                      A
 Frequencies --   1505.0002              1532.6036              3039.9262
 Red. masses --      1.1112                 1.4269                 1.0593
 Frc consts  --      1.4829                 1.9748                 5.7678
 IR Inten    --      3.4099                 6.6677                40.9154

                     43                     44                     45
                      A                      A                      A
 Frequencies --   3050.8742              3070.4515              3077.7547
 Red. masses --      1.0678                 1.0503                 1.1005
 Frc consts  --      5.8558                 5.8341                 6.1422
 IR Inten    --      7.3904                31.0121                24.4688

                     46                     47                     48
                      A                      A                      A
 Frequencies --   3090.0332              3104.9951              3155.0234
 Red. masses --      1.0874                 1.1012                 1.1190
 Frc consts  --      6.1173                 6.2550                 6.5628
 IR Inten    --     30.8392                27.6513                25.5214

                     49                     50                     51
                      A                      A                      A
 Frequencies --   3177.3162              3186.0761              3802.8514
 Red. masses --      1.0891                 1.0922                 1.0662
 Frc consts  --      6.4781                 6.5325                 9.0843
 IR Inten    --      6.8796                11.4281                22.5274

 - Thermochemistry -
 -------------------
 Temperature   298.150 Kelvin.  Pressure   1.00000 Atm.
 Atom     1 has atomic number  8 and mass  15.99491

 Molecular mass:   126.06808 amu.
 Principal axes and moments of inertia in atomic units:
                           1         2         3
     Eigenvalues --   644.310231313.553521683.09212
           X            0.99982   0.01555   0.01073
           Y           -0.01522   0.99944  -0.02990
           Z           -0.01119   0.02973   0.99950
 This molecule is an asymmetric top.
 Rotational symmetry number  1.
 Warning -- assumption of classical behavior for rotation
           may cause significant error
 Rotational temperatures (Kelvin)      0.13443     0.06594     0.05146
 Rotational constants (GHZ):           2.80104     1.37394     1.07228
 Zero-point vibrational energy     419915.6 (Joules/Mol)
                                  100.36223 (Kcal/Mol)
 Warning -- explicit consideration of  10 degrees of freedom as
           vibrations may cause significant error
 Vibrational temperatures:    153.43   267.54   347.48   397.31   485.70
          (Kelvin)            502.47   537.99   605.23   673.92   766.08
                              931.66  1117.55  1177.43  1229.59  1248.74
                             1285.98  1321.07  1344.32  1374.51  1405.15
                             1484.91  1499.61  1559.00  1575.91  1623.88
                             1640.77  1677.03  1703.17  1711.49  1754.51
                             1789.98  1834.22  1862.37  1887.57  1913.59
                             1944.95  2052.05  2116.10  2144.93  2165.36
                             2205.07  4373.77  4389.52  4417.69  4428.20
                             4445.86  4467.39  4539.37  4571.44  4584.05
                             5471.45

 Zero-point correction=                           0.159937 (Hartree/Particle)
 Thermal correction to Energy=                    0.167817
 Thermal correction to Enthalpy=                  0.168761
 Thermal correction to Gibbs Free Energy=         0.127756
 Sum of electronic and zero-point Energies=           -422.997950
 Sum of electronic and thermal Energies=              -422.990071
 Sum of electronic and thermal Enthalpies=            -422.989127
 Sum of electronic and thermal Free Energies=         -423.030131

                     E (Thermal)             CV                S
                      KCal/Mol        Cal/Mol-Kelvin    Cal/Mol-Kelvin
 Total                  105.307             31.407             86.301
 Electronic               0.000              0.000              0.000
 Translational            0.889              2.981             40.409
 Rotational               0.889              2.981             28.745
 Vibrational            103.529             25.445             17.148
 Vibration     1          0.606              1.944              3.329
 Vibration     2          0.632              1.859              2.268
 Vibration     3          0.658              1.777              1.792
 Vibration     4          0.678              1.718              1.557
 Vibration     5          0.718              1.600              1.224
 Vibration     6          0.726              1.577              1.170
 Vibration     7          0.745              1.526              1.064
 Vibration     8          0.783              1.425              0.890
 Vibration     9          0.826              1.320              0.742
 Vibration    10          0.887              1.178              0.582

 Normal termination of Gaussian 09 at Tue Jan 28 00:52:40 2020.
