 Gaussian 09, Revision D.01,
 Gaussian 09:  ES64L-G09RevD.01 24-Apr-2013

 -----------------------------
 # b3lyp 6-31G(2df,p) opt Freq
 -----------------------------

 -----
 titel
 -----
 Symbolic Z-matrix:
 Charge =  0 Multiplicity = 1

 SCF Done:  E(RB3LYP) =  -423.150376844     A.U. after   13 cycles
 Optimization completed.
    -- Stationary point found.
 Normal termination of Gaussian 09 at Mon Jan 27 12:02:06 2020.

 ----------------------------------------------------------------------
 #N Geom=AllCheck Guess=TCheck SCRF=Check GenChk RB3LYP/6-31G(2df,p) Fr
 eq
 ----------------------------------------------------------------------

 Structure from the checkpoint file:  "/scratch/puck/g09_975aedd7-86b8-4eb0-bf90-0ddb15f4bcef/Gau-48237.chk"
 -----
 titel
 -----
 Charge =  0 Multiplicity = 1

                         Standard orientation:
 ---------------------------------------------------------------------
 Center     Atomic      Atomic             Coordinates (Angstroms)
 Number     Number       Type             X           Y           Z
 ---------------------------------------------------------------------
      1          6           0        2.038368   -0.010371    0.844274
      2          6           0        2.228090   -0.225361   -0.647717
      3          6           0        0.859738   -0.001760   -0.089634
      4          8           0        0.280983    1.246009   -0.415925
      5          6           0       -1.030200    1.433864    0.121262
      6          6           0       -1.781986    0.106829    0.151740
      7          6           0       -1.323110   -0.796798   -1.012100
      8          6           0       -0.179742   -1.091612   -0.017309
      9          8           0       -1.076048   -0.757836    1.089984
     10          1           0        2.167315   -0.852114    1.516354
     11          1           0        2.342065    0.948964    1.246717
     12          1           0        2.653274    0.591882   -1.219241
     13          1           0        2.489282   -1.216152   -1.004477
     14          1           0       -0.983604    1.836968    1.143446
     15          1           0       -1.522384    2.165801   -0.528462
     16          1           0       -2.842938    0.217123    0.390694
     17          1           0       -1.980620   -1.656453   -1.142485
     18          1           0       -1.073150   -0.335471   -1.968286
     19          1           0        0.244339   -2.094687    0.070174
 ---------------------------------------------------------------------

 SCF Done:  E(RB3LYP) =  -423.150376844     A.U. after    1 cycles

 The electronic state is 1-A.
 Alpha  occ. eigenvalues --  -19.14316 -19.13058 -10.23819 -10.23773 -10.23673
 Alpha  occ. eigenvalues --  -10.22843 -10.18901 -10.18543 -10.18165  -1.05953
 Alpha  occ. eigenvalues --   -1.01568  -0.85347  -0.75268  -0.72979  -0.65257
 Alpha  occ. eigenvalues --   -0.60607  -0.60304  -0.52262  -0.51629  -0.49235
 Alpha  occ. eigenvalues --   -0.48035  -0.46470  -0.43104  -0.42755  -0.40665
 Alpha  occ. eigenvalues --   -0.38140  -0.36947  -0.35121  -0.33958  -0.32595
 Alpha  occ. eigenvalues --   -0.30419  -0.29464  -0.24447  -0.23296
 Alpha virt. eigenvalues --    0.08679   0.09355   0.10916   0.11113   0.13229
 Alpha virt. eigenvalues --    0.13570   0.14119   0.15042   0.16108   0.16273
 Alpha virt. eigenvalues --    0.17557   0.18316   0.19761   0.21446   0.22446

 Mulliken charges:
               1
     1  C   -0.325848
     2  C   -0.339127
     3  C    0.488593
     4  O   -0.316902
     5  C   -0.086905
     6  C    0.073969
     7  C   -0.252505
     8  C   -0.009363
     9  O   -0.299679
    10  H    0.116416
    11  H    0.121906
    12  H    0.125427
    13  H    0.113603
    14  H    0.104462
    15  H    0.105895
    16  H    0.080007
    17  H    0.109579
    18  H    0.114404
    19  H    0.076068
 Sum of Mulliken charges =   0.00000

 Dipole moment (field-independent basis, Debye):
    X=             -0.4365    Y=             -0.3091    Z=             -0.9970  Tot=              1.1314
 Quadrupole moment (field-independent basis, Debye-Ang):
   XX=            -50.2589   YY=            -51.8434   ZZ=            -55.2048
   XY=             -2.8919   XZ=              1.9185   YZ=              2.5555

  Exact polarizability:  86.045  -4.171  71.673   0.665   2.237  67.086
 Approx polarizability: 112.910  -5.867 104.591  -1.700  -0.617 105.127

                      1                      2                      3
                      A                      A                      A
 Frequencies --    119.2216               207.7245               281.7437
 Red. masses --      3.7739                 2.4419                 2.6573
 Frc consts  --      0.0316                 0.0621                 0.1243
 IR Inten    --      1.7312                 3.6039                 0.2204

                      4                      5                      6
                      A                      A                      A
 Frequencies --    345.1249               381.8259               428.0597
 Red. masses --      2.0873                 2.3834                 4.7479
 Frc consts  --      0.1465                 0.2047                 0.5126
 IR Inten    --      2.5771                 2.2544                 4.0834

                      7                      8                      9
                      A                      A                      A
 Frequencies --    443.6346               549.8606               629.3953
 Red. masses --      4.3691                 3.7966                 3.6070
 Frc consts  --      0.5066                 0.6763                 0.8419
 IR Inten    --      4.9129                 1.2593                 6.9012

                     10                     11                     12
                      A                      A                      A
 Frequencies --    724.8457               764.9100               839.1831
 Red. masses --      3.3723                 1.0537                 2.3776
 Frc consts  --      1.0439                 0.3632                 0.9865
 IR Inten    --      4.3852                 0.1463                 5.9695

                     13                     14                     15
                      A                      A                      A
 Frequencies --    858.0848               881.3269               882.6703
 Red. masses --      2.3230                 2.1691                 2.1998
 Frc consts  --      1.0078                 0.9926                 1.0098
 IR Inten    --      9.7077                23.7269                27.3210

                     16                     17                     18
                      A                      A                      A
 Frequencies --    912.1919               938.1148               953.7975
 Red. masses --      2.4144                 2.8969                 2.5495
 Frc consts  --      1.1837                 1.5021                 1.3665
 IR Inten    --     10.6554                11.5052                 3.0893

                     19                     20                     21
                      A                      A                      A
 Frequencies --    964.5112               985.2381              1006.5089
 Red. masses --      2.6908                 3.0334                 1.8835
 Frc consts  --      1.4748                 1.7348                 1.1242
 IR Inten    --     27.9698                32.5166                21.4322

                     22                     23                     24
                      A                      A                      A
 Frequencies --   1051.7576              1056.9572              1073.6616
 Red. masses --      1.5419                 1.6482                 1.4646
 Frc consts  --      1.0049                 1.0848                 0.9947
 IR Inten    --     13.9810                 5.4711                 5.8100

                     25                     26                     27
                      A                      A                      A
 Frequencies --   1080.4002              1097.9526              1128.0730
 Red. masses --      2.0054                 2.5458                 2.2127
 Frc consts  --      1.3791                 1.8082                 1.6590
 IR Inten    --     33.7289                 5.3255                31.3932

                     28                     29                     30
                      A                      A                      A
 Frequencies --   1186.9655              1206.0318              1243.1218
 Red. masses --      1.2710                 1.4097                 1.4391
 Frc consts  --      1.0550                 1.2081                 1.3103
 IR Inten    --      0.1707                15.0711                14.0350

                     31                     32                     33
                      A                      A                      A
 Frequencies --   1252.5702              1275.8763              1284.4647
 Red. masses --      1.2347                 1.6806                 2.1792
 Frc consts  --      1.1414                 1.6119                 2.1184
 IR Inten    --      6.4744                24.7567                40.7572

                     34                     35                     36
                      A                      A                      A
 Frequencies --   1322.2130              1338.1666              1396.5139
 Red. masses --      1.4844                 1.6164                 1.5868
 Frc consts  --      1.5290                 1.7054                 1.8233
 IR Inten    --      4.0867                 1.4337                 0.8104

                     37                     38                     39
                      A                      A                      A
 Frequencies --   1403.3650              1452.1166              1480.7819
 Red. masses --      1.7253                 1.0904                 1.1460
 Frc consts  --      2.0020                 1.3547                 1.4805
 IR Inten    --      0.7087                 2.0072                 3.5549

                     40                     41                     42
                      A                      A                      A
 Frequencies --   1488.9930              1500.4814              3001.7675
 Red. masses --      1.1304                 1.5332                 1.0641
 Frc consts  --      1.4766                 2.0338                 5.6491
 IR Inten    --      3.0087                 6.4837                52.1826

                     43                     44                     45
                      A                      A                      A
 Frequencies --   3071.1014              3079.8200              3084.3058
 Red. masses --      1.0988                 1.0752                 1.0838
 Frc consts  --      6.1062                 6.0090                 6.0744
 IR Inten    --     23.0355                22.2945                79.1181

                     46                     47                     48
                      A                      A                      A
 Frequencies --   3092.5858              3132.7249              3136.1775
 Red. masses --      1.0765                 1.0517                 1.0574
 Frc consts  --      6.0662                 6.0812                 6.1277
 IR Inten    --     23.3108                13.2818                 7.3453

                     49                     50                     51
                      A                      A                      A
 Frequencies --   3152.8663              3217.9024              3232.0116
 Red. masses --      1.1105                 1.1180                 1.1156
 Frc consts  --      6.5040                 6.8210                 6.8661
 IR Inten    --     16.1721                 0.2354                 9.5004

 - Thermochemistry -
 -------------------
 Temperature   298.150 Kelvin.  Pressure   1.00000 Atm.
 Atom     1 has atomic number  6 and mass  12.00000

 Molecular mass:   126.06808 amu.
 Principal axes and moments of inertia in atomic units:
                           1         2         3
     Eigenvalues --   577.529851113.576831254.40690
           X            0.99953  -0.02632   0.01594
           Y            0.02468   0.99515   0.09521
           Z           -0.01837  -0.09477   0.99533
 This molecule is an asymmetric top.
 Rotational symmetry number  1.
 Warning -- assumption of classical behavior for rotation
           may cause significant error
 Rotational temperatures (Kelvin)      0.14997     0.07778     0.06905
 Rotational constants (GHZ):           3.12493     1.62067     1.43872
 Zero-point vibrational energy     422399.6 (Joules/Mol)
                                  100.95593 (Kcal/Mol)
 Warning -- explicit consideration of   8 degrees of freedom as
           vibrations may cause significant error
 Vibrational temperatures:    171.53   298.87   405.37   496.56   549.36
          (Kelvin)            615.88   638.29   791.13   905.56  1042.89
                             1100.53  1207.40  1234.59  1268.03  1269.96
                             1312.44  1349.74  1372.30  1387.71  1417.54
                             1448.14  1513.24  1520.72  1544.76  1554.45
                             1579.71  1623.04  1707.78  1735.21  1788.57
                             1802.17  1835.70  1848.06  1902.37  1925.32
                             2009.27  2019.13  2089.27  2130.51  2142.33
                             2158.86  4318.87  4418.62  4431.17  4437.62
                             4449.54  4507.29  4512.25  4536.27  4629.84
                             4650.14

 Zero-point correction=                           0.160884 (Hartree/Particle)
 Thermal correction to Energy=                    0.167989
 Thermal correction to Enthalpy=                  0.168934
 Thermal correction to Gibbs Free Energy=         0.129636
 Sum of electronic and zero-point Energies=           -422.989493
 Sum of electronic and thermal Energies=              -422.982387
 Sum of electronic and thermal Enthalpies=            -422.981443
 Sum of electronic and thermal Free Energies=         -423.020741

                     E (Thermal)             CV                S
                      KCal/Mol        Cal/Mol-Kelvin    Cal/Mol-Kelvin
 Total                  105.415             29.322             82.710
 Electronic               0.000              0.000              0.000
 Translational            0.889              2.981             40.409
 Rotational               0.889              2.981             28.180
 Vibrational            103.638             23.361             14.121
 Vibration     1          0.609              1.933              3.113
 Vibration     2          0.641              1.829              2.064
 Vibration     3          0.681              1.707              1.523
 Vibration     4          0.723              1.585              1.188
 Vibration     5          0.751              1.509              1.032
 Vibration     6          0.790              1.409              0.865
 Vibration     7          0.803              1.375              0.815
 Vibration     8          0.905              1.140              0.544

 Optimization completed.
    -- Stationary point found.
 Normal termination of Gaussian 09 at Mon Jan 27 12:45:18 2020.
