 Gaussian 09, Revision D.01,
 Gaussian 09:  ES64L-G09RevD.01 24-Apr-2013

 -----------------------------
 # b3lyp 6-31G(2df,p) opt Freq
 -----------------------------

 -----
 titel
 -----
 Symbolic Z-matrix:
 Charge =  0 Multiplicity = 1

 SCF Done:  E(RB3LYP) =  -423.205525590     A.U. after   15 cycles
 SCF Done:  E(RB3LYP) =  -423.205525702     A.U. after    7 cycles
 Optimization completed.
    -- Stationary point found.
 Normal termination of Gaussian 09 at Tue Jan 28 12:44:19 2020.

 ----------------------------------------------------------------------
 #N Geom=AllCheck Guess=TCheck SCRF=Check GenChk RB3LYP/6-31G(2df,p) Fr
 eq
 ----------------------------------------------------------------------

 Structure from the checkpoint file:  "/scratch/puck/g09_68219bbb-4132-4bdc-94ba-8d5a4da6036d/Gau-20632.chk"
 -----
 titel
 -----
 Charge =  0 Multiplicity = 1

                         Standard orientation:
 ---------------------------------------------------------------------
 Center     Atomic      Atomic             Coordinates (Angstroms)
 Number     Number       Type             X           Y           Z
 ---------------------------------------------------------------------
      1          6           0       -1.740169   -1.477900    0.780540
      2          8           0       -0.992070   -1.411394   -0.421600
      3          6           0       -0.118899   -0.321818   -0.546324
      4          6           0        1.187747   -0.363594    0.292888
      5          6           0        2.361597   -1.069017   -0.393055
      6          6           0        1.429596    1.096743    0.594703
      7          6           0        0.391489    1.888922    0.294919
      8          6           0       -0.712533    1.082649   -0.269444
      9          8           0       -1.853778    1.423082   -0.478981
     10          1           0       -2.421821   -0.626610    0.880649
     11          1           0       -2.322204   -2.400622    0.727895
     12          1           0       -1.095077   -1.527667    1.670734
     13          1           0        0.169818   -0.311590   -1.606849
     14          1           0        0.979627   -0.884056    1.238272
     15          1           0        2.621231   -0.574726   -1.335515
     16          1           0        3.252739   -1.069312    0.243474
     17          1           0        2.103684   -2.108560   -0.615262
     18          1           0        2.369381    1.436661    1.020658
     19          1           0        0.316438    2.957062    0.455222
 ---------------------------------------------------------------------

 SCF Done:  E(RB3LYP) =  -423.205525702     A.U. after    1 cycles

 The electronic state is 1-A.
 Alpha  occ. eigenvalues --  -19.14529 -19.12573 -10.26211 -10.23806 -10.22144
 Alpha  occ. eigenvalues --  -10.21782 -10.20750 -10.19695 -10.18865  -1.04511
 Alpha  occ. eigenvalues --   -1.02526  -0.85862  -0.75753  -0.72521  -0.66175
 Alpha  occ. eigenvalues --   -0.64708  -0.56896  -0.53951  -0.50339  -0.48530
 Alpha  occ. eigenvalues --   -0.45546  -0.44808  -0.44176  -0.42267  -0.41010
 Alpha  occ. eigenvalues --   -0.39955  -0.37782  -0.37201  -0.36517  -0.35607
 Alpha  occ. eigenvalues --   -0.32146  -0.27831  -0.27206  -0.22869
 Alpha virt. eigenvalues --   -0.05160   0.04630   0.09142   0.10645   0.11952
 Alpha virt. eigenvalues --    0.13055   0.13305   0.15122   0.15792   0.16631
 Alpha virt. eigenvalues --    0.17072   0.17625   0.19746   0.21155   0.22406

 Mulliken charges:
               1
     1  C   -0.256852
     2  O   -0.241135
     3  C    0.021967
     4  C   -0.067966
     5  C   -0.409848
     6  C   -0.048840
     7  C   -0.189445
     8  C    0.329334
     9  O   -0.334875
    10  H    0.140509
    11  H    0.130291
    12  H    0.101013
    13  H    0.114275
    14  H    0.102241
    15  H    0.122070
    16  H    0.115916
    17  H    0.135488
    18  H    0.115374
    19  H    0.120483
 Sum of Mulliken charges =   0.00000

 Dipole moment (field-independent basis, Debye):
    X=              3.2235    Y=             -0.3824    Z=              1.6164  Tot=              3.6262
 Quadrupole moment (field-independent basis, Debye-Ang):
   XX=            -55.2155   YY=            -53.8625   ZZ=            -52.3599
   XY=              4.4912   XZ=             -2.3339   YZ=             -0.5274

  Exact polarizability:  92.993  -3.613  81.449   4.329  -0.114  59.438
 Approx polarizability: 146.032 -13.932 115.592  14.348  -2.460  94.463

                      1                      2                      3
                      A                      A                      A
 Frequencies --     65.1543                99.2718               174.2194
 Red. masses --      3.7942                 1.6550                 1.7617
 Frc consts  --      0.0095                 0.0096                 0.0315
 IR Inten    --      1.0633                 2.6577                 2.0823

                      4                      5                      6
                      A                      A                      A
 Frequencies --    204.2261               227.0199               233.4974
 Red. masses --      3.7253                 2.2975                 1.1404
 Frc consts  --      0.0915                 0.0698                 0.0366
 IR Inten    --      2.6886                 1.5093                 1.0937

                      7                      8                      9
                      A                      A                      A
 Frequencies --    294.9133               309.9173               405.2182
 Red. masses --      2.7448                 4.9444                 2.8252
 Frc consts  --      0.1407                 0.2798                 0.2733
 IR Inten    --      1.2094                 4.1074                 0.6459

                     10                     11                     12
                      A                      A                      A
 Frequencies --    495.5839               511.5413               610.5760
 Red. masses --      3.4577                 4.6630                 3.9712
 Frc consts  --      0.5004                 0.7189                 0.8723
 IR Inten    --      2.7226                 3.3482                10.8462

                     13                     14                     15
                      A                      A                      A
 Frequencies --    685.3552               718.7701               780.9564
 Red. masses --      4.1953                 5.4758                 1.5016
 Frc consts  --      1.1610                 1.6668                 0.5396
 IR Inten    --      2.8250                 5.7567                22.4224

                     16                     17                     18
                      A                      A                      A
 Frequencies --    877.2653               899.4324               940.0671
 Red. masses --      1.7653                 3.3892                 2.6918
 Frc consts  --      0.8005                 1.6154                 1.4016
 IR Inten    --      7.6301                10.0901                 2.0762

                     19                     20                     21
                      A                      A                      A
 Frequencies --    981.2282              1002.2517              1056.8608
 Red. masses --      3.0379                 1.2924                 1.8826
 Frc consts  --      1.7233                 0.7649                 1.2389
 IR Inten    --     22.2862                 0.9651                18.5907

                     22                     23                     24
                      A                      A                      A
 Frequencies --   1088.2829              1106.6321              1141.5651
 Red. masses --      1.8069                 1.6552                 2.2403
 Frc consts  --      1.2609                 1.1943                 1.7201
 IR Inten    --     11.3746                 0.8491                50.0768

                     25                     26                     27
                      A                      A                      A
 Frequencies --   1148.4936              1176.2110              1198.2040
 Red. masses --      1.6565                 1.3531                 2.5625
 Frc consts  --      1.2874                 1.1030                 2.1676
 IR Inten    --     52.7047                 4.3890                26.0792

                     28                     29                     30
                      A                      A                      A
 Frequencies --   1230.5131              1259.9843              1288.5212
 Red. masses --      1.7003                 1.3981                 1.9416
 Frc consts  --      1.5169                 1.3078                 1.8993
 IR Inten    --     40.6105                 0.2094                22.9059

                     31                     32                     33
                      A                      A                      A
 Frequencies --   1330.9141              1365.1352              1381.5420
 Red. masses --      1.4447                 1.5879                 1.4629
 Frc consts  --      1.5077                 1.7435                 1.6451
 IR Inten    --     10.7504                 9.6510                 3.1199

                     34                     35                     36
                      A                      A                      A
 Frequencies --   1411.5844              1477.5027              1489.1288
 Red. masses --      1.2408                 1.1575                 1.0468
 Frc consts  --      1.4567                 1.4888                 1.3677
 IR Inten    --      1.9639                 1.0215                 4.8513

                     37                     38                     39
                      A                      A                      A
 Frequencies --   1497.5332              1499.2209              1512.1247
 Red. masses --      1.0458                 1.0488                 1.0484
 Frc consts  --      1.3819                 1.3890                 1.4123
 IR Inten    --      5.5899                 4.1681                 7.8181

                     40                     41                     42
                      A                      A                      A
 Frequencies --   1642.1412              1813.8297              2989.3718
 Red. masses --      6.6496                12.3400                 1.0470
 Frc consts  --     10.5650                23.9199                 5.5124
 IR Inten    --     18.8898               249.6206                42.1961

                     43                     44                     45
                      A                      A                      A
 Frequencies --   3009.2879              3019.3970              3032.1195
 Red. masses --      1.0795                 1.0823                 1.0357
 Frc consts  --      5.7599                 5.8138                 5.6103
 IR Inten    --      4.2462                22.5344                29.2512

                     46                     47                     48
                      A                      A                      A
 Frequencies --   3074.6419              3099.3015              3112.9399
 Red. masses --      1.0875                 1.1018                 1.1015
 Frc consts  --      6.0571                 6.2355                 6.2890
 IR Inten    --     31.1560                27.0002                15.2305

                     49                     50                     51
                      A                      A                      A
 Frequencies --   3124.9794              3173.4443              3221.5617
 Red. masses --      1.1021                 1.0896                 1.1005
 Frc consts  --      6.3411                 6.4652                 6.7294
 IR Inten    --     22.2738                10.2465                 6.3275

 - Thermochemistry -
 -------------------
 Temperature   298.150 Kelvin.  Pressure   1.00000 Atm.
 Atom     1 has atomic number  6 and mass  12.00000

 Molecular mass:   126.06808 amu.
 Principal axes and moments of inertia in atomic units:
                           1         2         3
     Eigenvalues --   865.364661081.563301675.51270
           X            0.99882   0.04073  -0.02642
           Y           -0.04091   0.99915  -0.00598
           Z            0.02615   0.00705   0.99963
 This molecule is an asymmetric top.
 Rotational symmetry number  1.
 Warning -- assumption of classical behavior for rotation
           may cause significant error
 Rotational temperatures (Kelvin)      0.10009     0.08008     0.05169
 Rotational constants (GHZ):           2.08553     1.66864     1.07713
 Zero-point vibrational energy     415639.1 (Joules/Mol)
                                   99.34013 (Kcal/Mol)
 Warning -- explicit consideration of  12 degrees of freedom as
           vibrations may cause significant error
 Vibrational temperatures:     93.74   142.83   250.66   293.84   326.63
          (Kelvin)            335.95   424.31   445.90   583.02   713.03
                              735.99   878.48   986.07  1034.15  1123.62
                             1262.19  1294.08  1352.55  1411.77  1442.01
                             1520.59  1565.79  1592.19  1642.46  1652.42
                             1692.30  1723.95  1770.43  1812.83  1853.89
                             1914.89  1964.12  1987.73  2030.95  2125.79
                             2142.52  2154.61  2157.04  2175.61  2362.67
                             2609.69  4301.03  4329.69  4344.23  4362.54
                             4423.72  4459.20  4478.82  4496.14  4565.87
                             4635.10

 Zero-point correction=                           0.158309 (Hartree/Particle)
 Thermal correction to Energy=                    0.167406
 Thermal correction to Enthalpy=                  0.168350
 Thermal correction to Gibbs Free Energy=         0.124252
 Sum of electronic and zero-point Energies=           -423.047217
 Sum of electronic and thermal Energies=              -423.038120
 Sum of electronic and thermal Enthalpies=            -423.037176
 Sum of electronic and thermal Free Energies=         -423.081273

                     E (Thermal)             CV                S
                      KCal/Mol        Cal/Mol-Kelvin    Cal/Mol-Kelvin
 Total                  105.049             33.283             92.811
 Electronic               0.000              0.000              0.000
 Translational            0.889              2.981             40.409
 Rotational               0.889              2.981             28.841
 Vibrational            103.271             27.321             23.562
 Vibration     1          0.597              1.971              4.295
 Vibration     2          0.604              1.950              3.469
 Vibration     3          0.627              1.874              2.389
 Vibration     4          0.640              1.834              2.095
 Vibration     5          0.651              1.800              1.902
 Vibration     6          0.654              1.790              1.852
 Vibration     7          0.689              1.683              1.446
 Vibration     8          0.699              1.655              1.363
 Vibration     9          0.770              1.459              0.944
 Vibration    10          0.851              1.260              0.669
 Vibration    11          0.867              1.224              0.630
 Vibration    12          0.970              1.009              0.432

 Optimization completed.
    -- Stationary point found.
 Normal termination of Gaussian 09 at Tue Jan 28 13:32:04 2020.
