 Gaussian 09, Revision D.01,
 Gaussian 09:  ES64L-G09RevD.01 24-Apr-2013

 -----------------------------
 # b3lyp 6-31G(2df,p) opt Freq
 -----------------------------

 -----
 titel
 -----
 Symbolic Z-matrix:
 Charge =  0 Multiplicity = 1

 SCF Done:  E(RB3LYP) =  -423.167139354     A.U. after   14 cycles
 Optimization completed.
    -- Stationary point found.
 Normal termination of Gaussian 09 at Tue Jan 28 03:55:42 2020.

 ----------------------------------------------------------------------
 #N Geom=AllCheck Guess=TCheck SCRF=Check GenChk RB3LYP/6-31G(2df,p) Fr
 eq
 ----------------------------------------------------------------------

 Structure from the checkpoint file:  "/scratch/puck/g09_cbb1327f-f4a7-4f73-a5c7-18a5e1bc32c2/Gau-192798.chk"
 -----
 titel
 -----
 Charge =  0 Multiplicity = 1

                         Standard orientation:
 ---------------------------------------------------------------------
 Center     Atomic      Atomic             Coordinates (Angstroms)
 Number     Number       Type             X           Y           Z
 ---------------------------------------------------------------------
      1          8           0       -2.544468   -0.678363   -0.363647
      2          6           0       -1.516665   -0.053766    0.398654
      3          6           0       -1.036397    1.233628   -0.319160
      4          6           0        0.234381    1.841789    0.232360
      5          6           0        1.432202    1.268873    0.104444
      6          6           0        1.611615   -0.036738   -0.592480
      7          8           0        2.061453   -1.155933    0.187399
      8          6           0        0.711217   -1.165407   -0.294223
      9          6           0       -0.369879   -1.021772    0.761202
     10          1           0       -2.192120   -0.872575   -1.238935
     11          1           0       -2.014380    0.223143    1.334329
     12          1           0       -0.877197    0.974350   -1.374479
     13          1           0       -1.853882    1.959018   -0.305737
     14          1           0        0.152011    2.793620    0.751185
     15          1           0        2.325641    1.746845    0.498671
     16          1           0        2.081482    0.007054   -1.577971
     17          1           0        0.537429   -1.897206   -1.084689
     18          1           0       -0.814507   -1.994794    0.992955
     19          1           0        0.120801   -0.664734    1.669878
 ---------------------------------------------------------------------

 SCF Done:  E(RB3LYP) =  -423.167139354     A.U. after    1 cycles

 The electronic state is 1-A.
 Alpha  occ. eigenvalues --  -19.14832 -19.13773 -10.23913 -10.23891 -10.23826
 Alpha  occ. eigenvalues --  -10.19485 -10.19174 -10.18895 -10.18252  -1.06762
 Alpha  occ. eigenvalues --   -1.02032  -0.81727  -0.76403  -0.71994  -0.65190
 Alpha  occ. eigenvalues --   -0.64485  -0.57628  -0.53728  -0.51508  -0.49165
 Alpha  occ. eigenvalues --   -0.47819  -0.45604  -0.44258  -0.42244  -0.39303
 Alpha  occ. eigenvalues --   -0.38662  -0.37321  -0.35905  -0.35414  -0.32333
 Alpha  occ. eigenvalues --   -0.29434  -0.28487  -0.26078  -0.25153
 Alpha virt. eigenvalues --   -0.00248   0.06161   0.09017   0.10103   0.11682
 Alpha virt. eigenvalues --    0.12923   0.14235   0.14670   0.15872   0.16856
 Alpha virt. eigenvalues --    0.18062   0.18639   0.19626   0.21184   0.23686

 Mulliken charges:
               1
     1  O   -0.432463
     2  C    0.129458
     3  C   -0.276986
     4  C   -0.063953
     5  C   -0.088450
     6  C    0.015819
     7  O   -0.259299
     8  C    0.033506
     9  C   -0.254083
    10  H    0.277242
    11  H    0.095026
    12  H    0.100642
    13  H    0.111399
    14  H    0.097826
    15  H    0.100402
    16  H    0.094603
    17  H    0.087120
    18  H    0.109975
    19  H    0.122217
 Sum of Mulliken charges =   0.00000

 Dipole moment (field-independent basis, Debye):
    X=             -0.2607    Y=              1.2261    Z=             -1.1659  Tot=              1.7119
 Quadrupole moment (field-independent basis, Debye-Ang):
   XX=            -62.0591   YY=            -52.3351   ZZ=            -49.8174
   XY=              1.8627   XZ=             -0.9458   YZ=              2.7990

  Exact polarizability:  85.450   0.013  77.603  -1.783   3.957  62.358
 Approx polarizability: 129.888  -4.590 111.376  -0.962   5.035  97.313

                      1                      2                      3
                      A                      A                      A
 Frequencies --    102.2219               181.6990               269.3606
 Red. masses --      3.6893                 2.9298                 2.0428
 Frc consts  --      0.0227                 0.0570                 0.0873
 IR Inten    --      2.4827                 1.0482                 6.7696

                      4                      5                      6
                      A                      A                      A
 Frequencies --    281.2691               308.6060               321.7165
 Red. masses --      1.3704                 3.7121                 2.9172
 Frc consts  --      0.0639                 0.2083                 0.1779
 IR Inten    --     77.5091                 8.6403                 2.1362

                      7                      8                      9
                      A                      A                      A
 Frequencies --    373.7674               430.4097               487.9796
 Red. masses --      4.7749                 3.1859                 2.4873
 Frc consts  --      0.3930                 0.3477                 0.3490
 IR Inten    --      2.9620                 7.5320                 3.5423

                     10                     11                     12
                      A                      A                      A
 Frequencies --    539.1490               607.7894               711.6772
 Red. masses --      3.4995                 2.3914                 2.1001
 Frc consts  --      0.5993                 0.5205                 0.6267
 IR Inten    --      8.5288                 2.2185                15.8351

                     13                     14                     15
                      A                      A                      A
 Frequencies --    771.6536               811.4261               833.7406
 Red. masses --      2.6070                 2.9179                 2.7273
 Frc consts  --      0.9146                 1.1319                 1.1170
 IR Inten    --     10.0224                 7.4448                13.0788

                     16                     17                     18
                      A                      A                      A
 Frequencies --    845.7863               932.8860               939.4481
 Red. masses --      3.6257                 2.6995                 2.4718
 Frc consts  --      1.5281                 1.3842                 1.2853
 IR Inten    --     11.7624                17.5687                11.1768

                     19                     20                     21
                      A                      A                      A
 Frequencies --    970.7216               998.1653              1012.3355
 Red. masses --      2.7490                 1.2783                 1.8702
 Frc consts  --      1.5262                 0.7504                 1.1293
 IR Inten    --      4.9844                 1.0137                 1.6577

                     22                     23                     24
                      A                      A                      A
 Frequencies --   1041.0285              1067.4389              1099.1395
 Red. masses --      1.9640                 2.7606                 2.7560
 Frc consts  --      1.2540                 1.8533                 1.9617
 IR Inten    --     10.8833               102.2414                16.7693

                     25                     26                     27
                      A                      A                      A
 Frequencies --   1123.6969              1149.1692              1188.7180
 Red. masses --      1.7537                 1.3782                 1.2013
 Frc consts  --      1.3047                 1.0723                 1.0001
 IR Inten    --     14.6667                 2.4556                 0.9050

                     28                     29                     30
                      A                      A                      A
 Frequencies --   1226.5226              1251.7039              1260.0446
 Red. masses --      1.2014                 1.1751                 1.4553
 Frc consts  --      1.0649                 1.0847                 1.3613
 IR Inten    --     17.2767                 6.9844                 4.7966

                     31                     32                     33
                      A                      A                      A
 Frequencies --   1292.3760              1334.4815              1341.6314
 Red. masses --      1.2655                 1.4265                 1.3289
 Frc consts  --      1.2453                 1.4968                 1.4093
 IR Inten    --      5.9600                 6.3604                 2.8733

                     34                     35                     36
                      A                      A                      A
 Frequencies --   1360.5983              1391.9998              1414.6181
 Red. masses --      1.3043                 1.4026                 1.5061
 Frc consts  --      1.4227                 1.6013                 1.7758
 IR Inten    --      0.6928                 6.0388                 8.1731

                     37                     38                     39
                      A                      A                      A
 Frequencies --   1428.8665              1466.8456              1475.2155
 Red. masses --      1.2174                 3.0782                 1.0968
 Frc consts  --      1.4645                 3.9022                 1.4063
 IR Inten    --     50.0713                13.8492                 8.7233

                     40                     41                     42
                      A                      A                      A
 Frequencies --   1490.1445              1708.4446              3015.1218
 Red. masses --      1.1042                 7.0844                 1.0698
 Frc consts  --      1.4447                12.1829                 5.7303
 IR Inten    --      6.9777                 1.5622                17.8765

                     43                     44                     45
                      A                      A                      A
 Frequencies --   3049.0519              3061.9603              3072.3592
 Red. masses --      1.0790                 1.0678                 1.0841
 Frc consts  --      5.9102                 5.8985                 6.0295
 IR Inten    --     16.1440                28.3812                26.0585

                     46                     47                     48
                      A                      A                      A
 Frequencies --   3091.9271              3094.6967              3113.6115
 Red. masses --      1.0896                 1.0933                 1.1009
 Frc consts  --      6.1371                 6.1691                 6.2884
 IR Inten    --     30.5303                19.8628                26.9180

                     49                     50                     51
                      A                      A                      A
 Frequencies --   3148.9435              3171.1519              3802.6075
 Red. masses --      1.0835                 1.0972                 1.0659
 Frc consts  --      6.3298                 6.5007                 9.0810
 IR Inten    --      5.7826                28.4504                 9.9118

 - Thermochemistry -
 -------------------
 Temperature   298.150 Kelvin.  Pressure   1.00000 Atm.
 Atom     1 has atomic number  8 and mass  15.99491

 Molecular mass:   126.06808 amu.
 Principal axes and moments of inertia in atomic units:
                           1         2         3
     Eigenvalues --   688.990501187.629081645.03193
           X            0.99989   0.01399  -0.00506
           Y           -0.01394   0.99985   0.01046
           Z            0.00521  -0.01039   0.99993
 This molecule is an asymmetric top.
 Rotational symmetry number  1.
 Warning -- assumption of classical behavior for rotation
           may cause significant error
 Rotational temperatures (Kelvin)      0.12571     0.07293     0.05265
 Rotational constants (GHZ):           2.61940     1.51962     1.09709
 Zero-point vibrational energy     421479.8 (Joules/Mol)
                                  100.73609 (Kcal/Mol)
 Warning -- explicit consideration of  11 degrees of freedom as
           vibrations may cause significant error
 Vibrational temperatures:    147.07   261.42   387.55   404.68   444.01
          (Kelvin)            462.88   537.77   619.26   702.09   775.71
                              874.47  1023.94  1110.24  1167.46  1199.57
                             1216.90  1342.21  1351.65  1396.65  1436.14
                             1456.52  1497.81  1535.80  1581.41  1616.75
                             1653.40  1710.30  1764.69  1800.92  1812.92
                             1859.44  1920.02  1930.31  1957.59  2002.77
                             2035.32  2055.82  2110.46  2122.50  2143.98
                             2458.07  4338.08  4386.90  4405.47  4420.43
                             4448.59  4452.57  4479.79  4530.62  4562.57
                             5471.10

 Zero-point correction=                           0.160533 (Hartree/Particle)
 Thermal correction to Energy=                    0.168475
 Thermal correction to Enthalpy=                  0.169419
 Thermal correction to Gibbs Free Energy=         0.128322
 Sum of electronic and zero-point Energies=           -423.006606
 Sum of electronic and thermal Energies=              -422.998664
 Sum of electronic and thermal Enthalpies=            -422.997720
 Sum of electronic and thermal Free Energies=         -423.038817

                     E (Thermal)             CV                S
                      KCal/Mol        Cal/Mol-Kelvin    Cal/Mol-Kelvin
 Total                  105.720             31.544             86.496
 Electronic               0.000              0.000              0.000
 Translational            0.889              2.981             40.409
 Rotational               0.889              2.981             28.689
 Vibrational            103.942             25.583             17.399
 Vibration     1          0.604              1.947              3.412
 Vibration     2          0.630              1.865              2.311
 Vibration     3          0.674              1.730              1.600
 Vibration     4          0.681              1.708              1.526
 Vibration     5          0.698              1.657              1.370
 Vibration     6          0.707              1.632              1.301
 Vibration     7          0.745              1.526              1.064
 Vibration     8          0.792              1.404              0.857
 Vibration     9          0.844              1.277              0.689
 Vibration    10          0.894              1.163              0.567
 Vibration    11          0.967              1.015              0.436

 Optimization completed.
    -- Stationary point found.
 Normal termination of Gaussian 09 at Tue Jan 28 04:43:52 2020.
