 Gaussian 09, Revision D.01,
 Gaussian 09:  ES64L-G09RevD.01 24-Apr-2013

 -----------------------------
 # b3lyp 6-31G(2df,p) opt Freq
 -----------------------------

 -----
 titel
 -----
 Symbolic Z-matrix:
 Charge =  0 Multiplicity = 1

 SCF Done:  E(RB3LYP) =  -423.143225845     A.U. after   15 cycles
 Optimization completed.
    -- Stationary point found.
 Normal termination of Gaussian 09 at Mon Jan 27 15:33:55 2020.

 ----------------------------------------------------------------------
 #N Geom=AllCheck Guess=TCheck SCRF=Check GenChk RB3LYP/6-31G(2df,p) Fr
 eq
 ----------------------------------------------------------------------

 Structure from the checkpoint file:  "/scratch/puck/g09_458b1a23-17e0-461d-8079-3add7fe578ed/Gau-174933.chk"
 -----
 titel
 -----
 Charge =  0 Multiplicity = 1

                         Standard orientation:
 ---------------------------------------------------------------------
 Center     Atomic      Atomic             Coordinates (Angstroms)
 Number     Number       Type             X           Y           Z
 ---------------------------------------------------------------------
      1          6           0        2.697971   -1.099558   -0.373696
      2          6           0        1.647091   -0.244260    0.323457
      3          6           0        2.046485    1.230131    0.394190
      4          8           0        0.431497   -0.439690   -0.412405
      5          6           0       -0.767556   -0.084122    0.247650
      6          6           0       -1.822628   -1.080876   -0.270418
      7          8           0       -2.666541   -1.584159    0.415857
      8          6           0       -1.228389    1.275436   -0.048673
      9          6           0       -1.661326    2.360535   -0.333281
     10          1           0        3.652733   -1.037464    0.156373
     11          1           0        2.382726   -2.145519   -0.406725
     12          1           0        2.849721   -0.752709   -1.400577
     13          1           0        1.492777   -0.624759    1.346459
     14          1           0        2.985566    1.337553    0.946559
     15          1           0        2.187085    1.633299   -0.613500
     16          1           0        1.285407    1.831203    0.897467
     17          1           0       -0.687982   -0.227139    1.334759
     18          1           0       -1.708213   -1.295961   -1.353359
     19          1           0       -2.029352    3.328576   -0.570433
 ---------------------------------------------------------------------

 SCF Done:  E(RB3LYP) =  -423.143225845     A.U. after    1 cycles

 The electronic state is 1-A.
 Alpha  occ. eigenvalues --  -19.15684 -19.15107 -10.28056 -10.26978 -10.24582
 Alpha  occ. eigenvalues --  -10.19578 -10.19144 -10.18078 -10.17921  -1.06254
 Alpha  occ. eigenvalues --   -1.04623  -0.81139  -0.76784  -0.71451  -0.69489
 Alpha  occ. eigenvalues --   -0.60720  -0.59104  -0.55142  -0.51606  -0.50129
 Alpha  occ. eigenvalues --   -0.47692  -0.45103  -0.44301  -0.42264  -0.39907
 Alpha  occ. eigenvalues --   -0.39259  -0.38726  -0.36427  -0.36057  -0.33033
 Alpha  occ. eigenvalues --   -0.30200  -0.28764  -0.27579  -0.25002
 Alpha virt. eigenvalues --   -0.03571   0.02744   0.05107   0.08873   0.11146
 Alpha virt. eigenvalues --    0.11771   0.12987   0.14161   0.14488   0.16090
 Alpha virt. eigenvalues --    0.16849   0.17686   0.18567   0.19403   0.20566

 Mulliken charges:
               1
     1  C   -0.392280
     2  C    0.149506
     3  C   -0.391478
     4  O   -0.259479
     5  C   -0.143179
     6  C    0.162203
     7  O   -0.235751
     8  C    0.332510
     9  C   -0.464814
    10  H    0.117696
    11  H    0.123977
    12  H    0.127661
    13  H    0.074961
    14  H    0.114573
    15  H    0.126403
    16  H    0.128349
    17  H    0.117386
    18  H    0.103218
    19  H    0.208538
 Sum of Mulliken charges =   0.00000

 Dipole moment (field-independent basis, Debye):
    X=              2.2389    Y=              1.5092    Z=             -0.0718  Tot=              2.7010
 Quadrupole moment (field-independent basis, Debye-Ang):
   XX=            -56.7955   YY=            -51.4342   ZZ=            -53.1772
   XY=             -6.2716   XZ=              3.8272   YZ=              0.0460

  Exact polarizability:  86.696  -5.054  89.502   0.795  -3.256  62.742
 Approx polarizability: 111.864  -8.338 134.403  -1.425 -11.213  99.235

                      1                      2                      3
                      A                      A                      A
 Frequencies --     30.8489                54.4230                86.9854
 Red. masses --      3.1139                 5.1453                 3.8434
 Frc consts  --      0.0017                 0.0090                 0.0171
 IR Inten    --      0.1330                 3.6787                 4.7480

                      4                      5                      6
                      A                      A                      A
 Frequencies --    148.5109               166.3164               204.9099
 Red. masses --      3.5824                 3.0568                 1.0294
 Frc consts  --      0.0466                 0.0498                 0.0255
 IR Inten    --      1.0217                 4.5843                 0.3082

                      7                      8                      9
                      A                      A                      A
 Frequencies --    225.6368               261.6730               295.7736
 Red. masses --      1.9708                 1.4767                 3.2970
 Frc consts  --      0.0591                 0.0596                 0.1699
 IR Inten    --      0.3994                 0.8933                 1.0757

                     10                     11                     12
                      A                      A                      A
 Frequencies --    343.5463               426.4748               433.7007
 Red. masses --      2.7773                 3.2418                 3.5528
 Frc consts  --      0.1931                 0.3474                 0.3937
 IR Inten    --      2.8734                 1.0993                 5.9307

                     13                     14                     15
                      A                      A                      A
 Frequencies --    496.0827               507.3984               620.6948
 Red. masses --      3.6655                 4.2038                 4.6503
 Frc consts  --      0.5315                 0.6377                 1.0556
 IR Inten    --      5.5526                20.3455                12.5671

                     16                     17                     18
                      A                      A                      A
 Frequencies --    639.7792               677.3602               823.5707
 Red. masses --      1.2230                 1.2544                 2.8496
 Frc consts  --      0.2949                 0.3391                 1.1388
 IR Inten    --     46.4558                35.8854                 7.3630

                     19                     20                     21
                      A                      A                      A
 Frequencies --    908.7640               929.9084               936.5991
 Red. masses --      2.9917                 1.2854                 2.2746
 Frc consts  --      1.4557                 0.6549                 1.1756
 IR Inten    --      9.6402                 1.2305                 8.9655

                     22                     23                     24
                      A                      A                      A
 Frequencies --    946.4637              1039.1948              1061.4556
 Red. masses --      1.5649                 2.1861                 3.8703
 Frc consts  --      0.8260                 1.3909                 2.5692
 IR Inten    --      2.7195                10.3669                18.7281

                     25                     26                     27
                      A                      A                      A
 Frequencies --   1094.2554              1148.3079              1167.2056
 Red. masses --      4.7028                 2.1489                 2.2215
 Frc consts  --      3.3178                 1.6695                 1.7832
 IR Inten    --    145.3830                65.7642                57.6187

                     28                     29                     30
                      A                      A                      A
 Frequencies --   1200.7696              1254.5648              1325.1816
 Red. masses --      1.9309                 1.3728                 1.1737
 Frc consts  --      1.6403                 1.2731                 1.2144
 IR Inten    --     14.3350                 5.9569                46.9073

                     31                     32                     33
                      A                      A                      A
 Frequencies --   1367.0344              1389.3190              1398.9144
 Red. masses --      1.3736                 1.1995                 1.2433
 Frc consts  --      1.5124                 1.3642                 1.4335
 IR Inten    --      6.3959                11.7281                16.4306

                     34                     35                     36
                      A                      A                      A
 Frequencies --   1403.8388              1418.2019              1478.7581
 Red. masses --      1.3076                 1.2509                 1.0478
 Frc consts  --      1.5183                 1.4823                 1.3500
 IR Inten    --      2.1895                13.9086                 1.1881

                     37                     38                     39
                      A                      A                      A
 Frequencies --   1484.7356              1493.8291              1508.9456
 Red. masses --      1.0497                 1.0526                 1.0558
 Frc consts  --      1.3634                 1.3839                 1.4163
 IR Inten    --      0.1439                 5.9544                 4.5279

                     40                     41                     42
                      A                      A                      A
 Frequencies --   1847.8802              2225.3857              2922.5621
 Red. masses --     10.4327                 5.9025                 1.0860
 Frc consts  --     20.9890                17.2224                 5.4651
 IR Inten    --    193.1843                 3.6445                68.7279

                     43                     44                     45
                      A                      A                      A
 Frequencies --   2968.3229              3009.6795              3040.1550
 Red. masses --      1.0829                 1.0822                 1.0352
 Frc consts  --      5.6219                 5.7756                 5.6374
 IR Inten    --     36.5952                17.6551                12.2859

                     46                     47                     48
                      A                      A                      A
 Frequencies --   3045.3914              3111.1319              3119.2906
 Red. masses --      1.0352                 1.1018                 1.1013
 Frc consts  --      5.6569                 6.2831                 6.3136
 IR Inten    --     13.8780                 5.5218                37.7302

                     49                     50                     51
                      A                      A                      A
 Frequencies --   3124.9578              3126.2043              3500.6089
 Red. masses --      1.1020                 1.1015                 1.1621
 Frc consts  --      6.3406                 6.3429                 8.3907
 IR Inten    --     17.7388                24.8269                65.2449

 - Thermochemistry -
 -------------------
 Temperature   298.150 Kelvin.  Pressure   1.00000 Atm.
 Atom     1 has atomic number  6 and mass  12.00000

 Molecular mass:   126.06808 amu.
 Principal axes and moments of inertia in atomic units:
                           1         2         3
     Eigenvalues --   813.041941642.393872289.26531
           X            0.99962  -0.02676   0.00662
           Y            0.02667   0.99956   0.01283
           Z           -0.00696  -0.01265   0.99990
 This molecule is an asymmetric top.
 Rotational symmetry number  1.
 Warning -- assumption of classical behavior for rotation
           may cause significant error
 Rotational temperatures (Kelvin)      0.10653     0.05274     0.03783
 Rotational constants (GHZ):           2.21974     1.09885     0.78835
 Zero-point vibrational energy     403389.8 (Joules/Mol)
                                   96.41247 (Kcal/Mol)
 Warning -- explicit consideration of  15 degrees of freedom as
           vibrations may cause significant error
 Vibrational temperatures:     44.38    78.30   125.15   213.67   239.29
          (Kelvin)            294.82   324.64   376.49   425.55   494.29
                              613.60   624.00   713.75   730.03   893.04
                              920.50   974.57  1184.93  1307.51  1337.93
                             1347.56  1361.75  1495.17  1527.20  1574.39
                             1652.16  1679.35  1727.64  1805.04  1906.64
                             1966.86  1998.92  2012.72  2019.81  2040.47
                             2127.60  2136.20  2149.28  2171.03  2658.68
                             3201.83  4204.91  4270.75  4330.25  4374.10
                             4381.63  4476.22  4487.96  4496.11  4497.91
                             5036.59

 Zero-point correction=                           0.153643 (Hartree/Particle)
 Thermal correction to Energy=                    0.164446
 Thermal correction to Enthalpy=                  0.165390
 Thermal correction to Gibbs Free Energy=         0.116488
 Sum of electronic and zero-point Energies=           -422.989583
 Sum of electronic and thermal Energies=              -422.978780
 Sum of electronic and thermal Enthalpies=            -422.977836
 Sum of electronic and thermal Free Energies=         -423.026737

                     E (Thermal)             CV                S
                      KCal/Mol        Cal/Mol-Kelvin    Cal/Mol-Kelvin
 Total                  103.191             37.671            102.922
 Electronic               0.000              0.000              0.000
 Translational            0.889              2.981             40.409
 Rotational               0.889              2.981             29.504
 Vibrational            101.414             31.710             33.010
 Vibration     1          0.594              1.984              5.774
 Vibration     2          0.596              1.976              4.650
 Vibration     3          0.601              1.958              3.727
 Vibration     4          0.618              1.904              2.691
 Vibration     5          0.624              1.884              2.477
 Vibration     6          0.640              1.833              2.089
 Vibration     7          0.650              1.802              1.913
 Vibration     8          0.669              1.743              1.651
 Vibration     9          0.690              1.682              1.441
 Vibration    10          0.722              1.588              1.196
 Vibration    11          0.788              1.413              0.870
 Vibration    12          0.794              1.397              0.847
 Vibration    13          0.852              1.259              0.668
 Vibration    14          0.863              1.234              0.640
 Vibration    15          0.981              0.988              0.415

 Optimization completed.
    -- Stationary point found.
 Normal termination of Gaussian 09 at Mon Jan 27 16:08:26 2020.
