 Gaussian 09, Revision D.01,
 Gaussian 09:  ES64L-G09RevD.01 24-Apr-2013

 -----------------------------
 # b3lyp 6-31G(2df,p) opt Freq
 -----------------------------

 -----
 titel
 -----
 Symbolic Z-matrix:
 Charge =  0 Multiplicity = 1

 SCF Done:  E(RB3LYP) =  -423.128402374     A.U. after   14 cycles
 Optimization completed.
    -- Stationary point found.
 Normal termination of Gaussian 09 at Tue Jan 28 12:48:48 2020.

 ----------------------------------------------------------------------
 #N Geom=AllCheck Guess=TCheck SCRF=Check GenChk RB3LYP/6-31G(2df,p) Fr
 eq
 ----------------------------------------------------------------------

 Structure from the checkpoint file:  "/scratch/puck/g09_236054dd-2b65-4a13-91f0-7e8536d5754d/Gau-10619.chk"
 -----
 titel
 -----
 Charge =  0 Multiplicity = 1

                         Standard orientation:
 ---------------------------------------------------------------------
 Center     Atomic      Atomic             Coordinates (Angstroms)
 Number     Number       Type             X           Y           Z
 ---------------------------------------------------------------------
      1          8           0       -3.184006   -0.589519   -0.069678
      2          6           0       -2.322332    0.540219   -0.030236
      3          6           0       -0.903325    0.190982    0.357573
      4          6           0       -0.011142   -0.426753   -0.688338
      5          6           0        0.224344    1.003550   -0.233747
      6          6           0        1.621499    0.802252    0.398574
      7          6           0        2.372248   -0.007601   -0.694041
      8          6           0        1.320264   -1.032698   -0.188451
      9          8           0        1.473581   -0.445813    1.140835
     10          1           0       -3.164932   -1.000656    0.800473
     11          1           0       -2.348165    0.961510   -1.041374
     12          1           0       -2.712036    1.312827    0.651918
     13          1           0       -0.774073   -0.149773    1.380914
     14          1           0       -0.401297   -0.692238   -1.663299
     15          1           0        0.029221    1.869741   -0.854919
     16          1           0        2.072522    1.610831    0.973494
     17          1           0        2.321269    0.332491   -1.731823
     18          1           0        3.389229   -0.269025   -0.396371
     19          1           0        1.462320   -2.112761   -0.216267
 ---------------------------------------------------------------------

 SCF Done:  E(RB3LYP) =  -423.128402374     A.U. after    1 cycles

 The electronic state is 1-A.
 Alpha  occ. eigenvalues --  -19.13704 -19.12988 -10.24299 -10.24220 -10.22644
 Alpha  occ. eigenvalues --  -10.19077 -10.18968 -10.18879 -10.18784  -1.05522
 Alpha  occ. eigenvalues --   -1.01078  -0.86171  -0.75165  -0.69876  -0.68884
 Alpha  occ. eigenvalues --   -0.59240  -0.55893  -0.55255  -0.52664  -0.49512
 Alpha  occ. eigenvalues --   -0.48392  -0.45641  -0.42371  -0.41959  -0.39812
 Alpha  occ. eigenvalues --   -0.37805  -0.36100  -0.34041  -0.33690  -0.32677
 Alpha  occ. eigenvalues --   -0.28374  -0.27079  -0.25970  -0.25220
 Alpha virt. eigenvalues --    0.07653   0.08851   0.10351   0.11352   0.12415
 Alpha virt. eigenvalues --    0.12980   0.13813   0.14654   0.16137   0.17110
 Alpha virt. eigenvalues --    0.17819   0.18275   0.18967   0.20504   0.21951

 Mulliken charges:
               1
     1  O   -0.415731
     2  C   -0.100618
     3  C   -0.052081
     4  C   -0.053977
     5  C   -0.083834
     6  C    0.044405
     7  C   -0.216257
     8  C    0.040873
     9  O   -0.287528
    10  H    0.281399
    11  H    0.102084
    12  H    0.089138
    13  H    0.098730
    14  H    0.095316
    15  H    0.088945
    16  H    0.082909
    17  H    0.094743
    18  H    0.107986
    19  H    0.083498
 Sum of Mulliken charges =   0.00000

 Dipole moment (field-independent basis, Debye):
    X=              0.9587    Y=              0.7824    Z=             -0.4118  Tot=              1.3042
 Quadrupole moment (field-independent basis, Debye-Ang):
   XX=            -57.0393   YY=            -50.5881   ZZ=            -52.9977
   XY=             -0.0063   XZ=             -6.1604   YZ=             -0.4632

  Exact polarizability:  88.838  -0.188  70.149  -2.584   0.461  65.363
 Approx polarizability: 111.730   2.463 110.858  -1.353   0.273 106.345

                      1                      2                      3
                      A                      A                      A
 Frequencies --     76.4969               140.7034               212.2441
 Red. masses --      3.2481                 4.4040                 2.0783
 Frc consts  --      0.0112                 0.0514                 0.0552
 IR Inten    --      2.9792                 1.8835                26.9090

                      4                      5                      6
                      A                      A                      A
 Frequencies --    291.1488               340.3413               395.7063
 Red. masses --      1.2814                 4.3577                 3.1518
 Frc consts  --      0.0640                 0.2974                 0.2908
 IR Inten    --     83.0975                 9.9584                 6.6917

                      7                      8                      9
                      A                      A                      A
 Frequencies --    444.0037               533.5816               644.5908
 Red. masses --      2.2457                 3.0466                 4.9680
 Frc consts  --      0.2608                 0.5111                 1.2162
 IR Inten    --      7.2327                17.4867                 6.6205

                     10                     11                     12
                      A                      A                      A
 Frequencies --    706.9303               791.4726               820.0491
 Red. masses --      4.3603                 2.4168                 1.6327
 Frc consts  --      1.2839                 0.8920                 0.6469
 IR Inten    --      0.6200                 1.5937                 1.7983

                     13                     14                     15
                      A                      A                      A
 Frequencies --    852.2030               855.0762               866.1091
 Red. masses --      2.5697                 2.8250                 2.7064
 Frc consts  --      1.0995                 1.2169                 1.1961
 IR Inten    --      1.5465                 4.6431                22.3052

                     16                     17                     18
                      A                      A                      A
 Frequencies --    925.3788               933.5669               948.8048
 Red. masses --      2.9233                 2.2941                 3.0385
 Frc consts  --      1.4749                 1.1780                 1.6116
 IR Inten    --     24.4798                 7.7164                11.7692

                     19                     20                     21
                      A                      A                      A
 Frequencies --    969.6358              1000.7688              1025.8512
 Red. masses --      2.3785                 1.8000                 2.3007
 Frc consts  --      1.3176                 1.0621                 1.4265
 IR Inten    --      8.0133                29.3527                16.0165

                     22                     23                     24
                      A                      A                      A
 Frequencies --   1052.0238              1071.0412              1089.6334
 Red. masses --      3.1195                 1.3473                 2.5458
 Frc consts  --      2.0342                 0.9106                 1.7808
 IR Inten    --     72.0970                 0.4380                 4.5850

                     25                     26                     27
                      A                      A                      A
 Frequencies --   1097.0661              1112.3492              1117.1566
 Red. masses --      1.3530                 1.7496                 1.4435
 Frc consts  --      0.9594                 1.2755                 1.0615
 IR Inten    --      0.1549                15.5767                 7.7287

                     28                     29                     30
                      A                      A                      A
 Frequencies --   1166.4877              1177.4932              1215.3630
 Red. masses --      1.4649                 1.4622                 1.6418
 Frc consts  --      1.1744                 1.1945                 1.4289
 IR Inten    --     22.5611                 6.8262                22.7419

                     31                     32                     33
                      A                      A                      A
 Frequencies --   1224.0463              1257.0997              1276.6495
 Red. masses --      1.4175                 1.2542                 1.6080
 Frc consts  --      1.2513                 1.1678                 1.5441
 IR Inten    --      3.0333                 0.1279                 8.8131

                     34                     35                     36
                      A                      A                      A
 Frequencies --   1278.4681              1286.9163              1313.8491
 Red. masses --      1.4397                 1.6027                 1.4741
 Frc consts  --      1.3864                 1.5639                 1.4992
 IR Inten    --      0.4098                 8.4228                 6.4787

                     37                     38                     39
                      A                      A                      A
 Frequencies --   1374.5428              1415.4809              1434.7880
 Red. masses --      1.2522                 1.5930                 1.7286
 Frc consts  --      1.3940                 1.8805                 2.0967
 IR Inten    --      2.6110                30.6587                36.6263

                     40                     41                     42
                      A                      A                      A
 Frequencies --   1484.0046              1506.3683              2975.5070
 Red. masses --      1.1587                 1.0887                 1.0701
 Frc consts  --      1.5034                 1.4556                 5.5820
 IR Inten    --      1.6164                 0.7643                71.7401

                     43                     44                     45
                      A                      A                      A
 Frequencies --   3062.4663              3062.7425              3123.0384
 Red. masses --      1.0633                 1.0858                 1.0891
 Frc consts  --      5.8754                 6.0009                 6.2587
 IR Inten    --     17.6732                41.6137                64.0943

                     46                     47                     48
                      A                      A                      A
 Frequencies --   3125.9575              3139.1090              3151.2523
 Red. masses --      1.0947                 1.1072                 1.0873
 Frc consts  --      6.3022                 6.4280                 6.3616
 IR Inten    --     13.8750                34.7402                13.5224

                     49                     50                     51
                      A                      A                      A
 Frequencies --   3180.3047              3191.9639              3815.6630
 Red. masses --      1.0893                 1.0931                 1.0662
 Frc consts  --      6.4914                 6.5620                 9.1455
 IR Inten    --     12.6659                 7.7938                17.6133

 - Thermochemistry -
 -------------------
 Temperature   298.150 Kelvin.  Pressure   1.00000 Atm.
 Atom     1 has atomic number  8 and mass  15.99491

 Molecular mass:   126.06808 amu.
 Principal axes and moments of inertia in atomic units:
                           1         2         3
     Eigenvalues --   396.405931742.656611792.17984
           X            0.99987  -0.00555  -0.01504
           Y            0.00550   0.99998  -0.00329
           Z            0.01506   0.00320   0.99988
 This molecule is an asymmetric top.
 Rotational symmetry number  1.
 Rotational temperatures (Kelvin)      0.21850     0.04970     0.04833
 Rotational constants (GHZ):           4.55276     1.03563     1.00701
 Zero-point vibrational energy     422003.6 (Joules/Mol)
                                  100.86128 (Kcal/Mol)
 Warning -- explicit consideration of   8 degrees of freedom as
           vibrations may cause significant error
 Vibrational temperatures:    110.06   202.44   305.37   418.90   489.67
          (Kelvin)            569.33   638.82   767.70   927.42  1017.11
                             1138.75  1179.87  1226.13  1230.26  1246.14
                             1331.41  1343.19  1365.12  1395.09  1439.88
                             1475.97  1513.63  1540.99  1567.74  1578.43
                             1600.42  1607.34  1678.31  1694.15  1748.63
                             1761.13  1808.68  1836.81  1839.43  1851.58
                             1890.33  1977.66  2036.56  2064.34  2135.15
                             2167.33  4281.09  4406.20  4406.60  4493.35
                             4497.55  4516.47  4533.94  4575.74  4592.52
                             5489.88

 Zero-point correction=                           0.160733 (Hartree/Particle)
 Thermal correction to Energy=                    0.168294
 Thermal correction to Enthalpy=                  0.169238
 Thermal correction to Gibbs Free Energy=         0.128438
 Sum of electronic and zero-point Energies=           -422.967670
 Sum of electronic and thermal Energies=              -422.960109
 Sum of electronic and thermal Enthalpies=            -422.959164
 Sum of electronic and thermal Free Energies=         -422.999964

                     E (Thermal)             CV                S
                      KCal/Mol        Cal/Mol-Kelvin    Cal/Mol-Kelvin
 Total                  105.606             30.008             85.871
 Electronic               0.000              0.000              0.000
 Translational            0.889              2.981             40.409
 Rotational               0.889              2.981             28.606
 Vibrational            103.829             24.046             16.856
 Vibration     1          0.599              1.965              3.979
 Vibration     2          0.615              1.913              2.794
 Vibration     3          0.643              1.822              2.024
 Vibration     4          0.687              1.690              1.467
 Vibration     5          0.720              1.595              1.211
 Vibration     6          0.762              1.479              0.979
 Vibration     7          0.804              1.374              0.814
 Vibration     8          0.889              1.176              0.579

 Optimization completed.
    -- Stationary point found.
 Normal termination of Gaussian 09 at Tue Jan 28 14:43:00 2020.
