 Gaussian 09, Revision D.01,
 Gaussian 09:  ES64L-G09RevD.01 24-Apr-2013

 -----------------------------
 # b3lyp 6-31G(2df,p) opt Freq
 -----------------------------

 -----
 titel
 -----
 Symbolic Z-matrix:
 Charge =  0 Multiplicity = 1

 SCF Done:  E(RB3LYP) =  -423.183375301     A.U. after   14 cycles
 Optimization completed.
    -- Stationary point found.
 Normal termination of Gaussian 09 at Mon Jan 27 13:23:41 2020.

 ----------------------------------------------------------------------
 #N Geom=AllCheck Guess=TCheck SCRF=Check GenChk RB3LYP/6-31G(2df,p) Fr
 eq
 ----------------------------------------------------------------------

 Structure from the checkpoint file:  "/scratch/puck/g09_e096e241-8b5b-4ffd-9a86-e4c69ff71bbb/Gau-155470.chk"
 -----
 titel
 -----
 Charge =  0 Multiplicity = 1

                         Standard orientation:
 ---------------------------------------------------------------------
 Center     Atomic      Atomic             Coordinates (Angstroms)
 Number     Number       Type             X           Y           Z
 ---------------------------------------------------------------------
      1          8           0       -3.186420    0.176025    0.115710
      2          6           0       -2.242885   -0.568177    0.055861
      3          6           0       -0.847736   -0.127596   -0.358227
      4          6           0       -0.393783    1.148258    0.354464
      5          6           0        0.978894    1.574400   -0.186394
      6          6           0        1.927358    0.397787   -0.358051
      7          6           0        2.258970   -0.557563    0.769110
      8          6           0        1.369734   -1.004269   -0.362405
      9          8           0        0.012307   -1.217937   -0.074244
     10          1           0       -2.318107   -1.651410    0.294754
     11          1           0       -0.882543    0.064249   -1.447210
     12          1           0       -1.140056    1.932053    0.200733
     13          1           0       -0.352081    0.945720    1.430992
     14          1           0        0.832863    2.038432   -1.170317
     15          1           0        1.424378    2.341374    0.457338
     16          1           0        2.734928    0.577625   -1.061840
     17          1           0        3.268459   -0.949012    0.831016
     18          1           0        1.769647   -0.414812    1.726594
     19          1           0        1.752111   -1.725959   -1.079933
 ---------------------------------------------------------------------

 SCF Done:  E(RB3LYP) =  -423.183375301     A.U. after    1 cycles

 The electronic state is 1-A.
 Alpha  occ. eigenvalues --  -19.15236 -19.14433 -10.27162 -10.24423 -10.23999
 Alpha  occ. eigenvalues --  -10.19921 -10.19493 -10.19160 -10.18696  -1.05653
 Alpha  occ. eigenvalues --   -1.04463  -0.85870  -0.80030  -0.71253  -0.65388
 Alpha  occ. eigenvalues --   -0.60041  -0.58333  -0.54947  -0.51519  -0.49343
 Alpha  occ. eigenvalues --   -0.47647  -0.45168  -0.44696  -0.43650  -0.39994
 Alpha  occ. eigenvalues --   -0.39340  -0.38171  -0.37435  -0.35259  -0.34563
 Alpha  occ. eigenvalues --   -0.31410  -0.27352  -0.25465  -0.25195
 Alpha virt. eigenvalues --   -0.02741   0.08058   0.09841   0.10641   0.11657
 Alpha virt. eigenvalues --    0.13692   0.14314   0.14936   0.15380   0.16268
 Alpha virt. eigenvalues --    0.17885   0.18655   0.20232   0.21555   0.23220

 Mulliken charges:
               1
     1  O   -0.252111
     2  C    0.136726
     3  C    0.047209
     4  C   -0.216769
     5  C   -0.244561
     6  C   -0.039745
     7  C   -0.306216
     8  C    0.098198
     9  O   -0.274912
    10  H    0.096231
    11  H    0.093912
    12  H    0.124371
    13  H    0.109042
    14  H    0.105254
    15  H    0.106003
    16  H    0.091351
    17  H    0.112447
    18  H    0.119540
    19  H    0.094030
 Sum of Mulliken charges =   0.00000

 Dipole moment (field-independent basis, Debye):
    X=              2.6963    Y=              0.2825    Z=             -0.6227  Tot=              2.7817
 Quadrupole moment (field-independent basis, Debye-Ang):
   XX=            -60.4080   YY=            -53.4102   ZZ=            -51.2848
   XY=              1.8155   XZ=             -0.0764   YZ=              0.3502

  Exact polarizability:  88.865  -2.469  74.347   0.242  -1.382  62.820
 Approx polarizability: 117.100  -6.550 110.709   0.341  -2.617  98.206

                      1                      2                      3
                      A                      A                      A
 Frequencies --     54.6344               108.6304               170.3559
 Red. masses --      3.5051                 3.1721                 3.3390
 Frc consts  --      0.0062                 0.0221                 0.0571
 IR Inten    --      7.8533                 5.2785                 2.1526

                      4                      5                      6
                      A                      A                      A
 Frequencies --    212.4048               301.5278               366.2491
 Red. masses --      3.1993                 2.0624                 4.4171
 Frc consts  --      0.0850                 0.1105                 0.3491
 IR Inten    --      3.5196                 0.8500                 0.2534

                      7                      8                      9
                      A                      A                      A
 Frequencies --    430.4888               457.3863               507.2057
 Red. masses --      2.9019                 2.5184                 3.8305
 Frc consts  --      0.3169                 0.3104                 0.5806
 IR Inten    --      0.3360                 2.3380                 3.8937

                     10                     11                     12
                      A                      A                      A
 Frequencies --    573.4147               670.1646               746.9736
 Red. masses --      4.4310                 1.9842                 2.4477
 Frc consts  --      0.8584                 0.5250                 0.8047
 IR Inten    --     13.8087                 9.4587                 5.4512

                     13                     14                     15
                      A                      A                      A
 Frequencies --    803.7790               818.9301               853.4898
 Red. masses --      2.6694                 1.9363                 1.7752
 Frc consts  --      1.0161                 0.7651                 0.7619
 IR Inten    --      3.1826                16.6256                12.6813

                     16                     17                     18
                      A                      A                      A
 Frequencies --    915.8720               929.1582               968.8395
 Red. masses --      2.1314                 1.7012                 2.0699
 Frc consts  --      1.0534                 0.8653                 1.1447
 IR Inten    --      9.1085                 1.9035                 0.6573

                     19                     20                     21
                      A                      A                      A
 Frequencies --    982.4268              1040.7164              1046.9003
 Red. masses --      1.7797                 1.9168                 1.6764
 Frc consts  --      1.0120                 1.2232                 1.0826
 IR Inten    --      5.8876                 6.4282                11.5957

                     22                     23                     24
                      A                      A                      A
 Frequencies --   1089.8763              1101.4584              1112.2838
 Red. masses --      2.3309                 1.8822                 1.6617
 Frc consts  --      1.6313                 1.3454                 1.2112
 IR Inten    --      6.7315                32.6733                 2.7863

                     25                     26                     27
                      A                      A                      A
 Frequencies --   1129.4810              1134.0826              1188.5496
 Red. masses --      1.6331                 1.9348                 1.8823
 Frc consts  --      1.2275                 1.4661                 1.5666
 IR Inten    --     24.4470                 2.3934                55.7265

                     28                     29                     30
                      A                      A                      A
 Frequencies --   1218.9971              1244.5291              1251.8986
 Red. masses --      1.3837                 1.4950                 1.9226
 Frc consts  --      1.2115                 1.3643                 1.7753
 IR Inten    --      1.4728                 0.9988                59.2659

                     31                     32                     33
                      A                      A                      A
 Frequencies --   1313.0456              1332.8256              1361.2435
 Red. masses --      1.3134                 1.2133                 1.4720
 Frc consts  --      1.3341                 1.2699                 1.6071
 IR Inten    --      2.0054                18.9733                 3.9980

                     34                     35                     36
                      A                      A                      A
 Frequencies --   1369.6131              1382.8845              1405.7759
 Red. masses --      1.4931                 1.4978                 1.3194
 Frc consts  --      1.6502                 1.6876                 1.5363
 IR Inten    --      5.5893                 7.6093                12.5407

                     37                     38                     39
                      A                      A                      A
 Frequencies --   1411.5878              1480.7404              1484.9939
 Red. masses --      1.4817                 1.3316                 1.0815
 Frc consts  --      1.7396                 1.7202                 1.4052
 IR Inten    --      6.6989                 9.1752                 4.9387

                     40                     41                     42
                      A                      A                      A
 Frequencies --   1498.8384              1837.8783              2903.9862
 Red. masses --      1.1326                10.8150                 1.0849
 Frc consts  --      1.4991                21.5233                 5.3904
 IR Inten    --      3.6372               143.5136                90.6319

                     43                     44                     45
                      A                      A                      A
 Frequencies --   2931.3487              3021.6196              3042.6934
 Red. masses --      1.0792                 1.0620                 1.0687
 Frc consts  --      5.4638                 5.7127                 5.8295
 IR Inten    --     39.6041                34.3568                 9.6211

                     46                     47                     48
                      A                      A                      A
 Frequencies --   3062.9804              3105.6284              3129.4712
 Red. masses --      1.0958                 1.0993                 1.0834
 Frc consts  --      6.0571                 6.2468                 6.2513
 IR Inten    --     35.2525                16.3980                23.1204

                     49                     50                     51
                      A                      A                      A
 Frequencies --   3134.1830              3146.7498              3222.2211
 Red. masses --      1.0592                 1.0900                 1.1165
 Frc consts  --      6.1300                 6.3590                 6.8298
 IR Inten    --     12.5277                24.7227                10.9484

 - Thermochemistry -
 -------------------
 Temperature   298.150 Kelvin.  Pressure   1.00000 Atm.
 Atom     1 has atomic number  8 and mass  15.99491

 Molecular mass:   126.06808 amu.
 Principal axes and moments of inertia in atomic units:
                           1         2         3
     Eigenvalues --   496.301101548.228031859.40220
           X            0.99999   0.00392   0.00134
           Y           -0.00391   0.99998  -0.00457
           Z           -0.00136   0.00456   0.99999
 This molecule is an asymmetric top.
 Rotational symmetry number  1.
 Warning -- assumption of classical behavior for rotation
           may cause significant error
 Rotational temperatures (Kelvin)      0.17452     0.05594     0.04658
 Rotational constants (GHZ):           3.63638     1.16568     0.97060
 Zero-point vibrational energy     418758.9 (Joules/Mol)
                                  100.08577 (Kcal/Mol)
 Warning -- explicit consideration of  10 degrees of freedom as
           vibrations may cause significant error
 Vibrational temperatures:     78.61   156.29   245.10   305.60   433.83
          (Kelvin)            526.95   619.38   658.08   729.75   825.01
                              964.22  1074.73  1156.46  1178.26  1227.98
                             1317.73  1336.85  1393.94  1413.49  1497.36
                             1506.25  1568.09  1584.75  1600.33  1625.07
                             1631.69  1710.06  1753.86  1790.60  1801.20
                             1889.18  1917.64  1958.52  1970.57  1989.66
                             2022.60  2030.96  2130.45  2136.57  2156.49
                             2644.29  4178.18  4217.55  4347.43  4377.75
                             4406.94  4468.30  4502.61  4509.38  4527.47
                             4636.05

 Zero-point correction=                           0.159497 (Hartree/Particle)
 Thermal correction to Energy=                    0.167651
 Thermal correction to Enthalpy=                  0.168595
 Thermal correction to Gibbs Free Energy=         0.126198
 Sum of electronic and zero-point Energies=           -423.023878
 Sum of electronic and thermal Energies=              -423.015725
 Sum of electronic and thermal Enthalpies=            -423.014780
 Sum of electronic and thermal Free Energies=         -423.057177

                     E (Thermal)             CV                S
                      KCal/Mol        Cal/Mol-Kelvin    Cal/Mol-Kelvin
 Total                  105.202             30.927             89.231
 Electronic               0.000              0.000              0.000
 Translational            0.889              2.981             40.409
 Rotational               0.889              2.981             28.748
 Vibrational            103.425             24.965             20.075
 Vibration     1          0.596              1.976              4.642
 Vibration     2          0.606              1.942              3.293
 Vibration     3          0.625              1.879              2.432
 Vibration     4          0.643              1.822              2.023
 Vibration     5          0.694              1.671              1.408
 Vibration     6          0.739              1.542              1.095
 Vibration     7          0.792              1.404              0.857
 Vibration     8          0.816              1.345              0.774
 Vibration     9          0.862              1.234              0.640
 Vibration    10          0.930              1.089              0.498

 Optimization completed.
    -- Stationary point found.
 Normal termination of Gaussian 09 at Mon Jan 27 14:10:12 2020.
