 Gaussian 09, Revision D.01,
 Gaussian 09:  ES64L-G09RevD.01 24-Apr-2013

 -----------------------------
 # b3lyp 6-31G(2df,p) opt Freq
 -----------------------------

 -----
 titel
 -----
 Symbolic Z-matrix:
 Charge =  0 Multiplicity = 1

 SCF Done:  E(RB3LYP) =  -423.182640387     A.U. after   13 cycles
 Optimization completed.
    -- Stationary point found.
 Normal termination of Gaussian 09 at Tue Jan 28 12:09:13 2020.

 ----------------------------------------------------------------------
 #N Geom=AllCheck Guess=TCheck SCRF=Check GenChk RB3LYP/6-31G(2df,p) Fr
 eq
 ----------------------------------------------------------------------

 Structure from the checkpoint file:  "/scratch/puck/g09_d90eccee-3cca-47ad-baf8-cfa5b9117563/Gau-85235.chk"
 -----
 titel
 -----
 Charge =  0 Multiplicity = 1

                         Standard orientation:
 ---------------------------------------------------------------------
 Center     Atomic      Atomic             Coordinates (Angstroms)
 Number     Number       Type             X           Y           Z
 ---------------------------------------------------------------------
      1          6           0       -2.752803    0.383843    0.314982
      2          6           0       -1.787079   -0.681140   -0.215491
      3          6           0       -0.341342   -0.241062   -0.198747
      4          6           0        0.746999   -1.308391   -0.571440
      5          8           0        1.915935   -0.797673    0.073779
      6          6           0        1.437526    0.397541    0.740622
      7          8           0        0.134094    0.053824    1.137617
      8          6           0        1.199581    1.432791   -0.355797
      9          6           0        0.083714    1.017667   -0.955825
     10          1           0       -2.494324    0.658266    1.340729
     11          1           0       -2.716831    1.293596   -0.292652
     12          1           0       -3.781765    0.013206    0.305393
     13          1           0       -1.874897   -1.596548    0.381144
     14          1           0       -2.048888   -0.953665   -1.245776
     15          1           0        0.489866   -2.285480   -0.147012
     16          1           0        0.906780   -1.402016   -1.650597
     17          1           0        2.087348    0.626545    1.582380
     18          1           0        1.886880    2.214825   -0.646068
     19          1           0       -0.373978    1.374562   -1.868536
 ---------------------------------------------------------------------

 SCF Done:  E(RB3LYP) =  -423.182640387     A.U. after    1 cycles

 The electronic state is 1-A.
 Alpha  occ. eigenvalues --  -19.14451 -19.13731 -10.27755 -10.24548 -10.22733
 Alpha  occ. eigenvalues --  -10.19093 -10.18873 -10.18647 -10.17588  -1.09308
 Alpha  occ. eigenvalues --   -0.98510  -0.80630  -0.78378  -0.73221  -0.63926
 Alpha  occ. eigenvalues --   -0.62313  -0.57933  -0.55978  -0.51963  -0.49671
 Alpha  occ. eigenvalues --   -0.45662  -0.44873  -0.42728  -0.41140  -0.40523
 Alpha  occ. eigenvalues --   -0.38522  -0.38328  -0.35722  -0.34773  -0.33522
 Alpha  occ. eigenvalues --   -0.31635  -0.28227  -0.26270  -0.24404
 Alpha virt. eigenvalues --    0.00081   0.08970   0.11429   0.12556   0.13038
 Alpha virt. eigenvalues --    0.13558   0.14917   0.15549   0.16083   0.16601
 Alpha virt. eigenvalues --    0.17787   0.18260   0.19295   0.20741   0.22252

 Mulliken charges:
               1
     1  C   -0.382384
     2  C   -0.293488
     3  C    0.317286
     4  C   -0.109566
     5  O   -0.274703
     6  C    0.118082
     7  O   -0.260187
     8  C   -0.086465
     9  C   -0.132717
    10  H    0.140221
    11  H    0.118083
    12  H    0.112600
    13  H    0.110856
    14  H    0.102937
    15  H    0.105126
    16  H    0.100312
    17  H    0.092010
    18  H    0.113555
    19  H    0.108442
 Sum of Mulliken charges =   0.00000

 Dipole moment (field-independent basis, Debye):
    X=             -1.0423    Y=              0.5190    Z=             -1.3644  Tot=              1.7937
 Quadrupole moment (field-independent basis, Debye-Ang):
   XX=            -53.8533   YY=            -51.8085   ZZ=            -52.6079
   XY=              4.2692   XZ=              1.9249   YZ=              0.1899

  Exact polarizability:  83.450   5.848  73.568   5.494  -0.067  65.910
 Approx polarizability: 119.831   9.064 107.992  13.488   1.558 105.166

                      1                      2                      3
                      A                      A                      A
 Frequencies --     92.4464               167.3415               191.9512
 Red. masses --      2.1855                 3.3195                 1.2153
 Frc consts  --      0.0110                 0.0548                 0.0264
 IR Inten    --      0.3543                 0.0724                 0.4678

                      4                      5                      6
                      A                      A                      A
 Frequencies --    275.0866               350.3041               364.0919
 Red. masses --      2.0439                 2.3100                 3.2940
 Frc consts  --      0.0911                 0.1670                 0.2573
 IR Inten    --      1.4071                 4.1241                 0.9143

                      7                      8                      9
                      A                      A                      A
 Frequencies --    431.9768               503.6546               611.6623
 Red. masses --      2.9765                 3.0540                 3.7089
 Frc consts  --      0.3272                 0.4564                 0.8176
 IR Inten    --      6.5110                 1.1788                 2.4539

                     10                     11                     12
                      A                      A                      A
 Frequencies --    655.9856               722.0917               734.6106
 Red. masses --      4.5930                 2.1595                 2.9428
 Frc consts  --      1.1645                 0.6634                 0.9357
 IR Inten    --      6.8943                 8.1110                 5.9223

                     13                     14                     15
                      A                      A                      A
 Frequencies --    776.4030               818.7589               844.5922
 Red. masses --      1.3886                 6.3945                 4.1655
 Frc consts  --      0.4932                 2.5256                 1.7507
 IR Inten    --      1.7484                11.4883                 6.9150

                     16                     17                     18
                      A                      A                      A
 Frequencies --    861.0782               902.5769               930.2044
 Red. masses --      3.6293                 1.8720                 1.5124
 Frc consts  --      1.5854                 0.8985                 0.7710
 IR Inten    --    109.0734                10.9745                11.6528

                     19                     20                     21
                      A                      A                      A
 Frequencies --    938.3585               954.1392               991.5662
 Red. masses --      2.7244                 2.3388                 3.4491
 Frc consts  --      1.4134                 1.2545                 1.9980
 IR Inten    --     12.5620                33.4222                 8.1467

                     22                     23                     24
                      A                      A                      A
 Frequencies --   1004.9506              1038.8680              1052.5147
 Red. masses --      4.0672                 1.4610                 1.4731
 Frc consts  --      2.4201                 0.9290                 0.9614
 IR Inten    --     16.1048                 3.0899                30.7524

                     25                     26                     27
                      A                      A                      A
 Frequencies --   1120.5132              1128.0034              1165.4166
 Red. masses --      2.6694                 2.5347                 1.5237
 Frc consts  --      1.9747                 1.9002                 1.2193
 IR Inten    --     57.3202                 9.3838                 0.3360

                     28                     29                     30
                      A                      A                      A
 Frequencies --   1209.1241              1254.4475              1280.9357
 Red. masses --      1.3274                 1.9109                 1.2636
 Frc consts  --      1.1434                 1.7717                 1.2215
 IR Inten    --      2.2008                 3.2570                 1.4144

                     31                     32                     33
                      A                      A                      A
 Frequencies --   1289.9678              1330.2426              1340.9988
 Red. masses --      1.2352                 1.5889                 1.4688
 Frc consts  --      1.2110                 1.6566                 1.5562
 IR Inten    --      7.7164                14.0492                10.7597

                     34                     35                     36
                      A                      A                      A
 Frequencies --   1365.3374              1389.8377              1410.8996
 Red. masses --      1.5451                 2.1661                 1.2366
 Frc consts  --      1.6970                 2.4652                 1.4503
 IR Inten    --      5.8934                 2.3755                 2.7528

                     37                     38                     39
                      A                      A                      A
 Frequencies --   1476.6733              1495.0753              1507.3293
 Red. masses --      1.0735                 1.0404                 1.0681
 Frc consts  --      1.3792                 1.3701                 1.4298
 IR Inten    --      1.1354                 5.5501                 5.3739

                     40                     41                     42
                      A                      A                      A
 Frequencies --   1510.8432              1637.4879              3027.6581
 Red. masses --      1.0890                 6.3746                 1.0575
 Frc consts  --      1.4647                10.0707                 5.7117
 IR Inten    --      0.1764                 1.8628                 2.2102

                     43                     44                     45
                      A                      A                      A
 Frequencies --   3032.0599              3044.1455              3066.1750
 Red. masses --      1.0585                 1.0360                 1.1007
 Frc consts  --      5.7333                 5.6565                 6.0967
 IR Inten    --     63.4089                20.3882                 6.8381

                     46                     47                     48
                      A                      A                      A
 Frequencies --   3080.9485              3110.5155              3127.1318
 Red. masses --      1.1102                 1.1014                 1.1017
 Frc consts  --      6.2087                 6.2784                 6.3474
 IR Inten    --     34.5562                36.8425                19.0395

                     49                     50                     51
                      A                      A                      A
 Frequencies --   3155.6293              3217.5703              3245.1479
 Red. masses --      1.0929                 1.0871                 1.1085
 Frc consts  --      6.4123                 6.6308                 6.8778
 IR Inten    --     32.0255                 3.0755                 5.7983

 - Thermochemistry -
 -------------------
 Temperature   298.150 Kelvin.  Pressure   1.00000 Atm.
 Atom     1 has atomic number  6 and mass  12.00000

 Molecular mass:   126.06808 amu.
 Principal axes and moments of inertia in atomic units:
                           1         2         3
     Eigenvalues --   559.628861221.321781360.48191
           X            0.99992   0.01247  -0.00207
           Y           -0.01243   0.99975   0.01848
           Z            0.00230  -0.01845   0.99983
 This molecule is an asymmetric top.
 Rotational symmetry number  1.
 Warning -- assumption of classical behavior for rotation
           may cause significant error
 Rotational temperatures (Kelvin)      0.15477     0.07092     0.06366
 Rotational constants (GHZ):           3.22489     1.47770     1.32655
 Zero-point vibrational energy     420100.6 (Joules/Mol)
                                  100.40644 (Kcal/Mol)
 Warning -- explicit consideration of   9 degrees of freedom as
           vibrations may cause significant error
 Vibrational temperatures:    133.01   240.77   276.17   395.79   504.01
          (Kelvin)            523.85   621.52   724.65   880.04   943.82
                             1038.93  1056.94  1117.07  1178.01  1215.18
                             1238.90  1298.61  1338.36  1350.09  1372.79
                             1426.64  1445.90  1494.70  1514.33  1612.17
                             1622.94  1676.77  1739.66  1804.87  1842.98
                             1855.97  1913.92  1929.40  1964.41  1999.66
                             2029.97  2124.60  2151.08  2168.71  2173.76
                             2355.98  4356.12  4362.45  4379.84  4411.54
                             4432.79  4475.33  4499.24  4540.24  4629.36
                             4669.04

 Zero-point correction=                           0.160008 (Hartree/Particle)
 Thermal correction to Energy=                    0.167725
 Thermal correction to Enthalpy=                  0.168669
 Thermal correction to Gibbs Free Energy=         0.127935
 Sum of electronic and zero-point Energies=           -423.022633
 Sum of electronic and thermal Energies=              -423.014915
 Sum of electronic and thermal Enthalpies=            -423.013971
 Sum of electronic and thermal Free Energies=         -423.054705

                     E (Thermal)             CV                S
                      KCal/Mol        Cal/Mol-Kelvin    Cal/Mol-Kelvin
 Total                  105.249             30.682             85.732
 Electronic               0.000              0.000              0.000
 Translational            0.889              2.981             40.409
 Rotational               0.889              2.981             28.321
 Vibrational            103.472             24.720             17.003
 Vibration     1          0.602              1.955              3.608
 Vibration     2          0.624              1.883              2.465
 Vibration     3          0.634              1.851              2.209
 Vibration     4          0.677              1.719              1.564
 Vibration     5          0.727              1.575              1.165
 Vibration     6          0.738              1.546              1.105
 Vibration     7          0.793              1.401              0.852
 Vibration     8          0.859              1.242              0.649
 Vibration     9          0.971              1.007              0.430

 Normal termination of Gaussian 09 at Tue Jan 28 12:57:05 2020.
