 Gaussian 09, Revision D.01,
 Gaussian 09:  ES64L-G09RevD.01 24-Apr-2013

 -----------------------------
 # b3lyp 6-31G(2df,p) opt Freq
 -----------------------------

 -----
 titel
 -----
 Symbolic Z-matrix:
 Charge =  0 Multiplicity = 1

 SCF Done:  E(RB3LYP) =  -423.105458079     A.U. after   13 cycles
 Optimization completed.
    -- Stationary point found.
 Normal termination of Gaussian 09 at Tue Jan 28 12:08:14 2020.

 ----------------------------------------------------------------------
 #N Geom=AllCheck Guess=TCheck SCRF=Check GenChk RB3LYP/6-31G(2df,p) Fr
 eq
 ----------------------------------------------------------------------

 Structure from the checkpoint file:  "/scratch/puck/g09_7f82dc74-9b0d-4183-8c2a-ba4276987678/Gau-138515.chk"
 -----
 titel
 -----
 Charge =  0 Multiplicity = 1

                         Standard orientation:
 ---------------------------------------------------------------------
 Center     Atomic      Atomic             Coordinates (Angstroms)
 Number     Number       Type             X           Y           Z
 ---------------------------------------------------------------------
      1          6           0       -2.658040   -0.476873   -0.236875
      2          8           0       -1.650179   -0.077115    0.673926
      3          6           0       -0.401151    0.071511    0.086046
      4          6           0       -0.123762    1.321577   -0.788565
      5          8           0        1.051187    1.636845    0.004868
      6          6           0        0.784359    0.549846    0.928701
      7          6           0        1.534632   -0.775960    0.673903
      8          6           0        1.738402   -0.994133   -0.796868
      9          6           0        0.373932   -1.245028   -0.221848
     10          1           0       -2.426396   -1.441733   -0.709470
     11          1           0       -3.583382   -0.576133    0.334269
     12          1           0       -2.809555    0.270314   -1.029562
     13          1           0        0.116662    1.179745   -1.847847
     14          1           0       -0.897342    2.092165   -0.679849
     15          1           0        0.679559    0.873968    1.965635
     16          1           0        2.088188   -1.326827    1.424212
     17          1           0        1.937280   -0.145789   -1.442366
     18          1           0        2.294695   -1.889968   -1.053862
     19          1           0       -0.098004   -2.219225   -0.258472
 ---------------------------------------------------------------------

 SCF Done:  E(RB3LYP) =  -423.105458079     A.U. after    1 cycles

 The electronic state is 1-A.
 Alpha  occ. eigenvalues --  -19.15105 -19.13231 -10.23965 -10.23114 -10.22934
 Alpha  occ. eigenvalues --  -10.22505 -10.19697 -10.19292 -10.19053  -1.05436
 Alpha  occ. eigenvalues --   -1.02640  -0.88208  -0.73912  -0.69648  -0.67503
 Alpha  occ. eigenvalues --   -0.61141  -0.58069  -0.53457  -0.51951  -0.49802
 Alpha  occ. eigenvalues --   -0.47430  -0.46809  -0.43882  -0.42545  -0.40993
 Alpha  occ. eigenvalues --   -0.39382  -0.39006  -0.34866  -0.33129  -0.30925
 Alpha  occ. eigenvalues --   -0.29792  -0.25967  -0.24762  -0.24508
 Alpha virt. eigenvalues --    0.05827   0.08736   0.10605   0.10827   0.12925
 Alpha virt. eigenvalues --    0.13573   0.14640   0.15400   0.15741   0.16259
 Alpha virt. eigenvalues --    0.16697   0.17951   0.19201   0.20699   0.21968

 Mulliken charges:
               1
     1  C   -0.264366
     2  O   -0.289191
     3  C    0.398067
     4  C   -0.158395
     5  O   -0.297656
     6  C    0.030698
     7  C   -0.059230
     8  C   -0.299384
     9  C   -0.135478
    10  H    0.112493
    11  H    0.132169
    12  H    0.112637
    13  H    0.100510
    14  H    0.104423
    15  H    0.087680
    16  H    0.087802
    17  H    0.131148
    18  H    0.113648
    19  H    0.092424
 Sum of Mulliken charges =   0.00000

 Dipole moment (field-independent basis, Debye):
    X=             -1.0890    Y=             -1.6998    Z=             -0.8800  Tot=              2.2022
 Quadrupole moment (field-independent basis, Debye-Ang):
   XX=            -51.5246   YY=            -54.2681   ZZ=            -52.1018
   XY=             -2.8931   XZ=              2.6571   YZ=             -0.2717

  Exact polarizability:  82.397  -3.832  71.944   1.914  -0.419  68.353
 Approx polarizability: 111.581  -0.610 104.487   3.387   0.236 106.521

                      1                      2                      3
                      A                      A                      A
 Frequencies --    110.9124               169.0080               180.7528
 Red. masses --      2.5568                 1.2965                 2.4208
 Frc consts  --      0.0185                 0.0218                 0.0466
 IR Inten    --      1.7070                 0.6420                 0.8731

                      4                      5                      6
                      A                      A                      A
 Frequencies --    221.3068               301.4945               347.7606
 Red. masses --      2.8606                 3.1557                 3.1156
 Frc consts  --      0.0825                 0.1690                 0.2220
 IR Inten    --      5.9776                 0.0802                 1.3972

                      7                      8                      9
                      A                      A                      A
 Frequencies --    388.0986               452.9801               548.1238
 Red. masses --      3.8696                 2.7614                 3.1717
 Frc consts  --      0.3434                 0.3338                 0.5614
 IR Inten    --      6.6930                 0.9799                 1.7550

                     10                     11                     12
                      A                      A                      A
 Frequencies --    637.9824               688.6535               754.1939
 Red. masses --      3.7953                 3.8280                 1.9877
 Frc consts  --      0.9101                 1.0696                 0.6662
 IR Inten    --      5.7198                 2.7900                16.3533

                     13                     14                     15
                      A                      A                      A
 Frequencies --    809.7869               850.4995               897.2134
 Red. masses --      2.0527                 2.4903                 1.9665
 Frc consts  --      0.7931                 1.0613                 0.9327
 IR Inten    --      8.7081                 0.4368                15.2939

                     16                     17                     18
                      A                      A                      A
 Frequencies --    921.7172               940.5675               976.3745
 Red. masses --      2.4739                 1.5152                 3.0769
 Frc consts  --      1.2383                 0.7898                 1.7282
 IR Inten    --      8.9954                 7.7998                62.2640

                     19                     20                     21
                      A                      A                      A
 Frequencies --    986.3533              1000.3731              1034.5807
 Red. masses --      3.6566                 2.2899                 1.8245
 Frc consts  --      2.0960                 1.3501                 1.1506
 IR Inten    --     33.8220                 7.6845                 8.1290

                     22                     23                     24
                      A                      A                      A
 Frequencies --   1054.4160              1063.0393              1086.3906
 Red. masses --      1.2974                 3.0666                 1.3385
 Frc consts  --      0.8499                 2.0418                 0.9308
 IR Inten    --      2.7495                31.8982                 2.6725

                     25                     26                     27
                      A                      A                      A
 Frequencies --   1116.6375              1141.0866              1171.3908
 Red. masses --      2.8382                 1.7911                 1.3374
 Frc consts  --      2.0850                 1.3740                 1.0812
 IR Inten    --     21.4092                15.9212                 5.8015

                     28                     29                     30
                      A                      A                      A
 Frequencies --   1181.8142              1184.0528              1196.8544
 Red. masses --      1.6073                 1.5084                 2.0857
 Frc consts  --      1.3227                 1.2459                 1.7603
 IR Inten    --     27.4151                12.3749                 5.9754

                     31                     32                     33
                      A                      A                      A
 Frequencies --   1238.0557              1255.0826              1286.8971
 Red. masses --      1.8096                 2.6228                 1.4995
 Frc consts  --      1.6342                 2.4342                 1.4631
 IR Inten    --     12.0302                44.5505                17.1476

                     34                     35                     36
                      A                      A                      A
 Frequencies --   1298.2971              1333.3090              1381.3218
 Red. masses --      1.8631                 1.6782                 2.2495
 Frc consts  --      1.8503                 1.7577                 2.5288
 IR Inten    --     37.6401                 1.3854                55.1501

                     37                     38                     39
                      A                      A                      A
 Frequencies --   1484.0354              1488.4613              1491.4652
 Red. masses --      1.1644                 1.1382                 1.1179
 Frc consts  --      1.5109                 1.4857                 1.4651
 IR Inten    --      1.8814                 4.4372                 1.6173

                     40                     41                     42
                      A                      A                      A
 Frequencies --   1506.7567              1509.0180              2989.8942
 Red. masses --      1.0605                 1.0970                 1.0361
 Frc consts  --      1.4185                 1.4718                 5.4569
 IR Inten    --      5.0415                 4.5579                40.7106

                     43                     44                     45
                      A                      A                      A
 Frequencies --   3016.8229              3040.8309              3072.0792
 Red. masses --      1.0558                 1.1028                 1.1098
 Frc consts  --      5.6614                 6.0082                 6.1708
 IR Inten    --     54.1796                50.0596                33.1471

                     46                     47                     48
                      A                      A                      A
 Frequencies --   3100.4336              3124.1009              3133.3033
 Red. masses --      1.0898                 1.0975                 1.0537
 Frc consts  --      6.1722                 6.3112                 6.0951
 IR Inten    --     31.0588                27.5006                14.9467

                     49                     50                     51
                      A                      A                      A
 Frequencies --   3181.0385              3189.9885              3215.9768
 Red. masses --      1.0889                 1.0989                 1.1142
 Frc consts  --      6.4920                 6.5886                 6.7895
 IR Inten    --     19.3550                 9.9524                 8.4011

 - Thermochemistry -
 -------------------
 Temperature   298.150 Kelvin.  Pressure   1.00000 Atm.
 Atom     1 has atomic number  6 and mass  12.00000

 Molecular mass:   126.06808 amu.
 Principal axes and moments of inertia in atomic units:
                           1         2         3
     Eigenvalues --   648.090401134.114991395.19703
           X            0.99959  -0.02495   0.01431
           Y            0.02503   0.99967  -0.00561
           Z           -0.01417   0.00596   0.99988
 This molecule is an asymmetric top.
 Rotational symmetry number  1.
 Warning -- assumption of classical behavior for rotation
           may cause significant error
 Rotational temperatures (Kelvin)      0.13364     0.07637     0.06208
 Rotational constants (GHZ):           2.78471     1.59132     1.29354
 Zero-point vibrational energy     417207.1 (Joules/Mol)
                                   99.71489 (Kcal/Mol)
 Warning -- explicit consideration of   9 degrees of freedom as
           vibrations may cause significant error
 Vibrational temperatures:    159.58   243.16   260.06   318.41   433.78
          (Kelvin)            500.35   558.39   651.74   788.63   917.91
                              990.82  1085.12  1165.10  1223.68  1290.89
                             1326.14  1353.27  1404.78  1419.14  1439.31
                             1488.53  1517.07  1529.47  1563.07  1606.59
                             1641.77  1685.37  1700.36  1703.59  1722.00
                             1781.28  1805.78  1851.56  1867.96  1918.33
                             1987.41  2135.19  2141.56  2145.88  2167.88
                             2171.14  4301.79  4340.53  4375.07  4420.03
                             4460.83  4494.88  4508.12  4576.80  4589.68
                             4627.07

 Zero-point correction=                           0.158906 (Hartree/Particle)
 Thermal correction to Energy=                    0.166823
 Thermal correction to Enthalpy=                  0.167767
 Thermal correction to Gibbs Free Energy=         0.126648
 Sum of electronic and zero-point Energies=           -422.946552
 Sum of electronic and thermal Energies=              -422.938635
 Sum of electronic and thermal Enthalpies=            -422.937691
 Sum of electronic and thermal Free Energies=         -422.978810

                     E (Thermal)             CV                S
                      KCal/Mol        Cal/Mol-Kelvin    Cal/Mol-Kelvin
 Total                  104.683             30.962             86.543
 Electronic               0.000              0.000              0.000
 Translational            0.889              2.981             40.409
 Rotational               0.889              2.981             28.419
 Vibrational            102.905             25.000             17.715
 Vibration     1          0.607              1.940              3.253
 Vibration     2          0.625              1.881              2.446
 Vibration     3          0.630              1.866              2.321
 Vibration     4          0.648              1.809              1.948
 Vibration     5          0.693              1.671              1.409
 Vibration     6          0.725              1.580              1.176
 Vibration     7          0.756              1.496              1.007
 Vibration     8          0.812              1.354              0.787
 Vibration     9          0.903              1.144              0.548

 Optimization completed.
    -- Stationary point found.
 Normal termination of Gaussian 09 at Tue Jan 28 12:51:20 2020.
