 Gaussian 09, Revision D.01,
 Gaussian 09:  ES64L-G09RevD.01 24-Apr-2013

 -----------------------------
 # b3lyp 6-31G(2df,p) opt Freq
 -----------------------------

 -----
 titel
 -----
 Symbolic Z-matrix:
 Charge =  0 Multiplicity = 1

 SCF Done:  E(RB3LYP) =  -423.162673867     A.U. after   14 cycles
 Optimization completed.
    -- Stationary point found.
 Normal termination of Gaussian 09 at Mon Jan 27 17:58:56 2020.

 ----------------------------------------------------------------------
 #N Geom=AllCheck Guess=TCheck SCRF=Check GenChk RB3LYP/6-31G(2df,p) Fr
 eq
 ----------------------------------------------------------------------

 Structure from the checkpoint file:  "/scratch/puck/g09_45fd372d-032e-4ae7-817c-5d75116cabd3/Gau-169887.chk"
 -----
 titel
 -----
 Charge =  0 Multiplicity = 1

                         Standard orientation:
 ---------------------------------------------------------------------
 Center     Atomic      Atomic             Coordinates (Angstroms)
 Number     Number       Type             X           Y           Z
 ---------------------------------------------------------------------
      1          8           0        0.057856    1.992445   -0.575076
      2          6           0       -0.313511    0.770168   -0.020419
      3          6           0       -1.433698    0.719845    0.994112
      4          6           0       -1.619432    0.114214   -0.382782
      5          6           0       -1.383633   -1.387155   -0.520443
      6          6           0       -0.032447   -1.647143    0.191210
      7          6           0        0.718179   -0.325425    0.062711
      8          6           0        2.027589   -0.186125   -0.581846
      9          8           0        1.892052   -0.099913    0.846756
     10          1           0        0.559127    2.470722    0.095598
     11          1           0       -1.356223    0.081942    1.868607
     12          1           0       -1.935473    1.665863    1.164726
     13          1           0       -2.302752    0.610361   -1.062081
     14          1           0       -2.196292   -1.987132   -0.098164
     15          1           0       -1.307488   -1.644741   -1.582749
     16          1           0       -0.181855   -1.871828    1.252564
     17          1           0        0.519997   -2.485786   -0.237984
     18          1           0        2.541699   -1.074940   -0.946321
     19          1           0        2.281719    0.745011   -1.082899
 ---------------------------------------------------------------------

 SCF Done:  E(RB3LYP) =  -423.162673867     A.U. after    1 cycles

 The electronic state is 1-A.
 Alpha  occ. eigenvalues --  -19.14787 -19.14481 -10.23752 -10.23653 -10.22581
 Alpha  occ. eigenvalues --  -10.19255 -10.18940 -10.18684 -10.18518  -1.06597
 Alpha  occ. eigenvalues --   -1.03136  -0.87553  -0.76256  -0.68881  -0.65480
 Alpha  occ. eigenvalues --   -0.62639  -0.56997  -0.55452  -0.52501  -0.48114
 Alpha  occ. eigenvalues --   -0.47001  -0.45821  -0.44206  -0.40904  -0.40189
 Alpha  occ. eigenvalues --   -0.38277  -0.36923  -0.35310  -0.34340  -0.32390
 Alpha  occ. eigenvalues --   -0.30594  -0.28422  -0.25647  -0.24815
 Alpha virt. eigenvalues --    0.07689   0.08858   0.09496   0.11151   0.12388
 Alpha virt. eigenvalues --    0.12980   0.13420   0.15283   0.15854   0.17270
 Alpha virt. eigenvalues --    0.18588   0.19057   0.21154   0.22334   0.22929

 Mulliken charges:
               1
     1  O   -0.469652
     2  C    0.336479
     3  C   -0.360194
     4  C   -0.081462
     5  C   -0.220637
     6  C   -0.339603
     7  C    0.416858
     8  C   -0.256283
     9  O   -0.306611
    10  H    0.290377
    11  H    0.114974
    12  H    0.115990
    13  H    0.095997
    14  H    0.102656
    15  H    0.106858
    16  H    0.118976
    17  H    0.107808
    18  H    0.109031
    19  H    0.118438
 Sum of Mulliken charges =   0.00000

 Dipole moment (field-independent basis, Debye):
    X=             -0.7722    Y=             -0.4684    Z=             -0.3410  Tot=              0.9654
 Quadrupole moment (field-independent basis, Debye-Ang):
   XX=            -53.8149   YY=            -50.0827   ZZ=            -54.3120
   XY=              0.9885   XZ=             -3.4004   YZ=              3.1348

  Exact polarizability:  82.095   1.215  75.278  -4.738   2.030  65.639
 Approx polarizability: 113.438   3.595 104.162  -3.797   1.978 106.303

                      1                      2                      3
                      A                      A                      A
 Frequencies --    110.2628               223.0657               230.8444
 Red. masses --      3.4465                 2.4175                 2.8648
 Frc consts  --      0.0247                 0.0709                 0.0899
 IR Inten    --      1.2373                 1.6000                24.0368

                      4                      5                      6
                      A                      A                      A
 Frequencies --    282.8826               329.6233               372.6754
 Red. masses --      3.4423                 1.3028                 2.0777
 Frc consts  --      0.1623                 0.0834                 0.1700
 IR Inten    --      4.5809                76.7037                 7.6770

                      7                      8                      9
                      A                      A                      A
 Frequencies --    399.0573               440.5681               475.2816
 Red. masses --      3.1691                 2.4010                 4.4117
 Frc consts  --      0.2973                 0.2746                 0.5872
 IR Inten    --      1.3180                 5.0732                13.0658

                     10                     11                     12
                      A                      A                      A
 Frequencies --    556.8804               625.3650               644.6013
 Red. masses --      4.7936                 3.0139                 2.9788
 Frc consts  --      0.8759                 0.6945                 0.7292
 IR Inten    --     11.4283                 1.4948                 2.7389

                     13                     14                     15
                      A                      A                      A
 Frequencies --    805.6653               811.5421               842.2752
 Red. masses --      1.8277                 2.3314                 1.8051
 Frc consts  --      0.6990                 0.9047                 0.7545
 IR Inten    --      9.6438                 0.7290                 0.6493

                     16                     17                     18
                      A                      A                      A
 Frequencies --    869.4516               919.6693               930.3521
 Red. masses --      4.2167                 1.9744                 1.6653
 Frc consts  --      1.8781                 0.9839                 0.8493
 IR Inten    --     28.9495                11.4090                 9.8965

                     19                     20                     21
                      A                      A                      A
 Frequencies --    943.1988               958.7573               977.7253
 Red. masses --      2.0270                 2.3009                 2.2715
 Frc consts  --      1.0625                 1.2462                 1.2794
 IR Inten    --      7.1507                11.0282                 5.3720

                     22                     23                     24
                      A                      A                      A
 Frequencies --   1041.2471              1059.6034              1081.9268
 Red. masses --      1.2963                 1.2533                 2.4583
 Frc consts  --      0.8280                 0.8291                 1.6955
 IR Inten    --      3.7773                 5.1054                10.4279

                     25                     26                     27
                      A                      A                      A
 Frequencies --   1101.6553              1128.7670              1135.6747
 Red. masses --      2.0565                 1.3600                 1.9041
 Frc consts  --      1.4706                 1.0209                 1.4469
 IR Inten    --     10.1906                 5.5728                 4.4083

                     28                     29                     30
                      A                      A                      A
 Frequencies --   1166.7319              1194.0173              1223.3933
 Red. masses --      1.4486                 1.3795                 1.4399
 Frc consts  --      1.1619                 1.1588                 1.2698
 IR Inten    --      3.4350                 2.7629                15.0413

                     31                     32                     33
                      A                      A                      A
 Frequencies --   1243.7775              1301.7396              1323.3559
 Red. masses --      1.7179                 1.5324                 2.6602
 Frc consts  --      1.5658                 1.5299                 2.7448
 IR Inten    --     67.0319                 1.6016                19.3011

                     34                     35                     36
                      A                      A                      A
 Frequencies --   1333.4904              1342.0410              1408.2715
 Red. masses --      1.6430                 1.4745                 1.8116
 Frc consts  --      1.7213                 1.5647                 2.1168
 IR Inten    --      7.1169                16.3616                 6.1877

                     37                     38                     39
                      A                      A                      A
 Frequencies --   1427.6612              1482.8301              1491.0393
 Red. masses --      2.4509                 1.4142                 1.0865
 Frc consts  --      2.9433                 1.8321                 1.4232
 IR Inten    --     20.8419                 4.0770                 3.0502

                     40                     41                     42
                      A                      A                      A
 Frequencies --   1508.7300              1527.4150              3039.6192
 Red. masses --      1.1585                 1.4971                 1.0596
 Frc consts  --      1.5537                 2.0578                 5.7679
 IR Inten    --      5.3628                 6.8678                41.5027

                     43                     44                     45
                      A                      A                      A
 Frequencies --   3053.9510              3078.3905              3085.9302
 Red. masses --      1.0676                 1.1001                 1.0519
 Frc consts  --      5.8663                 6.1422                 5.9018
 IR Inten    --     10.2428                30.0706                24.5812

                     46                     47                     48
                      A                      A                      A
 Frequencies --   3106.9303              3129.9353              3180.5313
 Red. masses --      1.1011                 1.0543                 1.1173
 Frc consts  --      6.2625                 6.0853                 6.6593
 IR Inten    --     25.1204                11.6813                15.2041

                     49                     50                     51
                      A                      A                      A
 Frequencies --   3181.5163              3219.8944              3790.8644
 Red. masses --      1.0922                 1.1159                 1.0659
 Frc consts  --      6.5138                 6.8167                 9.0251
 IR Inten    --     10.5589                 7.9133                25.9953

 - Thermochemistry -
 -------------------
 Temperature   298.150 Kelvin.  Pressure   1.00000 Atm.
 Atom     1 has atomic number  8 and mass  15.99491

 Molecular mass:   126.06808 amu.
 Principal axes and moments of inertia in atomic units:
                           1         2         3
     Eigenvalues --   757.74425 976.349681375.30016
           X            0.99930   0.02265  -0.02970
           Y           -0.02188   0.99943   0.02584
           Z            0.03027  -0.02517   0.99922
 This molecule is an asymmetric top.
 Rotational symmetry number  1.
 Warning -- assumption of classical behavior for rotation
           may cause significant error
 Rotational temperatures (Kelvin)      0.11430     0.08871     0.06298
 Rotational constants (GHZ):           2.38173     1.84846     1.31225
 Zero-point vibrational energy     419534.4 (Joules/Mol)
                                  100.27113 (Kcal/Mol)
 Warning -- explicit consideration of  10 degrees of freedom as
           vibrations may cause significant error
 Vibrational temperatures:    158.64   320.94   332.13   407.00   474.25
          (Kelvin)            536.20   574.15   633.88   683.82   801.23
                              899.76   927.44  1159.17  1167.63  1211.84
                             1250.95  1323.20  1338.57  1357.05  1379.44
                             1406.73  1498.12  1524.53  1556.65  1585.03
                             1624.04  1633.98  1678.66  1717.92  1760.19
                             1789.52  1872.91  1904.01  1918.59  1930.90
                             2026.19  2054.08  2133.46  2145.27  2170.72
                             2197.61  4373.33  4393.95  4429.11  4439.96
                             4470.17  4503.27  4576.07  4577.49  4632.70
                             5454.20

 Zero-point correction=                           0.159792 (Hartree/Particle)
 Thermal correction to Energy=                    0.167639
 Thermal correction to Enthalpy=                  0.168583
 Thermal correction to Gibbs Free Energy=         0.127904
 Sum of electronic and zero-point Energies=           -423.002882
 Sum of electronic and thermal Energies=              -422.995035
 Sum of electronic and thermal Enthalpies=            -422.994090
 Sum of electronic and thermal Free Energies=         -423.034770

                     E (Thermal)             CV                S
                      KCal/Mol        Cal/Mol-Kelvin    Cal/Mol-Kelvin
 Total                  105.195             31.737             85.617
 Electronic               0.000              0.000              0.000
 Translational            0.889              2.981             40.409
 Rotational               0.889              2.981             28.411
 Vibrational            103.418             25.775             16.797
 Vibration     1          0.606              1.941              3.264
 Vibration     2          0.649              1.806              1.934
 Vibration     3          0.653              1.794              1.872
 Vibration     4          0.682              1.705              1.516
 Vibration     5          0.712              1.616              1.262
 Vibration     6          0.744              1.528              1.069
 Vibration     7          0.765              1.472              0.966
 Vibration     8          0.800              1.382              0.825
 Vibration     9          0.832              1.305              0.723
 Vibration    10          0.912              1.125              0.530

 Optimization completed.
    -- Stationary point found.
 Normal termination of Gaussian 09 at Mon Jan 27 18:43:04 2020.
