 Gaussian 09, Revision D.01,
 Gaussian 09:  ES64L-G09RevD.01 24-Apr-2013

 -----------------------------
 # b3lyp 6-31G(2df,p) opt Freq
 -----------------------------

 -----
 titel
 -----
 Symbolic Z-matrix:
 Charge =  0 Multiplicity = 1

 SCF Done:  E(RB3LYP) =  -423.193433204     A.U. after   14 cycles
 Optimization completed.
    -- Stationary point found.
 Normal termination of Gaussian 09 at Mon Jan 27 16:06:13 2020.

 ----------------------------------------------------------------------
 #N Geom=AllCheck Guess=TCheck SCRF=Check GenChk RB3LYP/6-31G(2df,p) Fr
 eq
 ----------------------------------------------------------------------

 Structure from the checkpoint file:  "/scratch/puck/g09_6ca44250-6a31-47cf-b9aa-0015eca28459/Gau-164924.chk"
 -----
 titel
 -----
 Charge =  0 Multiplicity = 1

                         Standard orientation:
 ---------------------------------------------------------------------
 Center     Atomic      Atomic             Coordinates (Angstroms)
 Number     Number       Type             X           Y           Z
 ---------------------------------------------------------------------
      1          6           0        1.022459    1.745672    0.278407
      2          6           0        0.947642    0.256550   -0.032026
      3          8           0        2.200034   -0.186975   -0.532232
      4          6           0        0.311543   -0.761253    0.984480
      5          6           0        0.045428   -1.671608   -0.251116
      6          6           0       -0.180266   -0.296732   -0.975259
      7          6           0       -1.425015    0.175536   -0.239966
      8          8           0       -2.419205    0.690970   -0.674772
      9          6           0       -1.091556   -0.179658    1.231069
     10          1           0        1.384614    2.281338   -0.603870
     11          1           0        0.060893    2.176407    0.565994
     12          1           0        1.728958    1.930263    1.097557
     13          1           0        2.864506   -0.004531    0.141253
     14          1           0        0.877867   -1.112055    1.848724
     15          1           0        0.935879   -2.175779   -0.616084
     16          1           0       -0.803799   -2.357520   -0.198615
     17          1           0       -0.148389   -0.165158   -2.054507
     18          1           0       -1.131772    0.701961    1.876002
     19          1           0       -1.796796   -0.917927    1.626047
 ---------------------------------------------------------------------

 SCF Done:  E(RB3LYP) =  -423.193433204     A.U. after    1 cycles

 The electronic state is 1-A.
 Alpha  occ. eigenvalues --  -19.14731 -19.12773 -10.26539 -10.25410 -10.20138
 Alpha  occ. eigenvalues --  -10.19675 -10.19360 -10.19171 -10.18542  -1.04010
 Alpha  occ. eigenvalues --   -1.03371  -0.88997  -0.74109  -0.72326  -0.67459
 Alpha  occ. eigenvalues --   -0.63003  -0.57027  -0.52811  -0.49528  -0.47772
 Alpha  occ. eigenvalues --   -0.47332  -0.44866  -0.42650  -0.40862  -0.40171
 Alpha  occ. eigenvalues --   -0.39091  -0.38145  -0.37300  -0.35646  -0.34019
 Alpha  occ. eigenvalues --   -0.32389  -0.30525  -0.27193  -0.23395
 Alpha virt. eigenvalues --   -0.00773   0.06451   0.10355   0.11423   0.12177
 Alpha virt. eigenvalues --    0.12669   0.13789   0.15004   0.15942   0.17284
 Alpha virt. eigenvalues --    0.17757   0.18820   0.19464   0.20831   0.21996

 Mulliken charges:
               1
     1  C   -0.484205
     2  C    0.444154
     3  O   -0.486301
     4  C   -0.097279
     5  C   -0.246756
     6  C   -0.160457
     7  C    0.428275
     8  O   -0.338908
     9  C   -0.345231
    10  H    0.136284
    11  H    0.134525
    12  H    0.109162
    13  H    0.278304
    14  H    0.063117
    15  H    0.131348
    16  H    0.099664
    17  H    0.085007
    18  H    0.122765
    19  H    0.126532
 Sum of Mulliken charges =   0.00000

 Dipole moment (field-independent basis, Debye):
    X=              2.5953    Y=             -0.5695    Z=              2.2467  Tot=              3.4796
 Quadrupole moment (field-independent basis, Debye-Ang):
   XX=            -58.2325   YY=            -52.3620   ZZ=            -52.9338
   XY=              4.4345   XZ=              0.3859   YZ=              0.7493

  Exact polarizability:  81.838  -0.606  72.871   1.101  -0.250  70.060
 Approx polarizability: 122.114  -6.700 105.408   4.524  -1.888 108.024

                      1                      2                      3
                      A                      A                      A
 Frequencies --    126.1156               206.2336               214.2205
 Red. masses --      5.3441                 1.1472                 2.2494
 Frc consts  --      0.0501                 0.0287                 0.0608
 IR Inten    --      2.4794                 2.1957                 5.3185

                      4                      5                      6
                      A                      A                      A
 Frequencies --    265.3023               294.5800               371.9876
 Red. masses --      1.2089                 2.5601                 3.3881
 Frc consts  --      0.0501                 0.1309                 0.2762
 IR Inten    --     85.2666                 1.0571                 2.0850

                      7                      8                      9
                      A                      A                      A
 Frequencies --    419.4695               441.7916               467.6330
 Red. masses --      3.7847                 2.0942                 3.2375
 Frc consts  --      0.3924                 0.2408                 0.4171
 IR Inten    --     11.3214                 1.9980                 5.3404

                     10                     11                     12
                      A                      A                      A
 Frequencies --    522.1693               598.1909               610.1622
 Red. masses --      3.6149                 4.0562                 2.9328
 Frc consts  --      0.5807                 0.8552                 0.6433
 IR Inten    --     10.6984                 2.6628                 4.5059

                     13                     14                     15
                      A                      A                      A
 Frequencies --    658.7986               769.0583               812.1565
 Red. masses --      2.9914                 2.8429                 2.8321
 Frc consts  --      0.7649                 0.9907                 1.1006
 IR Inten    --      3.1691                 8.7087                 3.7824

                     16                     17                     18
                      A                      A                      A
 Frequencies --    824.8421               893.5915               942.6247
 Red. masses --      2.9763                 2.0597                 2.5733
 Frc consts  --      1.1931                 0.9690                 1.3472
 IR Inten    --     11.5817                 1.1247                 6.7599

                     19                     20                     21
                      A                      A                      A
 Frequencies --    944.9733               972.9646               980.3157
 Red. masses --      1.8448                 1.8540                 2.0363
 Frc consts  --      0.9706                 1.0341                 1.1530
 IR Inten    --      2.1823                 7.7888                20.0986

                     22                     23                     24
                      A                      A                      A
 Frequencies --   1001.3099              1070.2783              1074.4762
 Red. masses --      1.6069                 1.3671                 1.4881
 Frc consts  --      0.9493                 0.9226                 1.0122
 IR Inten    --      5.2798                 4.4478                23.1468

                     25                     26                     27
                      A                      A                      A
 Frequencies --   1107.5822              1120.0283              1150.2646
 Red. masses --      1.4616                 1.5901                 2.0960
 Frc consts  --      1.0564                 1.1753                 1.6339
 IR Inten    --      4.7772                45.3076                 8.6287

                     28                     29                     30
                      A                      A                      A
 Frequencies --   1184.1548              1196.7539              1219.8720
 Red. masses --      1.8856                 2.1272                 1.5849
 Frc consts  --      1.5578                 1.7950                 1.3896
 IR Inten    --     11.3346                 9.6321                15.8910

                     31                     32                     33
                      A                      A                      A
 Frequencies --   1247.1269              1252.9276              1275.8823
 Red. masses --      2.6599                 1.5648                 1.8130
 Frc consts  --      2.4374                 1.4473                 1.7389
 IR Inten    --     40.6834                12.8833                17.5885

                     34                     35                     36
                      A                      A                      A
 Frequencies --   1301.4995              1369.1937              1414.0375
 Red. masses --      1.6342                 1.7474                 1.2676
 Frc consts  --      1.6309                 1.9301                 1.4934
 IR Inten    --     11.2034                30.5991                 9.8768

                     37                     38                     39
                      A                      A                      A
 Frequencies --   1463.2168              1488.8367              1497.1402
 Red. masses --      1.0871                 1.0538                 1.0617
 Frc consts  --      1.3714                 1.3763                 1.4021
 IR Inten    --      7.4032                 1.1722                 5.3786

                     40                     41                     42
                      A                      A                      A
 Frequencies --   1499.1721              1867.7948              3028.6187
 Red. masses --      1.1106                12.4200                 1.0429
 Frc consts  --      1.4706                25.5289                 5.6360
 IR Inten    --      5.6327               260.2361                20.7639

                     43                     44                     45
                      A                      A                      A
 Frequencies --   3058.9324              3074.6023              3098.7021
 Red. masses --      1.0608                 1.0651                 1.0942
 Frc consts  --      5.8480                 5.9323                 6.1902
 IR Inten    --     12.4958                34.6097                11.8347

                     46                     47                     48
                      A                      A                      A
 Frequencies --   3101.0691              3106.1282              3130.0816
 Red. masses --      1.0905                 1.1018                 1.1002
 Frc consts  --      6.1789                 6.2630                 6.3508
 IR Inten    --     45.3230                13.8380                15.2843

                     49                     50                     51
                      A                      A                      A
 Frequencies --   3151.3830              3177.1561              3799.1423
 Red. masses --      1.0913                 1.1006                 1.0660
 Frc consts  --      6.3857                 6.5460                 9.0650
 IR Inten    --     16.1613                 6.9279                16.7750

 - Thermochemistry -
 -------------------
 Temperature   298.150 Kelvin.  Pressure   1.00000 Atm.
 Atom     1 has atomic number  6 and mass  12.00000

 Molecular mass:   126.06808 amu.
 Principal axes and moments of inertia in atomic units:
                           1         2         3
     Eigenvalues --   663.849631165.467511318.73369
           X            0.99892   0.04563  -0.00891
           Y           -0.04521   0.99808   0.04229
           Z            0.01083  -0.04184   0.99907
 This molecule is an asymmetric top.
 Rotational symmetry number  1.
 Warning -- assumption of classical behavior for rotation
           may cause significant error
 Rotational temperatures (Kelvin)      0.13047     0.07432     0.06568
 Rotational constants (GHZ):           2.71860     1.54851     1.36854
 Zero-point vibrational energy     417882.8 (Joules/Mol)
                                   99.87638 (Kcal/Mol)
 Warning -- explicit consideration of  12 degrees of freedom as
           vibrations may cause significant error
 Vibrational temperatures:    181.45   296.72   308.22   381.71   423.83
          (Kelvin)            535.21   603.52   635.64   672.82   751.28
                              860.66   877.89   947.86  1106.50  1168.51
                             1186.76  1285.68  1356.23  1359.60  1399.88
                             1410.45  1440.66  1539.89  1545.93  1593.56
                             1611.47  1654.97  1703.73  1721.86  1755.12
                             1794.34  1802.68  1835.71  1872.57  1969.96
                             2034.48  2105.24  2142.10  2154.05  2156.97
                             2687.34  4357.50  4401.12  4423.66  4458.34
                             4461.74  4469.02  4503.48  4534.13  4571.21
                             5466.11

 Zero-point correction=                           0.159163 (Hartree/Particle)
 Thermal correction to Energy=                    0.167226
 Thermal correction to Enthalpy=                  0.168171
 Thermal correction to Gibbs Free Energy=         0.127163
 Sum of electronic and zero-point Energies=           -423.034270
 Sum of electronic and thermal Energies=              -423.026207
 Sum of electronic and thermal Enthalpies=            -423.025263
 Sum of electronic and thermal Free Energies=         -423.066270

                     E (Thermal)             CV                S
                      KCal/Mol        Cal/Mol-Kelvin    Cal/Mol-Kelvin
 Total                  104.936             32.507             86.307
 Electronic               0.000              0.000              0.000
 Translational            0.889              2.981             40.409
 Rotational               0.889              2.981             28.414
 Vibrational            103.159             26.545             17.485
 Vibration     1          0.611              1.927              3.004
 Vibration     2          0.641              1.831              2.077
 Vibration     3          0.644              1.819              2.007
 Vibration     4          0.671              1.737              1.627
 Vibration     5          0.689              1.684              1.448
 Vibration     6          0.744              1.530              1.072
 Vibration     7          0.782              1.428              0.894
 Vibration     8          0.802              1.379              0.821
 Vibration     9          0.825              1.322              0.744
 Vibration    10          0.877              1.201              0.605
 Vibration    11          0.956              1.036              0.453
 Vibration    12          0.969              1.010              0.433

 Optimization completed.
    -- Stationary point found.
 Normal termination of Gaussian 09 at Mon Jan 27 16:52:34 2020.
