 Gaussian 09, Revision D.01,
 Gaussian 09:  ES64L-G09RevD.01 24-Apr-2013

 -----------------------------
 # b3lyp 6-31G(2df,p) opt Freq
 -----------------------------

 -----
 titel
 -----
 Symbolic Z-matrix:
 Charge =  0 Multiplicity = 1

 SCF Done:  E(RB3LYP) =  -423.146548421     A.U. after   13 cycles
 Optimization completed.
    -- Stationary point found.
 Normal termination of Gaussian 09 at Mon Jan 27 17:08:35 2020.

 ----------------------------------------------------------------------
 #N Geom=AllCheck Guess=TCheck SCRF=Check GenChk RB3LYP/6-31G(2df,p) Fr
 eq
 ----------------------------------------------------------------------

 Structure from the checkpoint file:  "/scratch/puck/g09_21ebae19-0249-4fd5-9da7-03ac9c735aed/Gau-146408.chk"
 -----
 titel
 -----
 Charge =  0 Multiplicity = 1

                         Standard orientation:
 ---------------------------------------------------------------------
 Center     Atomic      Atomic             Coordinates (Angstroms)
 Number     Number       Type             X           Y           Z
 ---------------------------------------------------------------------
      1          6           0        2.331374    0.071039   -0.947870
      2          6           0        1.048051    0.034272   -0.173560
      3          6           0        0.675158    0.235446    1.295923
      4          8           0       -0.116157   -0.951371    1.353761
      5          6           0        0.093913   -1.171153   -0.075752
      6          6           0       -1.206453   -0.987579   -0.850605
      7          6           0       -1.938416    0.247807   -0.308145
      8          8           0       -1.110209    1.405387   -0.207758
      9          6           0        0.198149    1.203260    0.236044
     10          1           0        2.143854    0.072861   -2.028737
     11          1           0        2.905580    0.973614   -0.715312
     12          1           0        2.963019   -0.795598   -0.720199
     13          1           0        1.247445    0.497308    2.180347
     14          1           0        0.571390   -2.141795   -0.242633
     15          1           0       -0.973330   -0.876951   -1.916647
     16          1           0       -1.861298   -1.859158   -0.742094
     17          1           0       -2.760628    0.533898   -0.970361
     18          1           0       -2.355228    0.007928    0.676780
     19          1           0        0.719470    2.157209    0.254618
 ---------------------------------------------------------------------

 SCF Done:  E(RB3LYP) =  -423.146548421     A.U. after    1 cycles

 The electronic state is 1-A.
 Alpha  occ. eigenvalues --  -19.14004 -19.13759 -10.23898 -10.23461 -10.23415
 Alpha  occ. eigenvalues --  -10.22504 -10.19551 -10.18747 -10.18589  -1.06009
 Alpha  occ. eigenvalues --   -1.02143  -0.83441  -0.78100  -0.71807  -0.68211
 Alpha  occ. eigenvalues --   -0.62962  -0.56852  -0.53545  -0.50313  -0.48687
 Alpha  occ. eigenvalues --   -0.46140  -0.45102  -0.43416  -0.41019  -0.40910
 Alpha  occ. eigenvalues --   -0.40460  -0.38102  -0.37641  -0.35227  -0.32237
 Alpha  occ. eigenvalues --   -0.30890  -0.29116  -0.24403  -0.21339
 Alpha virt. eigenvalues --    0.07112   0.08781   0.11306   0.11943   0.13188
 Alpha virt. eigenvalues --    0.13428   0.14514   0.15218   0.15858   0.16335
 Alpha virt. eigenvalues --    0.17857   0.18801   0.19984   0.20746   0.21503

 Mulliken charges:
               1
     1  C   -0.510853
     2  C    0.210444
     3  C   -0.006258
     4  O   -0.307001
     5  C    0.048946
     6  C   -0.245270
     7  C   -0.057825
     8  O   -0.272302
     9  C    0.055089
    10  H    0.124635
    11  H    0.123768
    12  H    0.121691
    13  H    0.100669
    14  H    0.078901
    15  H    0.107203
    16  H    0.107291
    17  H    0.102241
    18  H    0.115704
    19  H    0.102925
 Sum of Mulliken charges =   0.00000

 Dipole moment (field-independent basis, Debye):
    X=              1.1511    Y=             -0.5225    Z=             -1.1865  Tot=              1.7337
 Quadrupole moment (field-independent basis, Debye-Ang):
   XX=            -50.2062   YY=            -54.4123   ZZ=            -54.0423
   XY=              2.9084   XZ=              1.5451   YZ=              3.3872

  Exact polarizability:  80.981   2.395  70.951   1.383   3.238  69.872
 Approx polarizability: 106.453   1.773 108.454   0.795   1.611 108.779

                      1                      2                      3
                      A                      A                      A
 Frequencies --    164.0002               186.6502               214.8613
 Red. masses --      2.8037                 1.1135                 2.9049
 Frc consts  --      0.0444                 0.0229                 0.0790
 IR Inten    --      2.7755                 0.0812                 2.1762

                      4                      5                      6
                      A                      A                      A
 Frequencies --    270.3388               290.5640               359.1307
 Red. masses --      2.0704                 3.0302                 3.0521
 Frc consts  --      0.0892                 0.1507                 0.2319
 IR Inten    --      2.7103                 1.2484                 3.4858

                      7                      8                      9
                      A                      A                      A
 Frequencies --    460.2167               494.6449               622.2318
 Red. masses --      5.4570                 3.2943                 3.6263
 Frc consts  --      0.6810                 0.4749                 0.8272
 IR Inten    --      1.9582                 0.3560                 9.3975

                     10                     11                     12
                      A                      A                      A
 Frequencies --    652.8589               688.0196               770.4580
 Red. masses --      3.0860                 3.0584                 5.3267
 Frc consts  --      0.7750                 0.8530                 1.8630
 IR Inten    --      3.7321                 9.2646                22.3542

                     13                     14                     15
                      A                      A                      A
 Frequencies --    799.3842               854.7940               886.6683
 Red. masses --      2.4134                 2.7468                 2.9239
 Frc consts  --      0.9086                 1.1825                 1.3544
 IR Inten    --      1.0591                 7.2433                 9.9811

                     16                     17                     18
                      A                      A                      A
 Frequencies --    911.4294               932.3629               964.0140
 Red. masses --      2.0222                 2.2183                 1.9524
 Frc consts  --      0.9897                 1.1362                 1.0690
 IR Inten    --     10.0739                10.9511                19.0716

                     19                     20                     21
                      A                      A                      A
 Frequencies --    998.4986              1023.3327              1036.9602
 Red. masses --      1.8548                 2.2532                 1.7696
 Frc consts  --      1.0896                 1.3902                 1.1211
 IR Inten    --     16.0778                23.8531                12.7590

                     22                     23                     24
                      A                      A                      A
 Frequencies --   1055.3185              1088.1223              1093.7145
 Red. masses --      2.7534                 1.7704                 1.8368
 Frc consts  --      1.8067                 1.2350                 1.2946
 IR Inten    --      7.8213                 7.8540                 2.6293

                     25                     26                     27
                      A                      A                      A
 Frequencies --   1125.7600              1176.1303              1203.4241
 Red. masses --      2.3460                 2.1945                 1.9405
 Frc consts  --      1.7517                 1.7885                 1.6557
 IR Inten    --     10.7806                67.6238                57.5028

                     28                     29                     30
                      A                      A                      A
 Frequencies --   1237.2339              1262.0857              1279.3592
 Red. masses --      1.5259                 1.8697                 1.4895
 Frc consts  --      1.3762                 1.7547                 1.4364
 IR Inten    --      1.0622                 8.8568                11.8929

                     31                     32                     33
                      A                      A                      A
 Frequencies --   1295.3633              1332.1444              1349.9479
 Red. masses --      1.7852                 1.4700                 1.3336
 Frc consts  --      1.7649                 1.5370                 1.4319
 IR Inten    --     31.5162                 4.6881                 2.7546

                     34                     35                     36
                      A                      A                      A
 Frequencies --   1370.6019              1418.1515              1418.9658
 Red. masses --      1.4564                 1.2963                 1.3225
 Frc consts  --      1.6120                 1.5360                 1.5689
 IR Inten    --      0.7526                 0.0660                10.6595

                     37                     38                     39
                      A                      A                      A
 Frequencies --   1469.7674              1477.4838              1487.7911
 Red. masses --      1.0947                 2.2572                 1.0569
 Frc consts  --      1.3933                 2.9031                 1.3784
 IR Inten    --      3.0149                14.5938                 8.2120

                     40                     41                     42
                      A                      A                      A
 Frequencies --   1498.3370              1506.8689              3018.9044
 Red. masses --      1.0888                 1.1708                 1.0364
 Frc consts  --      1.4401                 1.5664                 5.5652
 IR Inten    --      4.3834                 6.1567                37.1967

                     43                     44                     45
                      A                      A                      A
 Frequencies --   3032.4584              3035.4376              3056.6599
 Red. masses --      1.0608                 1.0627                 1.0872
 Frc consts  --      5.7476                 5.7690                 5.9847
 IR Inten    --     12.0597                40.9417                54.9413

                     46                     47                     48
                      A                      A                      A
 Frequencies --   3076.7105              3078.5974              3090.9662
 Red. masses --      1.1005                 1.0991                 1.1062
 Frc consts  --      6.1376                 6.1372                 6.2269
 IR Inten    --     26.9053                29.2987                36.2854

                     49                     50                     51
                      A                      A                      A
 Frequencies --   3097.1663              3147.5193              3163.3157
 Red. masses --      1.0996                 1.0874                 1.0935
 Frc consts  --      6.2149                 6.3473                 6.4467
 IR Inten    --     18.3605                 8.8464                34.2566

 - Thermochemistry -
 -------------------
 Temperature   298.150 Kelvin.  Pressure   1.00000 Atm.
 Atom     1 has atomic number  6 and mass  12.00000

 Molecular mass:   126.06808 amu.
 Principal axes and moments of inertia in atomic units:
                           1         2         3
     Eigenvalues --   700.116801056.397711138.00828
           X            0.99895   0.04559  -0.00544
           Y           -0.04366   0.97982   0.19506
           Z            0.01422  -0.19462   0.98078
 This molecule is an asymmetric top.
 Rotational symmetry number  1.
 Warning -- assumption of classical behavior for rotation
           may cause significant error
 Rotational temperatures (Kelvin)      0.12371     0.08199     0.07611
 Rotational constants (GHZ):           2.57777     1.70839     1.58588
 Zero-point vibrational energy     421837.5 (Joules/Mol)
                                  100.82159 (Kcal/Mol)
 Warning -- explicit consideration of   8 degrees of freedom as
           vibrations may cause significant error
 Vibrational temperatures:    235.96   268.55   309.14   388.96   418.06
          (Kelvin)            516.71   662.15   711.68   895.25   939.32
                              989.91  1108.52  1150.13  1229.86  1275.72
                             1311.34  1341.46  1387.00  1436.62  1472.35
                             1491.95  1518.37  1565.56  1573.61  1619.72
                             1692.19  1731.46  1780.10  1815.86  1840.71
                             1863.74  1916.66  1942.27  1971.99  2040.40
                             2041.57  2114.66  2125.77  2140.60  2155.77
                             2168.05  4343.52  4363.03  4367.31  4397.85
                             4426.69  4429.41  4447.21  4456.13  4528.57
                             4551.30

 Zero-point correction=                           0.160669 (Hartree/Particle)
 Thermal correction to Energy=                    0.168153
 Thermal correction to Enthalpy=                  0.169097
 Thermal correction to Gibbs Free Energy=         0.129121
 Sum of electronic and zero-point Energies=           -422.985879
 Sum of electronic and thermal Energies=              -422.978395
 Sum of electronic and thermal Enthalpies=            -422.977451
 Sum of electronic and thermal Free Energies=         -423.017427

                     E (Thermal)             CV                S
                      KCal/Mol        Cal/Mol-Kelvin    Cal/Mol-Kelvin
 Total                  105.518             29.929             84.138
 Electronic               0.000              0.000              0.000
 Translational            0.889              2.981             40.409
 Rotational               0.889              2.981             28.222
 Vibrational            103.740             23.967             15.507
 Vibration     1          0.623              1.887              2.503
 Vibration     2          0.632              1.858              2.261
 Vibration     3          0.645              1.818              2.002
 Vibration     4          0.674              1.728              1.594
 Vibration     5          0.687              1.691              1.471
 Vibration     6          0.734              1.556              1.126
 Vibration     7          0.818              1.338              0.765
 Vibration     8          0.850              1.262              0.672

 Normal termination of Gaussian 09 at Mon Jan 27 17:54:29 2020.
