 Gaussian 09, Revision D.01,
 Gaussian 09:  ES64L-G09RevD.01 24-Apr-2013

 -----------------------------
 # b3lyp 6-31G(2df,p) opt Freq
 -----------------------------

 -----
 titel
 -----
 Symbolic Z-matrix:
 Charge =  0 Multiplicity = 1

 SCF Done:  E(RB3LYP) =  -423.116630378     A.U. after   13 cycles
 Optimization completed.
    -- Stationary point found.
 Normal termination of Gaussian 09 at Mon Jan 27 18:33:32 2020.

 ----------------------------------------------------------------------
 #N Geom=AllCheck Guess=TCheck SCRF=Check GenChk RB3LYP/6-31G(2df,p) Fr
 eq
 ----------------------------------------------------------------------

 Structure from the checkpoint file:  "/scratch/puck/g09_0fc4fddd-6ce9-440c-8433-f14534b0759e/Gau-42623.chk"
 -----
 titel
 -----
 Charge =  0 Multiplicity = 1

                         Standard orientation:
 ---------------------------------------------------------------------
 Center     Atomic      Atomic             Coordinates (Angstroms)
 Number     Number       Type             X           Y           Z
 ---------------------------------------------------------------------
      1          6           0       -1.486645    1.419789    0.562722
      2          6           0       -0.617320    0.461090   -0.234848
      3          6           0        0.568325    1.141218   -0.971812
      4          6           0        1.685935    0.328914   -0.239811
      5          6           0        1.271932    0.100544    1.266177
      6          6           0        0.177270   -0.641195    0.484193
      7          6           0       -1.063104   -1.507063    0.273010
      8          8           0       -1.476008   -0.595901   -0.790998
      9          8           0        1.185319   -1.006094   -0.505430
     10          1           0       -2.093892    0.893402    1.305701
     11          1           0       -0.894074    2.183138    1.075895
     12          1           0       -2.171734    1.932508   -0.120990
     13          1           0        0.617026    0.921348   -2.039675
     14          1           0        0.592049    2.223767   -0.822476
     15          1           0        2.726069    0.490524   -0.523969
     16          1           0        2.000626   -0.547128    1.754161
     17          1           0        0.988168    0.942401    1.901846
     18          1           0       -0.872479   -2.518192   -0.094527
     19          1           0       -1.784599   -1.525596    1.097667
 ---------------------------------------------------------------------

 SCF Done:  E(RB3LYP) =  -423.116630378     A.U. after    1 cycles

 The electronic state is 1-A.
 Alpha  occ. eigenvalues --  -19.13472 -19.13280 -10.24648 -10.23976 -10.23618
 Alpha  occ. eigenvalues --  -10.23185 -10.20161 -10.18733 -10.18047  -1.06976
 Alpha  occ. eigenvalues --   -1.01540  -0.79737  -0.73471  -0.72187  -0.69255
 Alpha  occ. eigenvalues --   -0.64647  -0.57312  -0.52077  -0.50418  -0.48315
 Alpha  occ. eigenvalues --   -0.47106  -0.45395  -0.42434  -0.40811  -0.39996
 Alpha  occ. eigenvalues --   -0.39006  -0.37602  -0.36174  -0.35330  -0.32372
 Alpha  occ. eigenvalues --   -0.31485  -0.29077  -0.25330  -0.23876
 Alpha virt. eigenvalues --    0.08126   0.08747   0.09017   0.10926   0.11861
 Alpha virt. eigenvalues --    0.13093   0.14364   0.14827   0.15372   0.16204
 Alpha virt. eigenvalues --    0.17081   0.17768   0.19158   0.19654   0.21329

 Mulliken charges:
               1
     1  C   -0.453938
     2  C    0.450990
     3  C   -0.307118
     4  C    0.062331
     5  C   -0.341738
     6  C    0.332329
     7  C   -0.219774
     8  O   -0.350823
     9  O   -0.302020
    10  H    0.117124
    11  H    0.113540
    12  H    0.133100
    13  H    0.128909
    14  H    0.094643
    15  H    0.087006
    16  H    0.119513
    17  H    0.103933
    18  H    0.125090
    19  H    0.106903
 Sum of Mulliken charges =   0.00000

 Dipole moment (field-independent basis, Debye):
    X=              0.7172    Y=              1.5109    Z=              1.9590  Tot=              2.5758
 Quadrupole moment (field-independent basis, Debye-Ang):
   XX=            -53.7242   YY=            -51.8049   ZZ=            -53.7253
   XY=              1.9133   XZ=             -1.8076   YZ=             -2.5228

  Exact polarizability:  79.288   2.763  76.630  -1.721  -2.010  67.254
 Approx polarizability: 112.304   4.319 114.674  -1.080  -0.002 103.809

                      1                      2                      3
                      A                      A                      A
 Frequencies --    185.8837               227.8515               268.6276
 Red. masses --      1.6659                 1.4481                 2.8096
 Frc consts  --      0.0339                 0.0443                 0.1195
 IR Inten    --      0.4926                 0.1018                 1.1966

                      4                      5                      6
                      A                      A                      A
 Frequencies --    323.7533               383.5044               406.5711
 Red. masses --      2.4845                 3.5113                 2.0046
 Frc consts  --      0.1534                 0.3043                 0.1952
 IR Inten    --      2.1191                 2.6681                 2.1299

                      7                      8                      9
                      A                      A                      A
 Frequencies --    456.4872               521.1831               572.2313
 Red. masses --      2.5858                 2.7731                 4.5420
 Frc consts  --      0.3175                 0.4438                 0.8763
 IR Inten    --      6.7015                 2.4102                 4.1773

                     10                     11                     12
                      A                      A                      A
 Frequencies --    617.1487               724.3939               783.2567
 Red. masses --      3.5047                 3.7478                 2.9120
 Frc consts  --      0.7865                 1.1587                 1.0526
 IR Inten    --      3.5882                 6.8381                17.0126

                     13                     14                     15
                      A                      A                      A
 Frequencies --    809.0398               844.1946               855.9645
 Red. masses --      3.2647                 2.5212                 2.9296
 Frc consts  --      1.2590                 1.0586                 1.2646
 IR Inten    --      5.9897                17.0614                 0.9170

                     16                     17                     18
                      A                      A                      A
 Frequencies --    897.4942               930.1881               949.5840
 Red. masses --      3.0338                 3.0117                 2.5699
 Frc consts  --      1.4398                 1.5353                 1.3653
 IR Inten    --     36.6872                34.3607                22.1821

                     19                     20                     21
                      A                      A                      A
 Frequencies --    950.5667               968.4658               987.3349
 Red. masses --      2.0496                 2.4105                 3.2656
 Frc consts  --      1.0912                 1.3321                 1.8756
 IR Inten    --     27.1664                11.2307                12.5405

                     22                     23                     24
                      A                      A                      A
 Frequencies --   1023.2600              1075.3201              1085.1684
 Red. masses --      1.4249                 1.7276                 1.8482
 Frc consts  --      0.8790                 1.1770                 1.2823
 IR Inten    --     10.9588                 5.9092                 2.3585

                     25                     26                     27
                      A                      A                      A
 Frequencies --   1130.5205              1160.8322              1180.7466
 Red. masses --      1.4260                 1.3864                 1.5279
 Frc consts  --      1.0738                 1.1007                 1.2551
 IR Inten    --      3.5523                 1.5948                 4.9840

                     28                     29                     30
                      A                      A                      A
 Frequencies --   1190.8929              1208.8716              1222.1159
 Red. masses --      1.5929                 2.6041                 1.9796
 Frc consts  --      1.3310                 2.2421                 1.7420
 IR Inten    --      6.7241                20.3158                 6.5036

                     31                     32                     33
                      A                      A                      A
 Frequencies --   1252.6375              1275.2217              1291.7301
 Red. masses --      2.2298                 1.6763                 1.9516
 Frc consts  --      2.0614                 1.6061                 1.9186
 IR Inten    --     19.9890                 6.3466                 5.8515

                     34                     35                     36
                      A                      A                      A
 Frequencies --   1306.7475              1346.7651              1412.4956
 Red. masses --      1.5143                 2.2130                 1.2599
 Frc consts  --      1.5235                 2.3649                 1.4811
 IR Inten    --      3.5285                 1.3035                 7.2068

                     37                     38                     39
                      A                      A                      A
 Frequencies --   1470.4258              1482.6638              1487.7682
 Red. masses --      1.0994                 1.1134                 1.0592
 Frc consts  --      1.4005                 1.4421                 1.3814
 IR Inten    --      4.2998                 0.9245                 2.7023

                     40                     41                     42
                      A                      A                      A
 Frequencies --   1493.6708              1502.5339              3033.0403
 Red. masses --      1.0991                 1.0936                 1.0418
 Frc consts  --      1.4447                 1.4547                 5.6464
 IR Inten    --      2.6229                 0.5519                17.8629

                     43                     44                     45
                      A                      A                      A
 Frequencies --   3038.1834              3069.7625              3074.6618
 Red. masses --      1.0534                 1.0604                 1.0581
 Frc consts  --      5.7287                 5.8877                 5.8936
 IR Inten    --     45.5586                22.7154                26.8569

                     46                     47                     48
                      A                      A                      A
 Frequencies --   3101.8646              3108.2200              3110.5144
 Red. masses --      1.1003                 1.1021                 1.1053
 Frc consts  --      6.2373                 6.2734                 6.3005
 IR Inten    --     16.8217                29.6245                17.0466

                     49                     50                     51
                      A                      A                      A
 Frequencies --   3122.1626              3130.8174              3149.1476
 Red. masses --      1.0914                 1.1053                 1.1089
 Frc consts  --      6.2685                 6.3834                 6.4791
 IR Inten    --     49.9992                11.4927                23.1194

 - Thermochemistry -
 -------------------
 Temperature   298.150 Kelvin.  Pressure   1.00000 Atm.
 Atom     1 has atomic number  6 and mass  12.00000

 Molecular mass:   126.06808 amu.
 Principal axes and moments of inertia in atomic units:
                           1         2         3
     Eigenvalues --   687.09721 915.507721107.34816
           X            0.99965  -0.00222  -0.02627
           Y            0.00167   0.99978  -0.02109
           Z            0.02631   0.02104   0.99943
 This molecule is an asymmetric top.
 Rotational symmetry number  1.
 Warning -- assumption of classical behavior for rotation
           may cause significant error
 Rotational temperatures (Kelvin)      0.12606     0.09461     0.07822
 Rotational constants (GHZ):           2.62662     1.97130     1.62979
 Zero-point vibrational energy     419904.1 (Joules/Mol)
                                  100.35949 (Kcal/Mol)
 Warning -- explicit consideration of  10 degrees of freedom as
           vibrations may cause significant error
 Vibrational temperatures:    267.44   327.83   386.49   465.81   551.78
          (Kelvin)            584.96   656.78   749.87   823.31   887.94
                             1042.24  1126.93  1164.03  1214.61  1231.54
                             1291.29  1338.33  1366.24  1367.65  1393.40
                             1420.55  1472.24  1547.14  1561.31  1626.56
                             1670.18  1698.83  1713.43  1739.29  1758.35
                             1802.26  1834.76  1858.51  1880.12  1937.69
                             2032.26  2115.61  2133.22  2140.56  2149.06
                             2161.81  4363.86  4371.26  4416.70  4423.75
                             4462.89  4472.03  4475.33  4492.09  4504.54
                             4530.92

 Zero-point correction=                           0.159933 (Hartree/Particle)
 Thermal correction to Energy=                    0.167094
 Thermal correction to Enthalpy=                  0.168038
 Thermal correction to Gibbs Free Energy=         0.128973
 Sum of electronic and zero-point Energies=           -422.956697
 Sum of electronic and thermal Energies=              -422.949537
 Sum of electronic and thermal Enthalpies=            -422.948592
 Sum of electronic and thermal Free Energies=         -422.987658

                     E (Thermal)             CV                S
                      KCal/Mol        Cal/Mol-Kelvin    Cal/Mol-Kelvin
 Total                  104.853             29.960             82.220
 Electronic               0.000              0.000              0.000
 Translational            0.889              2.981             40.409
 Rotational               0.889              2.981             28.034
 Vibrational            103.076             23.998             13.777
 Vibration     1          0.632              1.859              2.268
 Vibration     2          0.651              1.799              1.896
 Vibration     3          0.673              1.731              1.605
 Vibration     4          0.708              1.628              1.291
 Vibration     5          0.753              1.505              1.025
 Vibration     6          0.771              1.456              0.939
 Vibration     7          0.815              1.347              0.776
 Vibration     8          0.876              1.203              0.607
 Vibration     9          0.928              1.091              0.500
 Vibration    10          0.977              0.996              0.421

 Normal termination of Gaussian 09 at Mon Jan 27 19:31:06 2020.
