 Gaussian 09, Revision D.01,
 Gaussian 09:  ES64L-G09RevD.01 24-Apr-2013

 -----------------------------
 # b3lyp 6-31G(2df,p) opt Freq
 -----------------------------

 -----
 titel
 -----
 Symbolic Z-matrix:
 Charge =  0 Multiplicity = 1

 SCF Done:  E(RB3LYP) =  -423.191419190     A.U. after   14 cycles
 Optimization completed.
    -- Stationary point found.
 Normal termination of Gaussian 09 at Tue Jan 28 03:19:34 2020.

 ----------------------------------------------------------------------
 #N Geom=AllCheck Guess=TCheck SCRF=Check GenChk RB3LYP/6-31G(2df,p) Fr
 eq
 ----------------------------------------------------------------------

 Structure from the checkpoint file:  "/scratch/puck/g09_f52b9491-1edc-4e63-bb6f-42e5bf7db9ae/Gau-79248.chk"
 -----
 titel
 -----
 Charge =  0 Multiplicity = 1

                         Standard orientation:
 ---------------------------------------------------------------------
 Center     Atomic      Atomic             Coordinates (Angstroms)
 Number     Number       Type             X           Y           Z
 ---------------------------------------------------------------------
      1          6           0       -0.855766    2.045035   -0.603988
      2          6           0       -0.032911    1.043366    0.214093
      3          6           0       -0.881913    0.307287    1.294248
      4          6           0       -1.201170   -1.047478    0.701997
      5          8           0       -1.724243   -0.987304   -0.637841
      6          6           0       -0.339561   -1.291782   -0.459844
      7          6           0        0.570488   -0.083671   -0.669179
      8          6           0        2.000423   -0.457175   -0.320407
      9          8           0        2.670506    0.066611    0.531812
     10          1           0       -1.268763    2.825331    0.044082
     11          1           0       -0.235125    2.537887   -1.360431
     12          1           0       -1.685637    1.546002   -1.111053
     13          1           0        0.791211    1.570904    0.700403
     14          1           0       -0.307076    0.160210    2.215859
     15          1           0       -1.784743    0.868032    1.556968
     16          1           0       -1.600895   -1.851156    1.315296
     17          1           0       -0.030541   -2.283299   -0.784372
     18          1           0        0.578754    0.188403   -1.735331
     19          1           0        2.415177   -1.290259   -0.934712
 ---------------------------------------------------------------------

 SCF Done:  E(RB3LYP) =  -423.191419190     A.U. after    1 cycles

 The electronic state is 1-A.
 Alpha  occ. eigenvalues --  -19.15705 -19.14942 -10.27906 -10.24702 -10.24122
 Alpha  occ. eigenvalues --  -10.20442 -10.19319 -10.18890 -10.17209  -1.07932
 Alpha  occ. eigenvalues --   -1.05570  -0.82927  -0.75091  -0.72081  -0.64329
 Alpha  occ. eigenvalues --   -0.61795  -0.58182  -0.55242  -0.52710  -0.48486
 Alpha  occ. eigenvalues --   -0.45955  -0.44925  -0.44635  -0.40847  -0.40350
 Alpha  occ. eigenvalues --   -0.39865  -0.38001  -0.36290  -0.35095  -0.34122
 Alpha  occ. eigenvalues --   -0.33198  -0.29967  -0.27015  -0.25674
 Alpha virt. eigenvalues --   -0.03044   0.09468   0.10051   0.10324   0.11531
 Alpha virt. eigenvalues --    0.12847   0.14289   0.14734   0.15618   0.15845
 Alpha virt. eigenvalues --    0.16960   0.17129   0.18896   0.19277   0.19542

 Mulliken charges:
               1
     1  C   -0.411189
     2  C    0.008010
     3  C   -0.261728
     4  C    0.059393
     5  O   -0.259329
     6  C    0.031431
     7  C   -0.134584
     8  C    0.138435
     9  O   -0.236400
    10  H    0.111527
    11  H    0.108972
    12  H    0.137729
    13  H    0.102661
    14  H    0.114218
    15  H    0.110120
    16  H    0.097679
    17  H    0.097934
    18  H    0.104055
    19  H    0.081068
 Sum of Mulliken charges =   0.00000

 Dipole moment (field-independent basis, Debye):
    X=             -0.3853    Y=             -0.7658    Z=             -0.2702  Tot=              0.8988
 Quadrupole moment (field-independent basis, Debye-Ang):
   XX=            -62.3427   YY=            -50.6478   ZZ=            -51.8684
   XY=             -2.7186   XZ=             -6.8587   YZ=             -0.6565

  Exact polarizability:  77.302  -2.168  75.278  -3.243   3.099  70.610
 Approx polarizability: 114.168   0.962 103.814   3.148   8.561 113.681

                      1                      2                      3
                      A                      A                      A
 Frequencies --     56.3454               120.5057               189.0352
 Red. masses --      4.9768                 2.8973                 4.3265
 Frc consts  --      0.0093                 0.0248                 0.0911
 IR Inten    --      5.3820                 4.9526                 6.5407

                      4                      5                      6
                      A                      A                      A
 Frequencies --    231.4863               252.7970               297.8139
 Red. masses --      2.6011                 1.1549                 2.1905
 Frc consts  --      0.0821                 0.0435                 0.1145
 IR Inten    --      2.2035                 0.4710                 0.7340

                      7                      8                      9
                      A                      A                      A
 Frequencies --    376.0302               404.2139               424.4991
 Red. masses --      2.1305                 4.2797                 4.5354
 Frc consts  --      0.1775                 0.4120                 0.4815
 IR Inten    --      4.0035                 1.9133                 6.8756

                     10                     11                     12
                      A                      A                      A
 Frequencies --    665.8788               685.1092               709.1717
 Red. masses --      4.4093                 4.5242                 4.1996
 Frc consts  --      1.1519                 1.2511                 1.2444
 IR Inten    --     17.9378                 8.9965                 4.5834

                     13                     14                     15
                      A                      A                      A
 Frequencies --    783.8992               816.1889               861.7569
 Red. masses --      2.3779                 4.0026                 2.3125
 Frc consts  --      0.8609                 1.5710                 1.0118
 IR Inten    --      3.8088                 3.3601                32.6282

                     16                     17                     18
                      A                      A                      A
 Frequencies --    889.6851               910.4919               965.2198
 Red. masses --      2.5773                 1.6946                 1.9350
 Frc consts  --      1.2019                 0.8277                 1.0621
 IR Inten    --      2.8937                 4.1122                 6.9638

                     19                     20                     21
                      A                      A                      A
 Frequencies --    975.6310              1009.4742              1027.8566
 Red. masses --      2.1779                 2.1011                 1.3573
 Frc consts  --      1.2214                 1.2615                 0.8449
 IR Inten    --     18.3785                 0.9815                 2.4924

                     22                     23                     24
                      A                      A                      A
 Frequencies --   1056.1100              1058.7926              1120.2340
 Red. masses --      1.4859                 1.8014                 1.9995
 Frc consts  --      0.9765                 1.1898                 1.4784
 IR Inten    --     11.4460                 2.6101                 2.2071

                     25                     26                     27
                      A                      A                      A
 Frequencies --   1139.5215              1148.6513              1211.9647
 Red. masses --      1.6921                 1.9236                 1.4722
 Frc consts  --      1.2946                 1.4953                 1.2741
 IR Inten    --     10.1757                 2.4201                 2.5158

                     28                     29                     30
                      A                      A                      A
 Frequencies --   1232.1574              1268.2922              1282.6550
 Red. masses --      1.4021                 1.3754                 1.4189
 Frc consts  --      1.2542                 1.3035                 1.3754
 IR Inten    --      5.5231                 1.5781                 8.7965

                     31                     32                     33
                      A                      A                      A
 Frequencies --   1292.0108              1322.5995              1363.9398
 Red. masses --      1.4831                 1.4929                 1.4349
 Frc consts  --      1.4587                 1.5387                 1.5727
 IR Inten    --      5.3217                 6.3143                 2.1239

                     34                     35                     36
                      A                      A                      A
 Frequencies --   1369.2668              1403.5176              1422.1097
 Red. masses --      1.6063                 1.2828                 1.3274
 Frc consts  --      1.7744                 1.4889                 1.5817
 IR Inten    --      4.3636                 5.6894                12.2369

                     37                     38                     39
                      A                      A                      A
 Frequencies --   1447.7793              1481.1984              1496.8938
 Red. masses --      2.3114                 1.0920                 1.0489
 Frc consts  --      2.8544                 1.4115                 1.3847
 IR Inten    --      9.9934                 3.0871                 3.8182

                     40                     41                     42
                      A                      A                      A
 Frequencies --   1511.9734              1829.0393              2858.7920
 Red. masses --      1.0519                10.5819                 1.0823
 Frc consts  --      1.4168                20.8573                 5.2113
 IR Inten    --      1.5137               139.0389               129.7117

                     43                     44                     45
                      A                      A                      A
 Frequencies --   3005.5053              3031.5676              3042.1649
 Red. masses --      1.0816                 1.0367                 1.0609
 Frc consts  --      5.7562                 5.6134                 5.7847
 IR Inten    --     14.5352                29.3445                18.5942

                     46                     47                     48
                      A                      A                      A
 Frequencies --   3078.5497              3086.2524              3094.9763
 Red. masses --      1.0875                 1.1001                 1.1009
 Frc consts  --      6.0724                 6.1738                 6.2133
 IR Inten    --      8.0050                11.2010                33.0837

                     49                     50                     51
                      A                      A                      A
 Frequencies --   3124.2532              3132.2837              3151.6037
 Red. masses --      1.1002                 1.0876                 1.0941
 Frc consts  --      6.3271                 6.2867                 6.4027
 IR Inten    --     17.7420                19.4825                34.7599

 - Thermochemistry -
 -------------------
 Temperature   298.150 Kelvin.  Pressure   1.00000 Atm.
 Atom     1 has atomic number  6 and mass  12.00000

 Molecular mass:   126.06808 amu.
 Principal axes and moments of inertia in atomic units:
                           1         2         3
     Eigenvalues --   764.588331201.166891478.88449
           X            0.99778  -0.05975  -0.02950
           Y            0.05909   0.99799  -0.02272
           Z            0.03080   0.02092   0.99931
 This molecule is an asymmetric top.
 Rotational symmetry number  1.
 Warning -- assumption of classical behavior for rotation
           may cause significant error
 Rotational temperatures (Kelvin)      0.11328     0.07211     0.05857
 Rotational constants (GHZ):           2.36041     1.50249     1.22034
 Zero-point vibrational energy     417004.7 (Joules/Mol)
                                   99.66652 (Kcal/Mol)
 Warning -- explicit consideration of   9 degrees of freedom as
           vibrations may cause significant error
 Vibrational temperatures:     81.07   173.38   271.98   333.06   363.72
          (Kelvin)            428.49   541.02   581.57   610.76   958.05
                              985.72  1020.34  1127.85  1174.31  1239.87
                             1280.06  1309.99  1388.73  1403.71  1452.41
                             1478.85  1519.50  1523.36  1611.76  1639.52
                             1652.65  1743.74  1772.80  1824.79  1845.45
                             1858.91  1902.92  1962.40  1970.07  2019.35
                             2046.10  2083.03  2131.11  2153.69  2175.39
                             2631.58  4113.16  4324.25  4361.74  4376.99
                             4429.34  4440.42  4452.98  4495.10  4506.65
                             4534.45

 Zero-point correction=                           0.158829 (Hartree/Particle)
 Thermal correction to Energy=                    0.167189
 Thermal correction to Enthalpy=                  0.168133
 Thermal correction to Gibbs Free Energy=         0.125493
 Sum of electronic and zero-point Energies=           -423.032590
 Sum of electronic and thermal Energies=              -423.024230
 Sum of electronic and thermal Enthalpies=            -423.023286
 Sum of electronic and thermal Free Energies=         -423.065926

                     E (Thermal)             CV                S
                      KCal/Mol        Cal/Mol-Kelvin    Cal/Mol-Kelvin
 Total                  104.913             31.473             89.742
 Electronic               0.000              0.000              0.000
 Translational            0.889              2.981             40.409
 Rotational               0.889              2.981             28.698
 Vibrational            103.135             25.511             20.636
 Vibration     1          0.596              1.975              4.581
 Vibration     2          0.609              1.932              3.092
 Vibration     3          0.633              1.855              2.237
 Vibration     4          0.653              1.793              1.867
 Vibration     5          0.664              1.758              1.711
 Vibration     6          0.691              1.678              1.429
 Vibration     7          0.747              1.521              1.055
 Vibration     8          0.769              1.461              0.947
 Vibration     9          0.786              1.417              0.877

 Optimization completed.
    -- Stationary point found.
 Normal termination of Gaussian 09 at Tue Jan 28 04:02:51 2020.
