 Gaussian 09, Revision D.01,
 Gaussian 09:  ES64L-G09RevD.01 24-Apr-2013

 -----------------------------
 # b3lyp 6-31G(2df,p) opt Freq
 -----------------------------

 -----
 titel
 -----
 Symbolic Z-matrix:
 Charge =  0 Multiplicity = 1

 SCF Done:  E(RB3LYP) =  -423.092495116     A.U. after   14 cycles
 Optimization completed.
    -- Stationary point found.
 Normal termination of Gaussian 09 at Mon Jan 27 23:03:49 2020.

 ----------------------------------------------------------------------
 #N Geom=AllCheck Guess=TCheck SCRF=Check GenChk RB3LYP/6-31G(2df,p) Fr
 eq
 ----------------------------------------------------------------------

 Structure from the checkpoint file:  "/scratch/puck/g09_597fc5f3-e857-43a8-803a-497f67220133/Gau-182273.chk"
 -----
 titel
 -----
 Charge =  0 Multiplicity = 1

                         Standard orientation:
 ---------------------------------------------------------------------
 Center     Atomic      Atomic             Coordinates (Angstroms)
 Number     Number       Type             X           Y           Z
 ---------------------------------------------------------------------
      1          6           0       -1.215569    1.966308    0.043276
      2          6           0       -1.280213    0.560437   -0.519385
      3          6           0       -1.727512   -0.610533    0.397137
      4          6           0       -1.021845   -1.616318   -0.539662
      5          6           0       -0.079102   -0.413825   -0.272967
      6          8           0       -0.461840   -0.482311    1.161735
      7          6           0        1.358240   -0.253032   -0.619009
      8          6           0        2.401699   -0.344673    0.409840
      9          8           0        2.004395    0.921337   -0.122863
     10          1           0       -0.795830    1.953200    1.050349
     11          1           0       -0.587068    2.606805   -0.582688
     12          1           0       -2.215248    2.413099    0.080953
     13          1           0       -1.690242    0.527738   -1.534509
     14          1           0       -2.643293   -0.729677    0.976138
     15          1           0       -0.717577   -2.550570   -0.066919
     16          1           0       -1.415726   -1.749929   -1.550378
     17          1           0        1.607360   -0.506975   -1.650462
     18          1           0        2.102054   -0.529201    1.438492
     19          1           0        3.400942   -0.676879    0.132658
 ---------------------------------------------------------------------

 SCF Done:  E(RB3LYP) =  -423.092495116     A.U. after    1 cycles

 The electronic state is 1-A.
 Alpha  occ. eigenvalues --  -19.15301 -19.13189 -10.25282 -10.24786 -10.24291
 Alpha  occ. eigenvalues --  -10.23492 -10.19801 -10.19527 -10.16740  -1.07528
 Alpha  occ. eigenvalues --   -1.05302  -0.79988  -0.73357  -0.71383  -0.65638
 Alpha  occ. eigenvalues --   -0.63007  -0.60222  -0.52910  -0.52356  -0.49412
 Alpha  occ. eigenvalues --   -0.46355  -0.43888  -0.42168  -0.41607  -0.40633
 Alpha  occ. eigenvalues --   -0.38247  -0.37004  -0.34543  -0.33712  -0.32942
 Alpha  occ. eigenvalues --   -0.31786  -0.28986  -0.26734  -0.23987
 Alpha virt. eigenvalues --    0.07984   0.08802   0.10665   0.11421   0.11881
 Alpha virt. eigenvalues --    0.12921   0.13853   0.14665   0.14869   0.15851
 Alpha virt. eigenvalues --    0.16594   0.17699   0.18531   0.19346   0.19539

 Mulliken charges:
               1
     1  C   -0.425258
     2  C   -0.004915
     3  C    0.031116
     4  C   -0.272434
     5  C    0.423435
     6  O   -0.342647
     7  C   -0.103637
     8  C   -0.169860
     9  O   -0.229442
    10  H    0.141457
    11  H    0.125698
    12  H    0.108159
    13  H    0.067770
    14  H    0.095499
    15  H    0.108369
    16  H    0.095766
    17  H    0.097220
    18  H    0.138751
    19  H    0.114953
 Sum of Mulliken charges =   0.00000

 Dipole moment (field-independent basis, Debye):
    X=             -0.7962    Y=             -1.5567    Z=             -1.5027  Tot=              2.3055
 Quadrupole moment (field-independent basis, Debye-Ang):
   XX=            -49.2690   YY=            -54.3550   ZZ=            -53.2825
   XY=             -3.3281   XZ=              0.5525   YZ=              0.7808

  Exact polarizability:  84.997  -1.888  74.710   2.269   0.541  67.571
 Approx polarizability: 115.037  -0.040 107.173   5.172  -0.356 110.104

                      1                      2                      3
                      A                      A                      A
 Frequencies --     59.7074               138.4441               185.5685
 Red. masses --      3.6354                 4.0395                 2.3852
 Frc consts  --      0.0076                 0.0456                 0.0484
 IR Inten    --      2.6067                 1.8576                 2.9502

                      4                      5                      6
                      A                      A                      A
 Frequencies --    226.2360               293.9569               296.5356
 Red. masses --      1.1864                 3.0598                 3.0728
 Frc consts  --      0.0358                 0.1558                 0.1592
 IR Inten    --      0.3703                 2.8536                 1.7786

                      7                      8                      9
                      A                      A                      A
 Frequencies --    397.1150               458.2087               525.6444
 Red. masses --      4.3142                 3.2480                 2.3603
 Frc consts  --      0.4009                 0.4018                 0.3842
 IR Inten    --      4.0494                 3.2964                 3.7843

                     10                     11                     12
                      A                      A                      A
 Frequencies --    632.4787               679.4731               745.3647
 Red. masses --      3.2965                 3.5138                 3.8132
 Frc consts  --      0.7770                 0.9558                 1.2482
 IR Inten    --     16.3264                 7.9708                11.9379

                     13                     14                     15
                      A                      A                      A
 Frequencies --    802.7977               807.2992               854.5801
 Red. masses --      2.1834                 3.1330                 7.4276
 Frc consts  --      0.8291                 1.2030                 3.1960
 IR Inten    --      0.6731                 2.3279                16.3440

                     16                     17                     18
                      A                      A                      A
 Frequencies --    888.2792               918.2586               957.8938
 Red. masses --      2.1520                 4.0420                 2.5021
 Frc consts  --      1.0004                 2.0081                 1.3527
 IR Inten    --     25.6772                29.5782                 7.3091

                     19                     20                     21
                      A                      A                      A
 Frequencies --    974.5354              1008.2451              1024.9059
 Red. masses --      2.0903                 1.5622                 1.4453
 Frc consts  --      1.1696                 0.9357                 0.8945
 IR Inten    --      6.6490                19.5273                 3.5996

                     22                     23                     24
                      A                      A                      A
 Frequencies --   1056.8830              1070.8992              1100.0162
 Red. masses --      1.4941                 1.5756                 1.2927
 Frc consts  --      0.9833                 1.0646                 0.9216
 IR Inten    --      2.6756                 7.0678                 1.9237

                     25                     26                     27
                      A                      A                      A
 Frequencies --   1119.0522              1150.4038              1157.4993
 Red. masses --      1.5325                 2.3801                 1.4040
 Frc consts  --      1.1307                 1.8558                 1.1083
 IR Inten    --      0.5201                 3.1008                 0.8518

                     28                     29                     30
                      A                      A                      A
 Frequencies --   1165.5172              1172.8509              1209.2369
 Red. masses --      1.3603                 1.4952                 1.8469
 Frc consts  --      1.0887                 1.2118                 1.5911
 IR Inten    --      0.1141                 3.9184                 8.5036

                     31                     32                     33
                      A                      A                      A
 Frequencies --   1222.7993              1243.1689              1279.3697
 Red. masses --      1.6294                 1.5280                 2.2234
 Frc consts  --      1.4355                 1.3913                 2.1442
 IR Inten    --      2.5304                 0.4916                 8.9219

                     34                     35                     36
                      A                      A                      A
 Frequencies --   1297.0586              1391.7125              1413.5856
 Red. masses --      1.8783                 1.3194                 1.4353
 Frc consts  --      1.8618                 1.5057                 1.6898
 IR Inten    --     15.1458                 1.0270                 8.9651

                     37                     38                     39
                      A                      A                      A
 Frequencies --   1444.9510              1487.0055              1500.5094
 Red. masses --      1.9143                 1.1167                 1.1428
 Frc consts  --      2.3549                 1.4549                 1.5159
 IR Inten    --      2.7948                 1.6641                 4.7525

                     40                     41                     42
                      A                      A                      A
 Frequencies --   1501.4165              1522.4941              3039.2156
 Red. masses --      1.1002                 1.4340                 1.0430
 Frc consts  --      1.4613                 1.9584                 5.6762
 IR Inten    --      4.9371                 2.0867                23.0716

                     43                     44                     45
                      A                      A                      A
 Frequencies --   3051.1315              3066.3189              3092.5018
 Red. masses --      1.0765                 1.0599                 1.0538
 Frc consts  --      5.9044                 5.8715                 5.9380
 IR Inten    --     25.3085                46.2232                24.4128

                     46                     47                     48
                      A                      A                      A
 Frequencies --   3101.0495              3102.0950              3120.6879
 Red. masses --      1.0988                 1.0849                 1.0935
 Frc consts  --      6.2256                 6.1512                 6.2746
 IR Inten    --     24.6224                23.2422                50.1791

                     49                     50                     51
                      A                      A                      A
 Frequencies --   3143.8710              3150.1609              3191.8404
 Red. masses --      1.0991                 1.1094                 1.1191
 Frc consts  --      6.4005                 6.4861                 6.7171
 IR Inten    --      5.6115                26.8749                14.4492

 - Thermochemistry -
 -------------------
 Temperature   298.150 Kelvin.  Pressure   1.00000 Atm.
 Atom     1 has atomic number  6 and mass  12.00000

 Molecular mass:   126.06808 amu.
 Principal axes and moments of inertia in atomic units:
                           1         2         3
     Eigenvalues --   661.358501186.408161490.94746
           X            0.99871  -0.04984   0.00972
           Y            0.04961   0.99850   0.02307
           Z           -0.01085  -0.02255   0.99969
 This molecule is an asymmetric top.
 Rotational symmetry number  1.
 Warning -- assumption of classical behavior for rotation
           may cause significant error
 Rotational temperatures (Kelvin)      0.13096     0.07301     0.05809
 Rotational constants (GHZ):           2.72884     1.52118     1.21047
 Zero-point vibrational energy     415348.4 (Joules/Mol)
                                   99.27065 (Kcal/Mol)
 Warning -- explicit consideration of   9 degrees of freedom as
           vibrations may cause significant error
 Vibrational temperatures:     85.91   199.19   266.99   325.50   422.94
          (Kelvin)            426.65   571.36   659.26   756.28   909.99
                              977.61  1072.41  1155.05  1161.52  1229.55
                             1278.03  1321.17  1378.19  1402.14  1450.64
                             1474.61  1520.62  1540.78  1582.68  1610.06
                             1655.17  1665.38  1676.92  1687.47  1739.82
                             1759.33  1788.64  1840.73  1866.18  2002.36
                             2033.83  2078.96  2139.47  2158.90  2160.20
                             2190.53  4372.75  4389.89  4411.74  4449.41
                             4461.71  4463.22  4489.97  4523.32  4532.37
                             4592.34

 Zero-point correction=                           0.158198 (Hartree/Particle)
 Thermal correction to Energy=                    0.166371
 Thermal correction to Enthalpy=                  0.167315
 Thermal correction to Gibbs Free Energy=         0.125214
 Sum of electronic and zero-point Energies=           -422.934297
 Sum of electronic and thermal Energies=              -422.926124
 Sum of electronic and thermal Enthalpies=            -422.925180
 Sum of electronic and thermal Free Energies=         -422.967281

                     E (Thermal)             CV                S
                      KCal/Mol        Cal/Mol-Kelvin    Cal/Mol-Kelvin
 Total                  104.400             31.427             88.609
 Electronic               0.000              0.000              0.000
 Translational            0.889              2.981             40.409
 Rotational               0.889              2.981             28.549
 Vibrational            102.622             25.466             19.651
 Vibration     1          0.597              1.974              4.467
 Vibration     2          0.614              1.915              2.825
 Vibration     3          0.632              1.860              2.272
 Vibration     4          0.650              1.801              1.909
 Vibration     5          0.689              1.685              1.451
 Vibration     6          0.690              1.680              1.436
 Vibration     7          0.764              1.476              0.973
 Vibration     8          0.816              1.343              0.771
 Vibration     9          0.881              1.193              0.597

 Optimization completed.
    -- Stationary point found.
 Normal termination of Gaussian 09 at Mon Jan 27 23:50:22 2020.
