 Gaussian 09, Revision D.01,
 Gaussian 09:  ES64L-G09RevD.01 24-Apr-2013

 -----------------------------
 # b3lyp 6-31G(2df,p) opt Freq
 -----------------------------

 -----
 titel
 -----
 Symbolic Z-matrix:
 Charge =  0 Multiplicity = 1

 SCF Done:  E(RB3LYP) =  -423.212561590     A.U. after   14 cycles
 Optimization completed.
    -- Stationary point found.
 Normal termination of Gaussian 09 at Mon Jan 27 10:18:19 2020.

 ----------------------------------------------------------------------
 #N Geom=AllCheck Guess=TCheck SCRF=Check GenChk RB3LYP/6-31G(2df,p) Fr
 eq
 ----------------------------------------------------------------------

 Structure from the checkpoint file:  "/scratch/puck/g09_a377f2aa-5f3b-4955-b359-2b011e7d0de2/Gau-66896.chk"
 -----
 titel
 -----
 Charge =  0 Multiplicity = 1

                         Standard orientation:
 ---------------------------------------------------------------------
 Center     Atomic      Atomic             Coordinates (Angstroms)
 Number     Number       Type             X           Y           Z
 ---------------------------------------------------------------------
      1          6           0        1.433165    1.919468    0.142410
      2          6           0        1.097029    0.449252    0.457367
      3          6           0        1.963695   -0.493560   -0.403519
      4          8           0        1.724742   -1.866291   -0.162767
      5          6           0       -0.359992    0.159912    0.300090
      6          6           0       -1.334493   -0.252715    1.155087
      7          6           0       -2.543547   -0.344074    0.388416
      8          6           0       -2.211751    0.020387   -0.875120
      9          8           0       -0.888573    0.332645   -0.947517
     10          1           0        2.502285    2.113062    0.277043
     11          1           0        1.169132    2.161964   -0.891145
     12          1           0        0.877416    2.594814    0.798291
     13          1           0        1.338222    0.256272    1.512058
     14          1           0        1.732266   -0.332470   -1.461261
     15          1           0        3.024248   -0.234358   -0.253716
     16          1           0        1.895241   -2.040664    0.768376
     17          1           0       -1.209301   -0.467592    2.205104
     18          1           0       -3.520223   -0.642636    0.735542
     19          1           0       -2.763272    0.108757   -1.796396
 ---------------------------------------------------------------------

 SCF Done:  E(RB3LYP) =  -423.212561590     A.U. after    1 cycles

 The electronic state is 1-A.
 Alpha  occ. eigenvalues --  -19.19494 -19.13275 -10.22546 -10.22375 -10.22052
 Alpha  occ. eigenvalues --  -10.19951 -10.17993 -10.17463 -10.17205  -1.09774
 Alpha  occ. eigenvalues --   -1.01476  -0.80729  -0.78627  -0.72049  -0.67331
 Alpha  occ. eigenvalues --   -0.61512  -0.59103  -0.54137  -0.52567  -0.48745
 Alpha  occ. eigenvalues --   -0.45866  -0.44921  -0.42171  -0.41721  -0.40623
 Alpha  occ. eigenvalues --   -0.39137  -0.38579  -0.37290  -0.35394  -0.34520
 Alpha  occ. eigenvalues --   -0.31968  -0.26885  -0.26638  -0.21281
 Alpha virt. eigenvalues --    0.02273   0.07390   0.08157   0.09951   0.12450
 Alpha virt. eigenvalues --    0.13206   0.14958   0.15295   0.16546   0.17351
 Alpha virt. eigenvalues --    0.18113   0.19825   0.20083   0.20560   0.22900

 Mulliken charges:
               1
     1  C   -0.399510
     2  C   -0.150023
     3  C   -0.047780
     4  O   -0.416060
     5  C    0.424220
     6  C   -0.298464
     7  C   -0.169442
     8  C   -0.019766
     9  O   -0.191140
    10  H    0.112226
    11  H    0.133593
    12  H    0.123396
    13  H    0.077052
    14  H    0.122272
    15  H    0.082223
    16  H    0.278817
    17  H    0.100653
    18  H    0.108430
    19  H    0.129305
 Sum of Mulliken charges =   0.00000

 Dipole moment (field-independent basis, Debye):
    X=              0.3588    Y=              0.8415    Z=              1.4574  Tot=              1.7207
 Quadrupole moment (field-independent basis, Debye-Ang):
   XX=            -48.2644   YY=            -56.9776   ZZ=            -49.7122
   XY=              1.9500   XZ=              3.4924   YZ=             -3.5327

  Exact polarizability:  96.263   7.786  62.351   1.785  -5.193  75.242
 Approx polarizability: 131.708  11.771  88.902   1.096 -11.646 128.096

                      1                      2                      3
                      A                      A                      A
 Frequencies --     47.1512                79.1383               141.2897
 Red. masses --      4.5512                 3.5355                 2.3176
 Frc consts  --      0.0060                 0.0130                 0.0273
 IR Inten    --      0.2644                 1.1103                 7.6132

                      4                      5                      6
                      A                      A                      A
 Frequencies --    184.3665               216.1499               234.3853
 Red. masses --      2.1634                 1.2571                 2.6888
 Frc consts  --      0.0433                 0.0346                 0.0870
 IR Inten    --      2.0663                 7.4129                 3.0750

                      7                      8                      9
                      A                      A                      A
 Frequencies --    285.3308               344.7953               470.2623
 Red. masses --      1.3098                 3.8714                 3.1008
 Frc consts  --      0.0628                 0.2712                 0.4040
 IR Inten    --    112.8191                 1.7873                 9.3147

                     10                     11                     12
                      A                      A                      A
 Frequencies --    500.2287               614.2247               639.2059
 Red. masses --      4.2273                 3.6157                 2.8012
 Frc consts  --      0.6232                 0.8037                 0.6743
 IR Inten    --     11.8153                 3.4841                 0.0171

                     13                     14                     15
                      A                      A                      A
 Frequencies --    712.8585               744.1589               802.0865
 Red. masses --      3.1054                 1.4801                 1.2510
 Frc consts  --      0.9298                 0.4829                 0.4742
 IR Inten    --      2.1219                30.5923                20.9579

                     16                     17                     18
                      A                      A                      A
 Frequencies --    843.5795               884.1220               902.6516
 Red. masses --      1.2675                 1.9611                 5.5196
 Frc consts  --      0.5314                 0.9032                 2.6497
 IR Inten    --      0.0382                 1.0106                 3.5745

                     19                     20                     21
                      A                      A                      A
 Frequencies --    940.7032               944.8928              1011.3799
 Red. masses --      1.8839                 2.3325                 1.7924
 Frc consts  --      0.9822                 1.2270                 1.0802
 IR Inten    --     12.0331                12.7478                18.7720

                     22                     23                     24
                      A                      A                      A
 Frequencies --   1037.0912              1077.7110              1085.5618
 Red. masses --      1.6155                 2.4076                 1.9564
 Frc consts  --      1.0238                 1.6475                 1.3583
 IR Inten    --     28.6802                 9.5282                68.1846

                     25                     26                     27
                      A                      A                      A
 Frequencies --   1110.6274              1113.4704              1185.9259
 Red. masses --      2.3483                 2.4962                 1.9457
 Frc consts  --      1.7066                 1.8234                 1.6122
 IR Inten    --      4.7973                16.4720                16.4324

                     28                     29                     30
                      A                      A                      A
 Frequencies --   1206.4801              1242.7480              1259.5935
 Red. masses --      1.5009                 1.8670                 2.5513
 Frc consts  --      1.2872                 1.6989                 2.3849
 IR Inten    --      8.4722                 3.7324                 5.4388

                     31                     32                     33
                      A                      A                      A
 Frequencies --   1310.6867              1358.7197              1385.4273
 Red. masses --      1.2270                 1.4702                 1.3092
 Frc consts  --      1.2419                 1.5992                 1.4805
 IR Inten    --      1.2595                 8.8611                 8.6893

                     34                     35                     36
                      A                      A                      A
 Frequencies --   1398.4908              1414.4978              1426.4104
 Red. masses --      1.2354                 1.7736                 1.5347
 Frc consts  --      1.4235                 2.0907                 1.8397
 IR Inten    --      2.8257                17.5931                23.1473

                     37                     38                     39
                      A                      A                      A
 Frequencies --   1492.0207              1499.8176              1504.9391
 Red. masses --      1.0489                 1.0634                 1.0901
 Frc consts  --      1.3758                 1.4094                 1.4547
 IR Inten    --      4.7678                 2.6469                 2.1333

                     40                     41                     42
                      A                      A                      A
 Frequencies --   1543.6975              1637.7755              2974.2474
 Red. masses --      4.4035                 6.2067                 1.0707
 Frc consts  --      6.1826                 9.8089                 5.5803
 IR Inten    --     13.9205                 6.3433                73.8937

                     43                     44                     45
                      A                      A                      A
 Frequencies --   3013.2352              3039.2271              3083.0207
 Red. masses --      1.0821                 1.0349                 1.0925
 Frc consts  --      5.7886                 5.6324                 6.1185
 IR Inten    --     18.2726                28.3135                18.7717

                     46                     47                     48
                      A                      A                      A
 Frequencies --   3110.0249              3119.9644              3248.3092
 Red. masses --      1.1012                 1.1022                 1.0911
 Frc consts  --      6.2755                 6.3211                 6.7832
 IR Inten    --     31.5593                19.8384                 5.0188

                     49                     50                     51
                      A                      A                      A
 Frequencies --   3260.3125              3286.0656              3813.1412
 Red. masses --      1.0952                 1.1061                 1.0661
 Frc consts  --      6.8590                 7.0374                 9.1327
 IR Inten    --      1.4727                 1.4384                14.1429

 - Thermochemistry -
 -------------------
 Temperature   298.150 Kelvin.  Pressure   1.00000 Atm.
 Atom     1 has atomic number  6 and mass  12.00000

 Molecular mass:   126.06808 amu.
 Principal axes and moments of inertia in atomic units:
                           1         2         3
     Eigenvalues --   689.665221483.986221724.73809
           X            0.99937   0.03542   0.00048
           Y           -0.03540   0.99912  -0.02270
           Z           -0.00128   0.02267   0.99974
 This molecule is an asymmetric top.
 Rotational symmetry number  1.
 Warning -- assumption of classical behavior for rotation
           may cause significant error
 Rotational temperatures (Kelvin)      0.12559     0.05837     0.05022
 Rotational constants (GHZ):           2.61684     1.21614     1.04639
 Zero-point vibrational energy     417390.3 (Joules/Mol)
                                   99.75867 (Kcal/Mol)
 Warning -- explicit consideration of  11 degrees of freedom as
           vibrations may cause significant error
 Vibrational temperatures:     67.84   113.86   203.28   265.26   310.99
          (Kelvin)            337.23   410.53   496.08   676.60   719.72
                              883.73   919.67  1025.64  1070.68  1154.02
                             1213.72  1272.05  1298.71  1353.46  1359.49
                             1455.15  1492.14  1550.58  1561.88  1597.94
                             1602.03  1706.28  1735.85  1788.04  1812.27
                             1885.78  1954.89  1993.32  2012.11  2035.14
                             2052.28  2146.68  2157.90  2165.27  2221.03
                             2356.39  4279.27  4335.37  4372.76  4435.77
                             4474.63  4488.93  4673.59  4690.86  4727.91
                             5486.25

 Zero-point correction=                           0.158976 (Hartree/Particle)
 Thermal correction to Energy=                    0.168133
 Thermal correction to Enthalpy=                  0.169077
 Thermal correction to Gibbs Free Energy=         0.124314
 Sum of electronic and zero-point Energies=           -423.053586
 Sum of electronic and thermal Energies=              -423.044429
 Sum of electronic and thermal Enthalpies=            -423.043485
 Sum of electronic and thermal Free Energies=         -423.088248

                     E (Thermal)             CV                S
                      KCal/Mol        Cal/Mol-Kelvin    Cal/Mol-Kelvin
 Total                  105.505             33.387             94.212
 Electronic               0.000              0.000              0.000
 Translational            0.889              2.981             40.409
 Rotational               0.889              2.981             28.958
 Vibrational            103.727             27.425             24.846
 Vibration     1          0.595              1.979              4.933
 Vibration     2          0.600              1.963              3.912
 Vibration     3          0.615              1.912              2.786
 Vibration     4          0.631              1.861              2.284
 Vibration     5          0.645              1.816              1.991
 Vibration     6          0.654              1.788              1.845
 Vibration     7          0.683              1.701              1.502
 Vibration     8          0.723              1.586              1.190
 Vibration     9          0.827              1.316              0.737
 Vibration    10          0.856              1.250              0.658
 Vibration    11          0.974              1.002              0.426

 Normal termination of Gaussian 09 at Mon Jan 27 10:56:00 2020.
