 Gaussian 09, Revision D.01,
 Gaussian 09:  ES64L-G09RevD.01 24-Apr-2013

 -----------------------------
 # b3lyp 6-31G(2df,p) opt Freq
 -----------------------------

 -----
 titel
 -----
 Symbolic Z-matrix:
 Charge =  0 Multiplicity = 1

 SCF Done:  E(RB3LYP) =  -423.166413500     A.U. after   14 cycles
 Optimization completed.
    -- Stationary point found.
 Normal termination of Gaussian 09 at Mon Jan 27 12:53:26 2020.

 ----------------------------------------------------------------------
 #N Geom=AllCheck Guess=TCheck SCRF=Check GenChk RB3LYP/6-31G(2df,p) Fr
 eq
 ----------------------------------------------------------------------

 Structure from the checkpoint file:  "/scratch/puck/g09_8f486a64-d161-478e-8bad-f48e6c8dfaf5/Gau-50497.chk"
 -----
 titel
 -----
 Charge =  0 Multiplicity = 1

                         Standard orientation:
 ---------------------------------------------------------------------
 Center     Atomic      Atomic             Coordinates (Angstroms)
 Number     Number       Type             X           Y           Z
 ---------------------------------------------------------------------
      1          6           0        1.643455    0.670554    0.454757
      2          8           0        1.967392   -0.486078   -0.265056
      3          6           0        0.851464   -1.259580   -0.699883
      4          6           0       -0.068388   -1.713244    0.404118
      5          6           0       -1.337612   -1.314489    0.550966
      6          6           0       -2.024251   -0.308900   -0.277979
      7          6           0       -1.671915    0.974757   -0.411075
      8          6           0       -0.560253    1.662900    0.349388
      9          8           0        0.744047    1.513642   -0.221454
     10          1           0        1.234547    0.418344    1.446584
     11          1           0        2.596701    1.197251    0.571403
     12          1           0        0.285041   -0.703277   -1.452838
     13          1           0        1.299324   -2.134854   -1.182569
     14          1           0        0.331542   -2.457959    1.089414
     15          1           0       -1.948568   -1.798071    1.313920
     16          1           0       -2.914705   -0.656462   -0.802645
     17          1           0       -2.258714    1.603160   -1.076652
     18          1           0       -0.764118    2.738899    0.378609
     19          1           0       -0.547553    1.300464    1.385094
 ---------------------------------------------------------------------

 SCF Done:  E(RB3LYP) =  -423.166413500     A.U. after    1 cycles

 The electronic state is 1-A.
 Alpha  occ. eigenvalues --  -19.13960 -19.13683 -10.26572 -10.23331 -10.22433
 Alpha  occ. eigenvalues --  -10.19776 -10.19677 -10.19153 -10.18994  -1.05710
 Alpha  occ. eigenvalues --   -1.00034  -0.82234  -0.76301  -0.73168  -0.66370
 Alpha  occ. eigenvalues --   -0.63481  -0.57380  -0.52657  -0.51011  -0.50658
 Alpha  occ. eigenvalues --   -0.47758  -0.46638  -0.45136  -0.43985  -0.40478
 Alpha  occ. eigenvalues --   -0.39548  -0.37141  -0.35352  -0.32326  -0.31301
 Alpha  occ. eigenvalues --   -0.28702  -0.27334  -0.26238  -0.23974
 Alpha virt. eigenvalues --   -0.02382   0.02658   0.09775   0.11319   0.12220
 Alpha virt. eigenvalues --    0.14585   0.15364   0.15928   0.16425   0.17007
 Alpha virt. eigenvalues --    0.17689   0.19085   0.19363   0.20146   0.20978

 Mulliken charges:
               1
     1  C    0.027755
     2  O   -0.239053
     3  C   -0.115443
     4  C   -0.086179
     5  C   -0.084625
     6  C   -0.091187
     7  C   -0.054106
     8  C   -0.129451
     9  O   -0.244081
    10  H    0.077766
    11  H    0.106636
    12  H    0.115414
    13  H    0.111093
    14  H    0.095790
    15  H    0.100198
    16  H    0.100845
    17  H    0.096067
    18  H    0.105687
    19  H    0.106874
 Sum of Mulliken charges =   0.00000

 Dipole moment (field-independent basis, Debye):
    X=             -1.9101    Y=             -0.4852    Z=              1.1047  Tot=              2.2593
 Quadrupole moment (field-independent basis, Debye-Ang):
   XX=            -53.9563   YY=            -51.2428   ZZ=            -52.5604
   XY=             -0.1952   XZ=              2.1813   YZ=              0.8208

  Exact polarizability:  89.566  -2.872  87.287   2.500  -3.346  60.641
 Approx polarizability: 134.511  -5.817 132.107   0.470  -7.910  93.367

                      1                      2                      3
                      A                      A                      A
 Frequencies --    119.7158               150.4423               193.0036
 Red. masses --      2.8118                 3.8255                 3.6653
 Frc consts  --      0.0237                 0.0510                 0.0804
 IR Inten    --      1.0735                 4.0743                 0.8776

                      4                      5                      6
                      A                      A                      A
 Frequencies --    235.4293               300.7807               337.3741
 Red. masses --      3.7294                 2.8460                 2.7263
 Frc consts  --      0.1218                 0.1517                 0.1828
 IR Inten    --      0.2308                 4.6416                 2.1047

                      7                      8                      9
                      A                      A                      A
 Frequencies --    420.9472               460.5493               494.6326
 Red. masses --      2.6332                 2.6525                 2.3376
 Frc consts  --      0.2749                 0.3315                 0.3370
 IR Inten    --      2.2398                 1.7341                 7.6912

                     10                     11                     12
                      A                      A                      A
 Frequencies --    556.1482               595.7294               714.0423
 Red. masses --      3.7972                 3.3116                 1.8751
 Frc consts  --      0.6920                 0.6924                 0.5633
 IR Inten    --      5.3303                 3.7532                21.9139

                     13                     14                     15
                      A                      A                      A
 Frequencies --    769.5192               786.8210               904.0653
 Red. masses --      1.9053                 2.0937                 3.3120
 Frc consts  --      0.6647                 0.7637                 1.5949
 IR Inten    --     10.3463                16.0784                15.3990

                     16                     17                     18
                      A                      A                      A
 Frequencies --    931.8087               938.2948               982.2950
 Red. masses --      3.6100                 3.4883                 2.0605
 Frc consts  --      1.8468                 1.8094                 1.1714
 IR Inten    --      9.4414                18.3799                 3.5921

                     19                     20                     21
                      A                      A                      A
 Frequencies --    992.5848              1003.6251              1017.3565
 Red. masses --      1.9977                 1.5457                 1.2927
 Frc consts  --      1.1596                 0.9173                 0.7883
 IR Inten    --      7.6968                 5.2371                 0.6820

                     22                     23                     24
                      A                      A                      A
 Frequencies --   1043.3015              1075.7783              1101.3517
 Red. masses --      3.3836                 2.9982                 2.4784
 Frc consts  --      2.1700                 2.0443                 1.7712
 IR Inten    --    109.4834                69.9169                21.5080

                     25                     26                     27
                      A                      A                      A
 Frequencies --   1143.9414              1181.6043              1241.2771
 Red. masses --      2.8452                 2.4682                 1.1721
 Frc consts  --      2.1936                 2.0303                 1.0640
 IR Inten    --     82.0933                87.2426                 1.3275

                     28                     29                     30
                      A                      A                      A
 Frequencies --   1256.0033              1294.1379              1310.2988
 Red. masses --      1.1689                 1.0840                 1.1342
 Frc consts  --      1.0865                 1.0696                 1.1473
 IR Inten    --      4.6556                11.5199                 6.8170

                     31                     32                     33
                      A                      A                      A
 Frequencies --   1330.6940              1379.4549              1398.6386
 Red. masses --      1.1075                 1.2536                 1.2154
 Frc consts  --      1.1555                 1.4055                 1.4008
 IR Inten    --      3.2108                 6.6194                 9.6462

                     34                     35                     36
                      A                      A                      A
 Frequencies --   1415.5829              1442.6304              1457.7833
 Red. masses --      1.2837                 1.5512                 1.1751
 Frc consts  --      1.5156                 1.9021                 1.4713
 IR Inten    --      0.3340                 6.6254                 6.6518

                     37                     38                     39
                      A                      A                      A
 Frequencies --   1488.1460              1497.9275              1513.3775
 Red. masses --      1.0968                 1.0957                 1.0915
 Frc consts  --      1.4311                 1.4485                 1.4729
 IR Inten    --      3.7421                 6.6845                 6.1045

                     40                     41                     42
                      A                      A                      A
 Frequencies --   1695.2923              1699.5259              2963.3397
 Red. masses --      6.0753                 8.1603                 1.0667
 Frc consts  --     10.2874                13.8872                 5.5188
 IR Inten    --      1.0719                 3.2587                51.2189

                     43                     44                     45
                      A                      A                      A
 Frequencies --   3016.6018              3045.4503              3063.8082
 Red. masses --      1.0591                 1.0579                 1.1007
 Frc consts  --      5.6785                 5.7808                 6.0878
 IR Inten    --     45.7610                35.4873                31.2059

                     46                     47                     48
                      A                      A                      A
 Frequencies --   3067.7216              3091.0712              3113.4948
 Red. masses --      1.0983                 1.1040                 1.0832
 Frc consts  --      6.0899                 6.2151                 6.1867
 IR Inten    --     53.8526                11.6188                 3.8429

                     49                     50                     51
                      A                      A                      A
 Frequencies --   3121.0610              3154.4558              3160.8355
 Red. masses --      1.0848                 1.0931                 1.0929
 Frc consts  --      6.2262                 6.4084                 6.4334
 IR Inten    --     16.4936                29.4177                22.6374

 - Thermochemistry -
 -------------------
 Temperature   298.150 Kelvin.  Pressure   1.00000 Atm.
 Atom     1 has atomic number  6 and mass  12.00000

 Molecular mass:   126.06808 amu.
 Principal axes and moments of inertia in atomic units:
                           1         2         3
     Eigenvalues --   813.869721005.481331583.47052
           X            0.99968  -0.02193   0.01287
           Y            0.02182   0.99972   0.00865
           Z           -0.01306  -0.00837   0.99988
 This molecule is an asymmetric top.
 Rotational symmetry number  1.
 Warning -- assumption of classical behavior for rotation
           may cause significant error
 Rotational temperatures (Kelvin)      0.10642     0.08614     0.05470
 Rotational constants (GHZ):           2.21748     1.79490     1.13974
 Zero-point vibrational energy     422699.0 (Joules/Mol)
                                  101.02748 (Kcal/Mol)
 Warning -- explicit consideration of  11 degrees of freedom as
           vibrations may cause significant error
 Vibrational temperatures:    172.24   216.45   277.69   338.73   432.76
          (Kelvin)            485.41   605.65   662.63   711.67   800.17
                              857.12  1027.35  1107.17  1132.06  1300.75
                             1340.66  1350.00  1413.30  1428.11  1443.99
                             1463.75  1501.08  1547.80  1584.60  1645.87
                             1700.06  1785.92  1807.11  1861.97  1885.23
                             1914.57  1984.73  2012.33  2036.71  2075.62
                             2097.42  2141.11  2155.18  2177.41  2439.14
                             2445.24  4263.58  4340.21  4381.72  4408.13
                             4413.76  4447.36  4479.62  4490.51  4538.55
                             4547.73

 Zero-point correction=                           0.160998 (Hartree/Particle)
 Thermal correction to Energy=                    0.168973
 Thermal correction to Enthalpy=                  0.169918
 Thermal correction to Gibbs Free Energy=         0.128630
 Sum of electronic and zero-point Energies=           -423.005416
 Sum of electronic and thermal Energies=              -422.997440
 Sum of electronic and thermal Enthalpies=            -422.996496
 Sum of electronic and thermal Free Energies=         -423.037784

                     E (Thermal)             CV                S
                      KCal/Mol        Cal/Mol-Kelvin    Cal/Mol-Kelvin
 Total                  106.032             30.942             86.897
 Electronic               0.000              0.000              0.000
 Translational            0.889              2.981             40.409
 Rotational               0.889              2.981             28.651
 Vibrational            104.255             24.981             17.837
 Vibration     1          0.609              1.933              3.105
 Vibration     2          0.618              1.902              2.667
 Vibration     3          0.635              1.850              2.199
 Vibration     4          0.655              1.787              1.837
 Vibration     5          0.693              1.672              1.413
 Vibration     6          0.718              1.601              1.225
 Vibration     7          0.783              1.425              0.889
 Vibration     8          0.818              1.338              0.765
 Vibration     9          0.850              1.262              0.672
 Vibration    10          0.912              1.126              0.532
 Vibration    11          0.953              1.041              0.457

 Normal termination of Gaussian 09 at Mon Jan 27 13:34:15 2020.
