 Gaussian 09, Revision D.01,
 Gaussian 09:  ES64L-G09RevD.01 24-Apr-2013

 -----------------------------
 # b3lyp 6-31G(2df,p) opt Freq
 -----------------------------

 -----
 titel
 -----
 Symbolic Z-matrix:
 Charge =  0 Multiplicity = 1

 SCF Done:  E(RB3LYP) =  -423.128318239     A.U. after   13 cycles
 Optimization completed.
    -- Stationary point found.
 Normal termination of Gaussian 09 at Mon Jan 27 12:15:02 2020.

 ----------------------------------------------------------------------
 #N Geom=AllCheck Guess=TCheck SCRF=Check GenChk RB3LYP/6-31G(2df,p) Fr
 eq
 ----------------------------------------------------------------------

 Structure from the checkpoint file:  "/scratch/puck/g09_01b6e85a-a220-4f6d-9f40-4ff55b63e486/Gau-45187.chk"
 -----
 titel
 -----
 Charge =  0 Multiplicity = 1

                         Standard orientation:
 ---------------------------------------------------------------------
 Center     Atomic      Atomic             Coordinates (Angstroms)
 Number     Number       Type             X           Y           Z
 ---------------------------------------------------------------------
      1          6           0        2.419421    0.075938   -0.410851
      2          6           0        1.651168    1.204646    0.348464
      3          6           0        0.657832    0.151686    0.919402
      4          6           0        1.391622   -0.951529    0.106878
      5          8           0        0.251679   -1.091353   -0.773100
      6          6           0       -0.533440   -0.174173    0.006250
      7          6           0       -1.400697    0.869676   -0.718074
      8          8           0       -2.576998    0.444422    0.000691
      9          6           0       -1.876887   -0.681105    0.569177
     10          1           0        2.460512    0.151536   -1.499367
     11          1           0        3.429562   -0.090370   -0.026937
     12          1           0        2.248070    1.695364    1.119667
     13          1           0        1.199717    1.981853   -0.273600
     14          1           0        0.485726    0.133642    1.994928
     15          1           0        1.736254   -1.914694    0.490836
     16          1           0       -1.167039    1.926696   -0.542551
     17          1           0       -1.478145    0.684357   -1.797398
     18          1           0       -1.979640   -0.727160    1.660227
     19          1           0       -2.186586   -1.636604    0.125984
 ---------------------------------------------------------------------

 SCF Done:  E(RB3LYP) =  -423.128318239     A.U. after    1 cycles

 The electronic state is 1-A.
 Alpha  occ. eigenvalues --  -19.13992 -19.13192 -10.24366 -10.23699 -10.22632
 Alpha  occ. eigenvalues --  -10.22526 -10.19601 -10.19237 -10.18633  -1.05505
 Alpha  occ. eigenvalues --   -1.02899  -0.82817  -0.74108  -0.69341  -0.66605
 Alpha  occ. eigenvalues --   -0.64788  -0.57001  -0.52146  -0.51366  -0.50716
 Alpha  occ. eigenvalues --   -0.47688  -0.45317  -0.44707  -0.41815  -0.40347
 Alpha  occ. eigenvalues --   -0.38531  -0.36980  -0.34508  -0.34022  -0.33221
 Alpha  occ. eigenvalues --   -0.29830  -0.28312  -0.24994  -0.24522
 Alpha virt. eigenvalues --    0.06434   0.07819   0.08496   0.10402   0.10796
 Alpha virt. eigenvalues --    0.12269   0.14470   0.14597   0.15746   0.16783
 Alpha virt. eigenvalues --    0.17136   0.19265   0.19864   0.20415   0.21462

 Mulliken charges:
               1
     1  C   -0.231710
     2  C   -0.239647
     3  C   -0.164418
     4  C    0.116628
     5  O   -0.326620
     6  C    0.375134
     7  C   -0.133420
     8  O   -0.274990
     9  C   -0.135213
    10  H    0.113293
    11  H    0.104093
    12  H    0.108515
    13  H    0.106921
    14  H    0.079616
    15  H    0.078792
    16  H    0.103266
    17  H    0.110335
    18  H    0.101021
    19  H    0.108406
 Sum of Mulliken charges =   0.00000

 Dipole moment (field-independent basis, Debye):
    X=              2.2198    Y=              0.3332    Z=              1.1739  Tot=              2.5331
 Quadrupole moment (field-independent basis, Debye-Ang):
   XX=            -57.2618   YY=            -52.8992   ZZ=            -52.1623
   XY=              1.8330   XZ=              0.7721   YZ=             -2.5231

  Exact polarizability:  84.480   1.561  71.445  -0.939  -2.794  67.173
 Approx polarizability: 109.539  -0.484 105.362  -1.134  -1.687 102.150

                      1                      2                      3
                      A                      A                      A
 Frequencies --     78.5589                89.8346               192.8171
 Red. masses --      2.7608                 4.0121                 2.4059
 Frc consts  --      0.0100                 0.0191                 0.0527
 IR Inten    --      0.0762                 4.7985                 0.0857

                      4                      5                      6
                      A                      A                      A
 Frequencies --    255.5426               344.7650               383.3777
 Red. masses --      2.0487                 2.3881                 3.7548
 Frc consts  --      0.0788                 0.1672                 0.3252
 IR Inten    --      1.0024                 2.0736                 2.7331

                      7                      8                      9
                      A                      A                      A
 Frequencies --    451.4991               509.4720               722.6641
 Red. masses --      3.2882                 3.8599                 1.8667
 Frc consts  --      0.3949                 0.5903                 0.5744
 IR Inten    --      2.9975                 1.6336                 0.5413

                     10                     11                     12
                      A                      A                      A
 Frequencies --    747.2974               782.9849               835.6263
 Red. masses --      1.8381                 2.6292                 1.6731
 Frc consts  --      0.6048                 0.9497                 0.6883
 IR Inten    --      0.8160                 8.6944                 3.6925

                     13                     14                     15
                      A                      A                      A
 Frequencies --    850.7307               902.3010               920.5357
 Red. masses --      3.1195                 2.5825                 1.4969
 Frc consts  --      1.3302                 1.2388                 0.7474
 IR Inten    --      0.6888                44.0285                 1.3285

                     16                     17                     18
                      A                      A                      A
 Frequencies --    931.6857               952.0010               970.9921
 Red. masses --      2.5260                 2.5232                 2.3321
 Frc consts  --      1.2919                 1.3473                 1.2955
 IR Inten    --      6.3177                 1.1266                16.0095

                     19                     20                     21
                      A                      A                      A
 Frequencies --    994.2913              1008.6761              1028.7662
 Red. masses --      4.6291                 2.0725                 9.6595
 Frc consts  --      2.6963                 1.2424                 6.0234
 IR Inten    --      0.3471                 2.9918                75.0093

                     22                     23                     24
                      A                      A                      A
 Frequencies --   1045.2543              1098.8542              1147.3464
 Red. masses --      3.9487                 2.1783                 1.3723
 Frc consts  --      2.5418                 1.5497                 1.0643
 IR Inten    --     69.7223                13.4332                 0.3260

                     25                     26                     27
                      A                      A                      A
 Frequencies --   1150.7615              1155.3509              1176.9038
 Red. masses --      1.2850                 1.8982                 1.7958
 Frc consts  --      1.0026                 1.4928                 1.4655
 IR Inten    --      4.0482                 8.7268                15.9765

                     28                     29                     30
                      A                      A                      A
 Frequencies --   1181.3039              1196.7362              1232.6474
 Red. masses --      2.1351                 1.4262                 1.3206
 Frc consts  --      1.7555                 1.2034                 1.1822
 IR Inten    --     58.8768                 3.6522                 3.6832

                     31                     32                     33
                      A                      A                      A
 Frequencies --   1248.4209              1272.5674              1285.1707
 Red. masses --      1.5148                 1.6027                 1.6693
 Frc consts  --      1.3910                 1.5292                 1.6245
 IR Inten    --      2.2271                 4.8595                 3.0436

                     34                     35                     36
                      A                      A                      A
 Frequencies --   1296.2484              1323.6279              1333.7505
 Red. masses --      1.3442                 1.6988                 1.4592
 Frc consts  --      1.3307                 1.7536                 1.5293
 IR Inten    --      3.0409                 9.1728                 2.0814

                     37                     38                     39
                      A                      A                      A
 Frequencies --   1381.8922              1464.0863              1489.2560
 Red. masses --      1.9676                 1.0900                 1.1067
 Frc consts  --      2.2138                 1.3766                 1.4462
 IR Inten    --      6.5266                 0.9742                 3.5671

                     40                     41                     42
                      A                      A                      A
 Frequencies --   1493.7401              1520.7922              3004.8417
 Red. masses --      1.0778                 1.1134                 1.0522
 Frc consts  --      1.4169                 1.5172                 5.5977
 IR Inten    --      0.0518                 2.0621                90.3501

                     43                     44                     45
                      A                      A                      A
 Frequencies --   3017.2536              3060.3570              3061.4625
 Red. masses --      1.0577                 1.0713                 1.1106
 Frc consts  --      5.6731                 5.9118                 6.1328
 IR Inten    --      3.6115                12.7077                31.0835

                     46                     47                     48
                      A                      A                      A
 Frequencies --   3061.7948              3066.7611              3079.9449
 Red. masses --      1.0951                 1.0645                 1.0864
 Frc consts  --      6.0486                 5.8985                 6.0718
 IR Inten    --     29.2655                56.8372                57.3427

                     49                     50                     51
                      A                      A                      A
 Frequencies --   3107.7128              3118.5474              3129.0589
 Red. masses --      1.1045                 1.0941                 1.1054
 Frc consts  --      6.2849                 6.2691                 6.3767
 IR Inten    --      4.5993                12.6801                45.1835

 - Thermochemistry -
 -------------------
 Temperature   298.150 Kelvin.  Pressure   1.00000 Atm.
 Atom     1 has atomic number  6 and mass  12.00000

 Molecular mass:   126.06808 amu.
 Principal axes and moments of inertia in atomic units:
                           1         2         3
     Eigenvalues --   469.072121411.288581542.43154
           X            0.99984   0.01808  -0.00138
           Y           -0.01813   0.99605  -0.08689
           Z           -0.00020   0.08690   0.99622
 This molecule is an asymmetric top.
 Rotational symmetry number  1.
 Warning -- assumption of classical behavior for rotation
           may cause significant error
 Rotational temperatures (Kelvin)      0.18465     0.06137     0.05615
 Rotational constants (GHZ):           3.84747     1.27879     1.17006
 Zero-point vibrational energy     419631.2 (Joules/Mol)
                                  100.29427 (Kcal/Mol)
 Warning -- explicit consideration of   8 degrees of freedom as
           vibrations may cause significant error
 Vibrational temperatures:    113.03   129.25   277.42   367.67   496.04
          (Kelvin)            551.59   649.61   733.02  1039.75  1075.19
                             1126.54  1202.28  1224.01  1298.21  1324.44
                             1340.49  1369.72  1397.04  1430.56  1451.26
                             1480.16  1503.89  1581.00  1650.77  1655.69
                             1662.29  1693.30  1699.63  1721.83  1773.50
                             1796.20  1830.94  1849.07  1865.01  1904.40
                             1918.97  1988.23  2106.49  2142.70  2149.16
                             2188.08  4323.29  4341.15  4403.17  4404.76
                             4405.23  4412.38  4431.35  4471.30  4486.89
                             4502.01

 Zero-point correction=                           0.159829 (Hartree/Particle)
 Thermal correction to Energy=                    0.167458
 Thermal correction to Enthalpy=                  0.168402
 Thermal correction to Gibbs Free Energy=         0.127241
 Sum of electronic and zero-point Energies=           -422.968489
 Sum of electronic and thermal Energies=              -422.960860
 Sum of electronic and thermal Enthalpies=            -422.959916
 Sum of electronic and thermal Free Energies=         -423.001077

                     E (Thermal)             CV                S
                      KCal/Mol        Cal/Mol-Kelvin    Cal/Mol-Kelvin
 Total                  105.082             29.396             86.631
 Electronic               0.000              0.000              0.000
 Translational            0.889              2.981             40.409
 Rotational               0.889              2.981             28.414
 Vibrational            103.304             23.434             17.808
 Vibration     1          0.600              1.964              3.927
 Vibration     2          0.602              1.956              3.664
 Vibration     3          0.635              1.850              2.201
 Vibration     4          0.666              1.753              1.692
 Vibration     5          0.723              1.586              1.190
 Vibration     6          0.753              1.506              1.026
 Vibration     7          0.810              1.358              0.791
 Vibration     8          0.865              1.229              0.635

 Optimization completed.
    -- Stationary point found.
 Normal termination of Gaussian 09 at Mon Jan 27 12:59:21 2020.
