 Gaussian 09, Revision D.01,
 Gaussian 09:  ES64L-G09RevD.01 24-Apr-2013

 -----------------------------
 # b3lyp 6-31G(2df,p) opt Freq
 -----------------------------

 -----
 titel
 -----
 Symbolic Z-matrix:
 Charge =  0 Multiplicity = 1

 SCF Done:  E(RB3LYP) =  -423.134880800     A.U. after   12 cycles
 Optimization completed.
    -- Stationary point found.
 Normal termination of Gaussian 09 at Mon Jan 27 17:56:16 2020.

 ----------------------------------------------------------------------
 #N Geom=AllCheck Guess=TCheck SCRF=Check GenChk RB3LYP/6-31G(2df,p) Fr
 eq
 ----------------------------------------------------------------------

 Structure from the checkpoint file:  "/scratch/puck/g09_ff3af70a-a666-4eed-a8ce-596646d620aa/Gau-180667.chk"
 -----
 titel
 -----
 Charge =  0 Multiplicity = 1

                         Standard orientation:
 ---------------------------------------------------------------------
 Center     Atomic      Atomic             Coordinates (Angstroms)
 Number     Number       Type             X           Y           Z
 ---------------------------------------------------------------------
      1          6           0        0.445149    2.202874   -0.121594
      2          6           0        0.191502    0.750185    0.103683
      3          6           0        0.470880   -0.195133    1.261316
      4          6           0       -0.974005   -0.689744    1.316302
      5          6           0       -1.062582   -0.223822   -0.160858
      6          8           0       -2.260959    0.089038   -0.778394
      7          6           0       -0.119253   -1.175301   -0.933257
      8          6           0        1.002018   -0.482754   -0.161235
      9          8           0        2.352315   -0.492809   -0.447853
     10          1           0        1.488133    2.447344    0.105800
     11          1           0        0.260703    2.481354   -1.165403
     12          1           0       -0.191083    2.835042    0.509045
     13          1           0        1.160256   -0.028576    2.079704
     14          1           0       -1.180142   -1.745956    1.526526
     15          1           0       -1.582261   -0.058324    1.975503
     16          1           0       -2.780741    0.632747   -0.176628
     17          1           0       -0.281767   -2.253191   -0.813288
     18          1           0       -0.086238   -0.910895   -1.993524
     19          1           0        2.740038   -1.287207   -0.063898
 ---------------------------------------------------------------------

 SCF Done:  E(RB3LYP) =  -423.134880800     A.U. after    1 cycles

 The electronic state is 1-A.
 Alpha  occ. eigenvalues --  -19.14716 -19.14572 -10.24042 -10.23283 -10.18476
 Alpha  occ. eigenvalues --  -10.18340 -10.18199 -10.17942 -10.17478  -1.03571
 Alpha  occ. eigenvalues --   -1.02927  -0.91450  -0.73410  -0.71820  -0.68695
 Alpha  occ. eigenvalues --   -0.60179  -0.56409  -0.55187  -0.49902  -0.46927
 Alpha  occ. eigenvalues --   -0.45407  -0.43339  -0.42194  -0.41289  -0.39739
 Alpha  occ. eigenvalues --   -0.39349  -0.37088  -0.37033  -0.35737  -0.31544
 Alpha  occ. eigenvalues --   -0.28767  -0.26505  -0.23576  -0.23472
 Alpha virt. eigenvalues --    0.06797   0.08460   0.11956   0.12122   0.12861
 Alpha virt. eigenvalues --    0.13900   0.14019   0.15236   0.16444   0.17037
 Alpha virt. eigenvalues --    0.17807   0.20104   0.20363   0.21401   0.22647

 Mulliken charges:
               1
     1  C   -0.533442
     2  C    0.208801
     3  C   -0.194480
     4  C   -0.303434
     5  C    0.351208
     6  O   -0.471202
     7  C   -0.339052
     8  C    0.356159
     9  O   -0.467004
    10  H    0.134209
    11  H    0.127912
    12  H    0.112455
    13  H    0.084465
    14  H    0.089896
    15  H    0.086209
    16  H    0.280220
    17  H    0.082932
    18  H    0.109632
    19  H    0.284516
 Sum of Mulliken charges =   0.00000

 Dipole moment (field-independent basis, Debye):
    X=             -0.1438    Y=             -0.1187    Z=              1.7911  Tot=              1.8008
 Quadrupole moment (field-independent basis, Debye-Ang):
   XX=            -51.8993   YY=            -49.7556   ZZ=            -54.6165
   XY=             -5.2972   XZ=             -0.9398   YZ=             -0.0557

  Exact polarizability:  78.699  -1.139  77.455  -1.345  -0.180  70.825
 Approx polarizability: 113.913  -4.047 110.402  -0.668  -0.919 107.529

                      1                      2                      3
                      A                      A                      A
 Frequencies --    159.9585               179.8828               184.0041
 Red. masses --      2.9068                 1.8291                 1.3353
 Frc consts  --      0.0438                 0.0349                 0.0266
 IR Inten    --      1.1712                 0.6180                 0.8023

                      4                      5                      6
                      A                      A                      A
 Frequencies --    222.6157               284.2790               310.0733
 Red. masses --      2.8247                 1.1619                 1.5291
 Frc consts  --      0.0825                 0.0553                 0.0866
 IR Inten    --     10.9486                72.0437                52.6979

                      7                      8                      9
                      A                      A                      A
 Frequencies --    336.4365               373.6485               416.1609
 Red. masses --      2.4536                 2.0762                 3.1002
 Frc consts  --      0.1636                 0.1708                 0.3163
 IR Inten    --     46.5412                 6.5640                25.3884

                     10                     11                     12
                      A                      A                      A
 Frequencies --    472.3174               549.3048               576.4273
 Red. masses --      2.3680                 2.8759                 5.2988
 Frc consts  --      0.3112                 0.5113                 1.0373
 IR Inten    --      1.2645                 2.8586                 3.9057

                     13                     14                     15
                      A                      A                      A
 Frequencies --    633.8014               680.9506               724.6786
 Red. masses --      4.0066                 3.6401                 3.6370
 Frc consts  --      0.9483                 0.9945                 1.1253
 IR Inten    --     13.1967                 2.2629                 1.4896

                     16                     17                     18
                      A                      A                      A
 Frequencies --    761.9411               871.5287               911.2315
 Red. masses --      2.7532                 3.1880                 2.2763
 Frc consts  --      0.9417                 1.4267                 1.1136
 IR Inten    --      0.5567                 0.3015                 4.9222

                     19                     20                     21
                      A                      A                      A
 Frequencies --    917.6330               939.8197               969.9359
 Red. masses --      1.3507                 2.3190                 1.5750
 Frc consts  --      0.6701                 1.2068                 0.8730
 IR Inten    --      2.6067                 5.2602                 4.3745

                     22                     23                     24
                      A                      A                      A
 Frequencies --   1044.9793              1062.1230              1093.6306
 Red. masses --      1.7434                 1.6353                 2.2500
 Frc consts  --      1.1216                 1.0869                 1.5855
 IR Inten    --      1.4121                56.0962                26.3425

                     25                     26                     27
                      A                      A                      A
 Frequencies --   1104.4288              1117.4285              1130.3867
 Red. masses --      1.3210                 1.8616                 1.6876
 Frc consts  --      0.9493                 1.3696                 1.2705
 IR Inten    --     42.3944                 1.2793                 0.2348

                     28                     29                     30
                      A                      A                      A
 Frequencies --   1181.4061              1189.7640              1225.3184
 Red. masses --      2.2437                 1.7534                 1.7446
 Frc consts  --      1.8450                 1.4624                 1.5432
 IR Inten    --      8.1616                19.1051                 7.6043

                     31                     32                     33
                      A                      A                      A
 Frequencies --   1242.3140              1289.3017              1325.0097
 Red. masses --      1.7681                 1.6895                 2.2307
 Frc consts  --      1.6078                 1.6547                 2.3075
 IR Inten    --     35.5925                74.7456               159.9145

                     34                     35                     36
                      A                      A                      A
 Frequencies --   1341.2008              1393.4350              1413.8597
 Red. masses --      3.2728                 1.8791                 1.3805
 Frc consts  --      3.4686                 2.1497                 1.6259
 IR Inten    --     77.4994                 5.0902                 0.7107

                     37                     38                     39
                      A                      A                      A
 Frequencies --   1479.1804              1485.4951              1492.5053
 Red. masses --      1.7696                 1.0541                 1.1881
 Frc consts  --      2.2812                 1.3704                 1.5593
 IR Inten    --      3.3761                 4.5128                 0.8738

                     40                     41                     42
                      A                      A                      A
 Frequencies --   1498.5184              1522.3794              3017.3653
 Red. masses --      1.1916                 1.6484                 1.0544
 Frc consts  --      1.5765                 2.2509                 5.6562
 IR Inten    --     12.6221                 4.7241                60.3281

                     43                     44                     45
                      A                      A                      A
 Frequencies --   3020.6294              3029.5709              3069.9571
 Red. masses --      1.0376                 1.0613                 1.1078
 Frc consts  --      5.5778                 5.7393                 6.1516
 IR Inten    --     51.4211                45.6637                40.0434

                     46                     47                     48
                      A                      A                      A
 Frequencies --   3077.8199              3094.5767              3106.1881
 Red. masses --      1.1005                 1.0999                 1.1022
 Frc consts  --      6.1422                 6.2057                 6.2659
 IR Inten    --     24.5385                14.6068                21.1656

                     49                     50                     51
                      A                      A                      A
 Frequencies --   3194.2062              3788.1661              3804.4101
 Red. masses --      1.0928                 1.0661                 1.0657
 Frc consts  --      6.5695                 9.0138                 9.0879
 IR Inten    --     13.2251                19.6391                18.4636

 - Thermochemistry -
 -------------------
 Temperature   298.150 Kelvin.  Pressure   1.00000 Atm.
 Atom     1 has atomic number  6 and mass  12.00000

 Molecular mass:   126.06808 amu.
 Principal axes and moments of inertia in atomic units:
                           1         2         3
     Eigenvalues --   741.447461132.388061294.66863
           X            0.99985   0.01143  -0.01316
           Y           -0.01155   0.99990  -0.00860
           Z            0.01306   0.00875   0.99988
 This molecule is an asymmetric top.
 Rotational symmetry number  1.
 Warning -- assumption of classical behavior for rotation
           may cause significant error
 Rotational temperatures (Kelvin)      0.11682     0.07649     0.06690
 Rotational constants (GHZ):           2.43408     1.59375     1.39398
 Zero-point vibrational energy     414578.9 (Joules/Mol)
                                   99.08674 (Kcal/Mol)
 Warning -- explicit consideration of  12 degrees of freedom as
           vibrations may cause significant error
 Vibrational temperatures:    230.14   258.81   264.74   320.29   409.01
          (Kelvin)            446.13   484.06   537.60   598.76   679.56
                              790.33   829.35   911.90   979.73  1042.65
                             1096.26  1253.93  1311.06  1320.27  1352.19
                             1395.52  1503.49  1528.16  1573.49  1589.02
                             1607.73  1626.37  1699.78  1711.80  1762.96
                             1787.41  1855.02  1906.39  1929.69  2004.84
                             2034.23  2128.21  2137.29  2147.38  2156.03
                             2190.36  4341.31  4346.01  4358.87  4416.98
                             4428.29  4452.40  4469.11  4595.74  5450.32
                             5473.69

 Zero-point correction=                           0.157905 (Hartree/Particle)
 Thermal correction to Energy=                    0.166529
 Thermal correction to Enthalpy=                  0.167474
 Thermal correction to Gibbs Free Energy=         0.125455
 Sum of electronic and zero-point Energies=           -422.976976
 Sum of electronic and thermal Energies=              -422.968351
 Sum of electronic and thermal Enthalpies=            -422.967407
 Sum of electronic and thermal Free Energies=         -423.009426

                     E (Thermal)             CV                S
                      KCal/Mol        Cal/Mol-Kelvin    Cal/Mol-Kelvin
 Total                  104.499             34.064             88.436
 Electronic               0.000              0.000              0.000
 Translational            0.889              2.981             40.409
 Rotational               0.889              2.981             28.477
 Vibrational            102.721             28.102             19.551
 Vibration     1          0.622              1.891              2.550
 Vibration     2          0.629              1.867              2.330
 Vibration     3          0.631              1.862              2.287
 Vibration     4          0.648              1.807              1.938
 Vibration     5          0.683              1.703              1.508
 Vibration     6          0.699              1.655              1.362
 Vibration     7          0.717              1.603              1.229
 Vibration     8          0.745              1.526              1.065
 Vibration     9          0.779              1.435              0.905
 Vibration    10          0.829              1.311              0.731
 Vibration    11          0.905              1.141              0.546
 Vibration    12          0.933              1.082              0.492

 Normal termination of Gaussian 09 at Mon Jan 27 18:39:02 2020.
