 Gaussian 09, Revision D.01,
 Gaussian 09:  ES64L-G09RevD.01 24-Apr-2013

 -----------------------------
 # b3lyp 6-31G(2df,p) opt Freq
 -----------------------------

 -----
 titel
 -----
 Symbolic Z-matrix:
 Charge =  0 Multiplicity = 1

 SCF Done:  E(RB3LYP) =  -423.173592131     A.U. after   14 cycles
 Optimization completed.
    -- Stationary point found.
 Normal termination of Gaussian 09 at Tue Jan 28 09:45:43 2020.

 ----------------------------------------------------------------------
 #N Geom=AllCheck Guess=TCheck SCRF=Check GenChk RB3LYP/6-31G(2df,p) Fr
 eq
 ----------------------------------------------------------------------

 Structure from the checkpoint file:  "/scratch/puck/g09_26ff14e5-a897-4b67-93a9-44897c694ff5/Gau-96251.chk"
 -----
 titel
 -----
 Charge =  0 Multiplicity = 1

                         Standard orientation:
 ---------------------------------------------------------------------
 Center     Atomic      Atomic             Coordinates (Angstroms)
 Number     Number       Type             X           Y           Z
 ---------------------------------------------------------------------
      1          6           0       -2.611615    0.008582   -0.866370
      2          6           0       -1.831391    0.080023    0.452367
      3          6           0       -0.348097   -0.125446    0.292078
      4          8           0        0.359229   -0.637667    1.438334
      5          6           0        0.351878   -1.412696    0.203774
      6          6           0        1.587404   -1.202514   -0.614930
      7          6           0        1.690824    0.082052   -0.959962
      8          6           0        0.532829    0.916508   -0.428388
      9          8           0        0.949656    1.948204    0.450970
     10          1           0       -3.680078    0.160782   -0.688857
     11          1           0       -2.284999    0.776388   -1.574861
     12          1           0       -2.486388   -0.965956   -1.349532
     13          1           0       -1.990355    1.056384    0.928338
     14          1           0       -2.202267   -0.674791    1.153679
     15          1           0       -0.145918   -2.374918    0.276507
     16          1           0        2.295054   -1.990848   -0.841423
     17          1           0        2.519249    0.539776   -1.488246
     18          1           0       -0.011364    1.418712   -1.235978
     19          1           0        1.284994    1.491117    1.234537
 ---------------------------------------------------------------------

 SCF Done:  E(RB3LYP) =  -423.173592131     A.U. after    1 cycles

 The electronic state is 1-A.
 Alpha  occ. eigenvalues --  -19.15162 -19.13419 -10.23957 -10.23693 -10.23622
 Alpha  occ. eigenvalues --  -10.19349 -10.18968 -10.18937 -10.18297  -1.07122
 Alpha  occ. eigenvalues --   -1.01387  -0.81494  -0.78180  -0.69826  -0.66606
 Alpha  occ. eigenvalues --   -0.63369  -0.57375  -0.55834  -0.51225  -0.48337
 Alpha  occ. eigenvalues --   -0.44868  -0.44740  -0.43219  -0.41992  -0.40453
 Alpha  occ. eigenvalues --   -0.39423  -0.37470  -0.35975  -0.35154  -0.32900
 Alpha  occ. eigenvalues --   -0.31266  -0.28865  -0.25498  -0.24892
 Alpha virt. eigenvalues --   -0.01111   0.08484   0.09768   0.11368   0.12091
 Alpha virt. eigenvalues --    0.12462   0.15301   0.15593   0.15936   0.16701
 Alpha virt. eigenvalues --    0.17584   0.17859   0.20060   0.20928   0.21817

 Mulliken charges:
               1
     1  C   -0.386491
     2  C   -0.293902
     3  C    0.380298
     4  O   -0.319099
     5  C   -0.069683
     6  C   -0.079177
     7  C   -0.124397
     8  C    0.040788
     9  O   -0.435998
    10  H    0.120734
    11  H    0.124430
    12  H    0.118962
    13  H    0.116049
    14  H    0.110458
    15  H    0.098995
    16  H    0.108347
    17  H    0.110435
    18  H    0.090550
    19  H    0.288700
 Sum of Mulliken charges =   0.00000

 Dipole moment (field-independent basis, Debye):
    X=             -0.5965    Y=             -1.4956    Z=             -1.3718  Tot=              2.1153
 Quadrupole moment (field-independent basis, Debye-Ang):
   XX=            -49.8157   YY=            -54.4982   ZZ=            -54.7456
   XY=             -1.4546   XZ=             -1.0883   YZ=              0.5713

  Exact polarizability:  80.083  -2.545  80.043  -4.851  -1.869  64.107
 Approx polarizability: 102.441  -2.743 131.655  -4.855  -6.003 103.348

                      1                      2                      3
                      A                      A                      A
 Frequencies --     74.1367               129.1280               179.1822
 Red. masses --      2.4716                 2.7541                 3.7331
 Frc consts  --      0.0080                 0.0271                 0.0706
 IR Inten    --      0.4355                 2.6184                 1.5039

                      4                      5                      6
                      A                      A                      A
 Frequencies --    198.2345               258.3034               308.1588
 Red. masses --      1.5197                 2.4337                 2.5321
 Frc consts  --      0.0352                 0.0957                 0.1417
 IR Inten    --      0.8291                 2.0088                 2.4707

                      7                      8                      9
                      A                      A                      A
 Frequencies --    384.6543               448.2241               492.8733
 Red. masses --      2.9937                 2.7280                 1.3212
 Frc consts  --      0.2610                 0.3229                 0.1891
 IR Inten    --      0.9355                 0.5714                86.2308

                     10                     11                     12
                      A                      A                      A
 Frequencies --    542.7992               589.3139               605.3290
 Red. masses --      3.3512                 3.5576                 4.7094
 Frc consts  --      0.5817                 0.7280                 1.0167
 IR Inten    --      9.7112                 0.4525                13.1394

                     13                     14                     15
                      A                      A                      A
 Frequencies --    712.4799               765.3587               785.7477
 Red. masses --      5.0040                 1.6668                 1.3568
 Frc consts  --      1.4966                 0.5753                 0.4935
 IR Inten    --      2.6773                 8.8404                11.1203

                     16                     17                     18
                      A                      A                      A
 Frequencies --    836.0069               885.2610               917.6188
 Red. masses --      3.6717                 3.1721                 2.8623
 Frc consts  --      1.5120                 1.4647                 1.4200
 IR Inten    --      8.2411                56.6658                20.7012

                     19                     20                     21
                      A                      A                      A
 Frequencies --    934.7604               959.9431               983.5442
 Red. masses --      1.9712                 1.3594                 2.1241
 Frc consts  --      1.0148                 0.7380                 1.2107
 IR Inten    --      7.2347                 0.6880                 9.8428

                     22                     23                     24
                      A                      A                      A
 Frequencies --   1001.7212              1051.6035              1061.4579
 Red. masses --      2.5024                 1.5649                 2.1436
 Frc consts  --      1.4795                 1.0196                 1.4230
 IR Inten    --     15.1311                19.6757                 1.2282

                     25                     26                     27
                      A                      A                      A
 Frequencies --   1083.6708              1113.1825              1142.7109
 Red. masses --      3.0873                 1.6629                 1.3112
 Frc consts  --      2.1361                 1.2141                 1.0088
 IR Inten    --     61.5446                11.4462                 9.7487

                     28                     29                     30
                      A                      A                      A
 Frequencies --   1215.4908              1249.9555              1273.9546
 Red. masses --      1.9358                 1.4165                 1.3424
 Frc consts  --      1.6851                 1.3039                 1.2836
 IR Inten    --      2.9336                 3.0353                12.7795

                     31                     32                     33
                      A                      A                      A
 Frequencies --   1293.3071              1318.8901              1352.4823
 Red. masses --      1.2527                 1.7952                 1.5647
 Frc consts  --      1.2345                 1.8399                 1.6863
 IR Inten    --      2.6941                 4.8642                 5.8747

                     34                     35                     36
                      A                      A                      A
 Frequencies --   1366.6205              1413.4804              1431.0859
 Red. masses --      1.6331                 1.2440                 1.2929
 Frc consts  --      1.7970                 1.4644                 1.5601
 IR Inten    --      3.1830                 2.2387                81.1120

                     37                     38                     39
                      A                      A                      A
 Frequencies --   1462.3025              1483.7624              1501.1437
 Red. masses --      3.4826                 1.0682                 1.0442
 Frc consts  --      4.3877                 1.3855                 1.3864
 IR Inten    --      8.7648                 1.5969                 4.4286

                     40                     41                     42
                      A                      A                      A
 Frequencies --   1507.5722              1664.7889              3028.2550
 Red. masses --      1.1049                 6.3687                 1.0630
 Frc consts  --      1.4796                10.3996                 5.7431
 IR Inten    --      4.1716                 0.3732                16.5849

                     43                     44                     45
                      A                      A                      A
 Frequencies --   3038.2559              3050.8627              3073.5530
 Red. masses --      1.0367                 1.0830                 1.0983
 Frc consts  --      5.6381                 5.9390                 6.1132
 IR Inten    --     17.1162                34.7062                 3.7672

                     46                     47                     48
                      A                      A                      A
 Frequencies --   3107.7930              3111.4352              3163.5847
 Red. masses --      1.1021                 1.1009                 1.0906
 Frc consts  --      6.2717                 6.2793                 6.4311
 IR Inten    --     33.6105                30.0257                19.6397

                     49                     50                     51
                      A                      A                      A
 Frequencies --   3193.9971              3218.4663              3757.5472
 Red. masses --      1.0858                 1.1053                 1.0651
 Frc consts  --      6.5264                 6.7456                 8.8604
 IR Inten    --      7.1935                15.7573                21.6658

 - Thermochemistry -
 -------------------
 Temperature   298.150 Kelvin.  Pressure   1.00000 Atm.
 Atom     1 has atomic number  6 and mass  12.00000

 Molecular mass:   126.06808 amu.
 Principal axes and moments of inertia in atomic units:
                           1         2         3
     Eigenvalues --   772.990621202.377541403.02408
           X            0.99990  -0.01251   0.00653
           Y            0.01245   0.99989   0.00848
           Z           -0.00663  -0.00840   0.99994
 This molecule is an asymmetric top.
 Rotational symmetry number  1.
 Warning -- assumption of classical behavior for rotation
           may cause significant error
 Rotational temperatures (Kelvin)      0.11205     0.07204     0.06173
 Rotational constants (GHZ):           2.33475     1.50098     1.28632
 Zero-point vibrational energy     417042.1 (Joules/Mol)
                                   99.67545 (Kcal/Mol)
 Warning -- explicit consideration of  12 degrees of freedom as
           vibrations may cause significant error
 Vibrational temperatures:    106.67   185.79   257.80   285.21   371.64
          (Kelvin)            443.37   553.43   644.89   709.13   780.97
                              847.89   870.93  1025.10  1101.18  1130.51
                             1202.83  1273.69  1320.25  1344.91  1381.14
                             1415.10  1441.25  1513.02  1527.20  1559.16
                             1601.62  1644.10  1748.82  1798.40  1832.93
                             1860.78  1897.59  1945.92  1966.26  2033.68
                             2059.01  2103.92  2134.80  2159.81  2169.06
                             2395.26  4356.98  4371.37  4389.51  4422.15
                             4471.42  4476.66  4551.69  4595.44  4630.65
                             5406.27

 Zero-point correction=                           0.158843 (Hartree/Particle)
 Thermal correction to Energy=                    0.167391
 Thermal correction to Enthalpy=                  0.168335
 Thermal correction to Gibbs Free Energy=         0.125664
 Sum of electronic and zero-point Energies=           -423.014749
 Sum of electronic and thermal Energies=              -423.006201
 Sum of electronic and thermal Enthalpies=            -423.005257
 Sum of electronic and thermal Free Energies=         -423.047928

                     E (Thermal)             CV                S
                      KCal/Mol        Cal/Mol-Kelvin    Cal/Mol-Kelvin
 Total                  105.039             32.824             89.808
 Electronic               0.000              0.000              0.000
 Translational            0.889              2.981             40.409
 Rotational               0.889              2.981             28.657
 Vibrational            103.262             26.862             20.742
 Vibration     1          0.599              1.966              4.040
 Vibration     2          0.612              1.924              2.959
 Vibration     3          0.629              1.868              2.337
 Vibration     4          0.637              1.842              2.149
 Vibration     5          0.667              1.749              1.673
 Vibration     6          0.698              1.658              1.372
 Vibration     7          0.754              1.503              1.021
 Vibration     8          0.807              1.365              0.801
 Vibration     9          0.849              1.266              0.676
 Vibration    10          0.898              1.155              0.559
 Vibration    11          0.947              1.055              0.468
 Vibration    12          0.964              1.021              0.441

 Normal termination of Gaussian 09 at Tue Jan 28 10:28:59 2020.
