 Gaussian 09, Revision D.01,
 Gaussian 09:  ES64L-G09RevD.01 24-Apr-2013

 -----------------------------
 # b3lyp 6-31G(2df,p) opt Freq
 -----------------------------

 -----
 titel
 -----
 Symbolic Z-matrix:
 Charge =  0 Multiplicity = 1

 SCF Done:  E(RB3LYP) =  -423.175156666     A.U. after   13 cycles
 Optimization completed.
    -- Stationary point found.
 Normal termination of Gaussian 09 at Mon Jan 27 11:16:06 2020.

 ----------------------------------------------------------------------
 #N Geom=AllCheck Guess=TCheck SCRF=Check GenChk RB3LYP/6-31G(2df,p) Fr
 eq
 ----------------------------------------------------------------------

 Structure from the checkpoint file:  "/scratch/puck/g09_abe86d70-fad9-45c2-b75f-ff8bbd6e0977/Gau-68807.chk"
 -----
 titel
 -----
 Charge =  0 Multiplicity = 1

                         Standard orientation:
 ---------------------------------------------------------------------
 Center     Atomic      Atomic             Coordinates (Angstroms)
 Number     Number       Type             X           Y           Z
 ---------------------------------------------------------------------
      1          6           0        2.002195   -0.708516    0.278605
      2          6           0        1.252450    0.264262   -0.621574
      3          6           0        0.769316    1.656470   -0.243658
      4          6           0       -0.785045    1.627910   -0.213621
      5          6           0       -1.280047    0.327627    0.478061
      6          8           0       -1.632249   -0.701415   -0.466060
      7          6           0       -0.526073   -1.625045   -0.514524
      8          6           0        0.524512   -0.795578    0.172658
      9          8           0       -0.215928   -0.214581    1.235598
     10          1           0        2.609326   -1.462991   -0.209786
     11          1           0        2.390185   -0.362552    1.231430
     12          1           0        1.351118    0.070579   -1.686308
     13          1           0        1.145707    1.940268    0.742462
     14          1           0        1.124745    2.410574   -0.951127
     15          1           0       -1.171835    2.501126    0.322504
     16          1           0       -1.195938    1.659166   -1.227181
     17          1           0       -2.136707    0.495204    1.135620
     18          1           0       -0.783005   -2.544463    0.026537
     19          1           0       -0.292037   -1.861713   -1.556132
 ---------------------------------------------------------------------

 SCF Done:  E(RB3LYP) =  -423.175156666     A.U. after    1 cycles

 The electronic state is 1-A.
 Alpha  occ. eigenvalues --  -19.14934 -19.13519 -10.27328 -10.23751 -10.23090
 Alpha  occ. eigenvalues --  -10.20010 -10.19020 -10.18713 -10.17979  -1.09014
 Alpha  occ. eigenvalues --   -0.98617  -0.86108  -0.78381  -0.70940  -0.65954
 Alpha  occ. eigenvalues --   -0.60831  -0.59197  -0.54416  -0.51261  -0.50102
 Alpha  occ. eigenvalues --   -0.47633  -0.45413  -0.42886  -0.42045  -0.40209
 Alpha  occ. eigenvalues --   -0.38325  -0.37288  -0.36356  -0.33514  -0.32803
 Alpha  occ. eigenvalues --   -0.30369  -0.29966  -0.25414  -0.24237
 Alpha virt. eigenvalues --    0.07906   0.09899   0.11164   0.12122   0.13082
 Alpha virt. eigenvalues --    0.13589   0.14526   0.14688   0.16579   0.17584
 Alpha virt. eigenvalues --    0.17952   0.18413   0.20053   0.21616   0.23111

 Mulliken charges:
               1
     1  C   -0.413919
     2  C   -0.053770
     3  C   -0.230305
     4  C   -0.238639
     5  C    0.208126
     6  O   -0.290736
     7  C   -0.156638
     8  C    0.383800
     9  O   -0.268862
    10  H    0.122924
    11  H    0.129356
    12  H    0.090078
    13  H    0.112357
    14  H    0.098427
    15  H    0.097609
    16  H    0.112350
    17  H    0.087888
    18  H    0.102621
    19  H    0.107334
 Sum of Mulliken charges =   0.00000

 Dipole moment (field-independent basis, Debye):
    X=              1.3047    Y=              0.3290    Z=             -0.6976  Tot=              1.5156
 Quadrupole moment (field-independent basis, Debye-Ang):
   XX=            -54.1280   YY=            -50.4161   ZZ=            -53.9544
   XY=             -2.8035   XZ=             -1.7978   YZ=              1.2921

  Exact polarizability:  77.580  -3.716  79.269  -1.348   1.180  64.363
 Approx polarizability: 109.806  -4.415 108.713  -1.009   0.795 103.809

                      1                      2                      3
                      A                      A                      A
 Frequencies --    170.6132               239.2122               343.6820
 Red. masses --      2.6957                 2.1596                 2.3628
 Frc consts  --      0.0462                 0.0728                 0.1644
 IR Inten    --      1.4381                 0.6079                 2.2793

                      4                      5                      6
                      A                      A                      A
 Frequencies --    369.6332               393.3930               456.6414
 Red. masses --      3.1115                 2.3336                 3.2437
 Frc consts  --      0.2505                 0.2128                 0.3985
 IR Inten    --      2.1678                 2.4005                 6.5232

                      7                      8                      9
                      A                      A                      A
 Frequencies --    534.8353               576.3755               639.8751
 Red. masses --      5.3619                 3.3707                 3.5893
 Frc consts  --      0.9037                 0.6598                 0.8659
 IR Inten    --      1.2792                 6.5087                 2.3412

                     10                     11                     12
                      A                      A                      A
 Frequencies --    760.4221               782.3198               801.2869
 Red. masses --      2.2218                 2.6506                 3.3275
 Frc consts  --      0.7569                 0.9558                 1.2588
 IR Inten    --      0.3700                 4.6419                 2.6122

                     13                     14                     15
                      A                      A                      A
 Frequencies --    829.7499               864.2100               896.6787
 Red. masses --      2.4719                 2.9854                 2.6205
 Frc consts  --      1.0027                 1.3137                 1.2414
 IR Inten    --      8.6896                10.4625                15.8357

                     16                     17                     18
                      A                      A                      A
 Frequencies --    904.7629               942.7475               953.5316
 Red. masses --      3.0891                 1.5851                 2.4448
 Frc consts  --      1.4899                 0.8300                 1.3097
 IR Inten    --     23.2105                 5.2726                30.8164

                     19                     20                     21
                      A                      A                      A
 Frequencies --    985.3480              1006.6403              1032.1258
 Red. masses --      4.1523                 2.7902                 1.6075
 Frc consts  --      2.3753                 1.6658                 1.0090
 IR Inten    --     50.0164                23.0567                12.4462

                     22                     23                     24
                      A                      A                      A
 Frequencies --   1079.2892              1081.8448              1104.1514
 Red. masses --      1.3314                 1.9525                 1.5896
 Frc consts  --      0.9138                 1.3464                 1.1418
 IR Inten    --     12.1410                14.7192                26.7527

                     25                     26                     27
                      A                      A                      A
 Frequencies --   1118.0240              1128.7214              1182.5644
 Red. masses --      3.9527                 2.2608                 1.2508
 Frc consts  --      2.9110                 1.6970                 1.0306
 IR Inten    --     55.6323                31.2403                 4.0020

                     28                     29                     30
                      A                      A                      A
 Frequencies --   1199.4095              1227.0168              1252.8038
 Red. masses --      1.6115                 1.4340                 1.5831
 Frc consts  --      1.3659                 1.2720                 1.4639
 IR Inten    --      4.8655                 0.2694                13.2577

                     31                     32                     33
                      A                      A                      A
 Frequencies --   1304.2117              1317.5555              1340.8903
 Red. masses --      1.3290                 1.3850                 1.3256
 Frc consts  --      1.3319                 1.4166                 1.4042
 IR Inten    --      1.1832                 7.9840                 3.6913

                     34                     35                     36
                      A                      A                      A
 Frequencies --   1355.2157              1370.9386              1374.1246
 Red. masses --      1.4023                 1.3623                 1.4641
 Frc consts  --      1.5175                 1.5086                 1.6288
 IR Inten    --      4.6135                17.7621                 2.8805

                     37                     38                     39
                      A                      A                      A
 Frequencies --   1428.3456              1475.2434              1485.0031
 Red. masses --      1.5326                 1.1615                 1.2221
 Frc consts  --      1.8422                 1.4894                 1.5879
 IR Inten    --      0.6605                 1.3976                 2.3974

                     40                     41                     42
                      A                      A                      A
 Frequencies --   1494.7326              1518.8043              3021.1167
 Red. masses --      1.5525                 1.1102                 1.0634
 Frc consts  --      2.0436                 1.5089                 5.7187
 IR Inten    --      5.7325                 0.9118                72.2155

                     43                     44                     45
                      A                      A                      A
 Frequencies --   3045.2824              3061.8758              3081.8246
 Red. masses --      1.0617                 1.0601                 1.0913
 Frc consts  --      5.8010                 5.8558                 6.1067
 IR Inten    --     19.1975                35.4581                41.2170

                     46                     47                     48
                      A                      A                      A
 Frequencies --   3089.5375              3091.2923              3106.2653
 Red. masses --      1.1021                 1.1012                 1.1034
 Frc consts  --      6.1981                 6.1998                 6.2730
 IR Inten    --     23.6694                28.4300                23.4250

                     49                     50                     51
                      A                      A                      A
 Frequencies --   3131.4196              3144.1949              3219.8701
 Red. masses --      1.0546                 1.0892                 1.1163
 Frc consts  --      6.0931                 6.3441                 6.8190
 IR Inten    --     11.1410                19.0142                 4.7321

 - Thermochemistry -
 -------------------
 Temperature   298.150 Kelvin.  Pressure   1.00000 Atm.
 Atom     1 has atomic number  6 and mass  12.00000

 Molecular mass:   126.06808 amu.
 Principal axes and moments of inertia in atomic units:
                           1         2         3
     Eigenvalues --   727.97469 816.955991172.02640
           X            0.99266  -0.12061  -0.00868
           Y            0.12069   0.99264   0.01024
           Z            0.00738  -0.01121   0.99991
 This molecule is an asymmetric top.
 Rotational symmetry number  1.
 Warning -- assumption of classical behavior for rotation
           may cause significant error
 Rotational temperatures (Kelvin)      0.11898     0.10602     0.07390
 Rotational constants (GHZ):           2.47913     2.20910     1.53985
 Zero-point vibrational energy     426562.3 (Joules/Mol)
                                  101.95084 (Kcal/Mol)
 Warning -- explicit consideration of   8 degrees of freedom as
           vibrations may cause significant error
 Vibrational temperatures:    245.47   344.17   494.48   531.82   566.00
          (Kelvin)            657.00   769.51   829.27   920.64  1094.08
                             1125.58  1152.87  1193.82  1243.40  1290.12
                             1301.75  1356.40  1371.92  1417.69  1448.33
                             1485.00  1552.85  1556.53  1588.63  1608.59
                             1623.98  1701.44  1725.68  1765.40  1802.50
                             1876.47  1895.67  1929.24  1949.85  1972.47
                             1977.06  2055.07  2122.54  2136.59  2150.58
                             2185.22  4346.71  4381.48  4405.35  4434.05
                             4445.15  4447.67  4469.22  4505.41  4523.79
                             4632.67

 Zero-point correction=                           0.162469 (Hartree/Particle)
 Thermal correction to Energy=                    0.169166
 Thermal correction to Enthalpy=                  0.170111
 Thermal correction to Gibbs Free Energy=         0.131796
 Sum of electronic and zero-point Energies=           -423.012688
 Sum of electronic and thermal Energies=              -423.005990
 Sum of electronic and thermal Enthalpies=            -423.005046
 Sum of electronic and thermal Free Energies=         -423.043361

                     E (Thermal)             CV                S
                      KCal/Mol        Cal/Mol-Kelvin    Cal/Mol-Kelvin
 Total                  106.154             28.308             80.640
 Electronic               0.000              0.000              0.000
 Translational            0.889              2.981             40.409
 Rotational               0.889              2.981             28.035
 Vibrational            104.376             22.346             12.196
 Vibration     1          0.626              1.879              2.429
 Vibration     2          0.657              1.780              1.809
 Vibration     3          0.722              1.588              1.195
 Vibration     4          0.742              1.535              1.081
 Vibration     5          0.761              1.484              0.987
 Vibration     6          0.815              1.346              0.776
 Vibration     7          0.890              1.173              0.577
 Vibration     8          0.933              1.082              0.492

 Optimization completed.
    -- Stationary point found.
 Normal termination of Gaussian 09 at Mon Jan 27 12:06:01 2020.
