 Gaussian 09, Revision D.01,
 Gaussian 09:  ES64L-G09RevD.01 24-Apr-2013

 -----------------------------
 # b3lyp 6-31G(2df,p) opt Freq
 -----------------------------

 -----
 titel
 -----
 Symbolic Z-matrix:
 Charge =  0 Multiplicity = 1

 SCF Done:  E(RB3LYP) =  -423.168355222     A.U. after   15 cycles
 SCF Done:  E(RB3LYP) =  -423.168355239     A.U. after    6 cycles
 Optimization completed.
    -- Stationary point found.
 Normal termination of Gaussian 09 at Tue Jan 28 08:22:34 2020.

 ----------------------------------------------------------------------
 #N Geom=AllCheck Guess=TCheck SCRF=Check GenChk RB3LYP/6-31G(2df,p) Fr
 eq
 ----------------------------------------------------------------------

 Structure from the checkpoint file:  "/scratch/puck/g09_5f7b4a2d-e787-4c54-b415-f15cc17b6c03/Gau-79688.chk"
 -----
 titel
 -----
 Charge =  0 Multiplicity = 1

                         Standard orientation:
 ---------------------------------------------------------------------
 Center     Atomic      Atomic             Coordinates (Angstroms)
 Number     Number       Type             X           Y           Z
 ---------------------------------------------------------------------
      1          6           0        2.298744   -1.702977    0.237284
      2          6           0        1.165978   -0.794155    0.718577
      3          6           0        0.696108    0.169350   -0.394049
      4          8           0        1.761255    0.946166   -0.876464
      5          6           0       -0.412302    1.084608    0.113928
      6          8           0       -0.234840    2.281862    0.154535
      7          6           0       -1.729095    0.486169    0.627342
      8          6           0       -2.197216   -0.704469   -0.066889
      9          6           0       -2.590658   -1.682060   -0.644153
     10          1           0        1.963421   -2.349004   -0.581519
     11          1           0        3.137988   -1.105205   -0.125346
     12          1           0        2.653606   -2.345465    1.048581
     13          1           0        0.316184   -1.399246    1.054217
     14          1           0        1.505129   -0.194403    1.572623
     15          1           0        0.275760   -0.433957   -1.214335
     16          1           0        1.532878    1.863493   -0.657344
     17          1           0       -1.572533    0.258641    1.691870
     18          1           0       -2.474152    1.287066    0.590767
     19          1           0       -2.938959   -2.544939   -1.156324
 ---------------------------------------------------------------------

 SCF Done:  E(RB3LYP) =  -423.168355239     A.U. after    1 cycles

 The electronic state is 1-A.
 Alpha  occ. eigenvalues --  -19.15667 -19.13004 -10.28959 -10.24094 -10.23270
 Alpha  occ. eigenvalues --  -10.20091 -10.19142 -10.18996 -10.17389  -1.07245
 Alpha  occ. eigenvalues --   -1.01331  -0.81822  -0.78056  -0.73128  -0.69320
 Alpha  occ. eigenvalues --   -0.60506  -0.56959  -0.55016  -0.51091  -0.49272
 Alpha  occ. eigenvalues --   -0.47780  -0.45935  -0.44846  -0.43619  -0.41140
 Alpha  occ. eigenvalues --   -0.38627  -0.37091  -0.35758  -0.34685  -0.33949
 Alpha  occ. eigenvalues --   -0.30198  -0.28300  -0.26718  -0.26141
 Alpha virt. eigenvalues --   -0.03348   0.03483   0.04018   0.08489   0.11288
 Alpha virt. eigenvalues --    0.11744   0.12902   0.13465   0.15254   0.16382
 Alpha virt. eigenvalues --    0.17093   0.18083   0.18973   0.20786   0.21478

 Mulliken charges:
               1
     1  C   -0.381813
     2  C   -0.195677
     3  C    0.047270
     4  O   -0.439422
     5  C    0.370515
     6  O   -0.322043
     7  C   -0.454430
     8  C    0.306704
     9  C   -0.445933
    10  H    0.115856
    11  H    0.143151
    12  H    0.111219
    13  H    0.106741
    14  H    0.102844
    15  H    0.104751
    16  H    0.291852
    17  H    0.165896
    18  H    0.164750
    19  H    0.207773
 Sum of Mulliken charges =   0.00000

 Dipole moment (field-independent basis, Debye):
    X=             -1.5166    Y=             -1.7415    Z=              1.0068  Tot=              2.5192
 Quadrupole moment (field-independent basis, Debye-Ang):
   XX=            -54.5092   YY=            -54.5710   ZZ=            -52.4411
   XY=              0.8982   XZ=              2.2999   YZ=              1.9957

  Exact polarizability:  81.324   5.656  89.201   1.989   7.282  62.103
 Approx polarizability: 104.403  14.730 142.579   3.967  17.876  97.920

                      1                      2                      3
                      A                      A                      A
 Frequencies --     46.5993                74.4144               100.6723
 Red. masses --      3.4905                 5.7539                 2.4434
 Frc consts  --      0.0045                 0.0188                 0.0146
 IR Inten    --      1.0162                 0.1156                 1.0686

                      4                      5                      6
                      A                      A                      A
 Frequencies --    138.1551               176.6473               237.8306
 Red. masses --      2.9897                 3.1587                 1.1530
 Frc consts  --      0.0336                 0.0581                 0.0384
 IR Inten    --      0.1041                 0.8302                 0.8487

                      7                      8                      9
                      A                      A                      A
 Frequencies --    277.7485               332.6230               337.3667
 Red. masses --      3.7438                 2.9872                 3.5870
 Frc consts  --      0.1702                 0.1947                 0.2405
 IR Inten    --      1.4998                 5.9938                 0.3208

                     10                     11                     12
                      A                      A                      A
 Frequencies --    376.0718               413.8811               467.0817
 Red. masses --      6.1702                 1.2948                 2.2418
 Frc consts  --      0.5141                 0.1307                 0.2882
 IR Inten    --     24.1830                58.7337                 2.4367

                     13                     14                     15
                      A                      A                      A
 Frequencies --    502.1621               554.0514               634.9796
 Red. masses --      5.9111                 3.0359                 1.2131
 Frc consts  --      0.8782                 0.5491                 0.2882
 IR Inten    --      0.8759                10.7515                43.7456

                     16                     17                     18
                      A                      A                      A
 Frequencies --    651.5473               672.4198               770.0981
 Red. masses --      1.6240                 2.0639                 1.7088
 Frc consts  --      0.4062                 0.5498                 0.5971
 IR Inten    --     12.2993                51.7832                 0.0226

                     19                     20                     21
                      A                      A                      A
 Frequencies --    828.0807               906.3328               932.5263
 Red. masses --      1.8591                 3.0388                 1.9018
 Frc consts  --      0.7511                 1.4707                 0.9744
 IR Inten    --      1.2670                 4.6891                 4.5424

                     22                     23                     24
                      A                      A                      A
 Frequencies --    990.2612              1002.1277              1075.3695
 Red. masses --      3.1948                 1.8119                 2.3875
 Frc consts  --      1.8458                 1.0721                 1.6267
 IR Inten    --      0.2584                15.1152                20.3757

                     25                     26                     27
                      A                      A                      A
 Frequencies --   1107.2036              1127.2302              1188.1060
 Red. masses --      2.6689                 2.7043                 2.1197
 Frc consts  --      1.9277                 2.0245                 1.7629
 IR Inten    --     81.7541                66.4999                10.5261

                     28                     29                     30
                      A                      A                      A
 Frequencies --   1206.7156              1279.3994              1293.1353
 Red. masses --      1.2054                 1.4871                 1.2128
 Frc consts  --      1.0342                 1.4342                 1.1949
 IR Inten    --      1.3440                64.8975                14.5971

                     31                     32                     33
                      A                      A                      A
 Frequencies --   1302.2139              1345.5246              1372.4247
 Red. masses --      1.4656                 1.3525                 1.3114
 Frc consts  --      1.4643                 1.4427                 1.4553
 IR Inten    --      6.7604                13.4282                 0.9961

                     34                     35                     36
                      A                      A                      A
 Frequencies --   1406.7624              1439.1253              1440.6823
 Red. masses --      1.2286                 1.3548                 1.0845
 Frc consts  --      1.4326                 1.6532                 1.3262
 IR Inten    --      2.6861                74.9363                 9.8722

                     37                     38                     39
                      A                      A                      A
 Frequencies --   1476.9769              1494.9406              1509.4890
 Red. masses --      1.0810                 1.0412                 1.0535
 Frc consts  --      1.3893                 1.3710                 1.4144
 IR Inten    --      1.7390                 4.5682                 4.4581

                     40                     41                     42
                      A                      A                      A
 Frequencies --   1793.8644              2241.7020              2987.1277
 Red. masses --     11.5576                 5.9184                 1.0802
 Frc consts  --     21.9127                17.5231                 5.6789
 IR Inten    --    167.9120                 0.4677                17.5576

                     43                     44                     45
                      A                      A                      A
 Frequencies --   3016.3338              3027.3897              3039.1199
 Red. masses --      1.0664                 1.0606                 1.0373
 Frc consts  --      5.7167                 5.7273                 5.6450
 IR Inten    --      5.4692                19.1247                26.8371

                     46                     47                     48
                      A                      A                      A
 Frequencies --   3073.8876              3083.8556              3104.6935
 Red. masses --      1.1001                 1.0921                 1.1013
 Frc consts  --      6.1242                 6.1190                 6.2545
 IR Inten    --     18.0666                 1.7498                34.6984

                     49                     50                     51
                      A                      A                      A
 Frequencies --   3132.4792              3503.7150              3686.7878
 Red. masses --      1.1008                 1.1629                 1.0645
 Frc consts  --      6.3639                 8.4111                 8.5249
 IR Inten    --     16.7356                69.6166                74.1535

 - Thermochemistry -
 -------------------
 Temperature   298.150 Kelvin.  Pressure   1.00000 Atm.
 Atom     1 has atomic number  6 and mass  12.00000

 Molecular mass:   126.06808 amu.
 Principal axes and moments of inertia in atomic units:
                           1         2         3
     Eigenvalues --   947.742841424.103182065.82937
           X            0.99790  -0.06451   0.00611
           Y            0.06449   0.99791   0.00292
           Z           -0.00629  -0.00252   0.99998
 This molecule is an asymmetric top.
 Rotational symmetry number  1.
 Warning -- assumption of classical behavior for rotation
           may cause significant error
 Rotational temperatures (Kelvin)      0.09139     0.06082     0.04193
 Rotational constants (GHZ):           1.90425     1.26728     0.87362
 Zero-point vibrational energy     407806.6 (Joules/Mol)
                                   97.46811 (Kcal/Mol)
 Warning -- explicit consideration of  14 degrees of freedom as
           vibrations may cause significant error
 Vibrational temperatures:     67.05   107.07   144.84   198.77   254.16
          (Kelvin)            342.18   399.62   478.57   485.39   541.08
                              595.48   672.03   722.50   797.16   913.59
                              937.43   967.46  1108.00  1191.42  1304.01
                             1341.70  1424.76  1441.84  1547.21  1593.02
                             1621.83  1709.42  1736.19  1840.77  1860.53
                             1873.59  1935.91  1974.61  2024.01  2070.58
                             2072.82  2125.04  2150.88  2171.82  2580.97
                             3225.31  4297.81  4339.83  4355.73  4372.61
                             4422.63  4436.97  4466.96  4506.93  5041.06
                             5304.46

 Zero-point correction=                           0.155325 (Hartree/Particle)
 Thermal correction to Energy=                    0.165708
 Thermal correction to Enthalpy=                  0.166652
 Thermal correction to Gibbs Free Energy=         0.119310
 Sum of electronic and zero-point Energies=           -423.013030
 Sum of electronic and thermal Energies=              -423.002647
 Sum of electronic and thermal Enthalpies=            -423.001703
 Sum of electronic and thermal Free Energies=         -423.049045

                     E (Thermal)             CV                S
                      KCal/Mol        Cal/Mol-Kelvin    Cal/Mol-Kelvin
 Total                  103.983             37.291             99.641
 Electronic               0.000              0.000              0.000
 Translational            0.889              2.981             40.409
 Rotational               0.889              2.981             29.412
 Vibrational            102.206             31.330             29.819
 Vibration     1          0.595              1.979              4.957
 Vibration     2          0.599              1.966              4.033
 Vibration     3          0.604              1.949              3.441
 Vibration     4          0.614              1.915              2.829
 Vibration     5          0.628              1.871              2.364
 Vibration     6          0.656              1.783              1.819
 Vibration     7          0.679              1.715              1.548
 Vibration     8          0.715              1.610              1.247
 Vibration     9          0.718              1.601              1.225
 Vibration    10          0.747              1.521              1.055
 Vibration    11          0.777              1.440              0.913
 Vibration    12          0.824              1.323              0.746
 Vibration    13          0.858              1.245              0.653
 Vibration    14          0.909              1.131              0.536

 Optimization completed.
    -- Stationary point found.
 Normal termination of Gaussian 09 at Tue Jan 28 09:07:04 2020.
