 Gaussian 09, Revision D.01,
 Gaussian 09:  ES64L-G09RevD.01 24-Apr-2013

 -----------------------------
 # b3lyp 6-31G(2df,p) opt Freq
 -----------------------------

 -----
 titel
 -----
 Symbolic Z-matrix:
 Charge =  0 Multiplicity = 1

 SCF Done:  E(RB3LYP) =  -423.189651249     A.U. after   12 cycles
 Optimization completed.
    -- Stationary point found.
 Normal termination of Gaussian 09 at Mon Jan 27 18:25:47 2020.

 ----------------------------------------------------------------------
 #N Geom=AllCheck Guess=TCheck SCRF=Check GenChk RB3LYP/6-31G(2df,p) Fr
 eq
 ----------------------------------------------------------------------

 Structure from the checkpoint file:  "/scratch/puck/g09_9bac6634-8310-430a-ba63-90702d213976/Gau-53327.chk"
 -----
 titel
 -----
 Charge =  0 Multiplicity = 1

                         Standard orientation:
 ---------------------------------------------------------------------
 Center     Atomic      Atomic             Coordinates (Angstroms)
 Number     Number       Type             X           Y           Z
 ---------------------------------------------------------------------
      1          8           0        2.416188   -0.157089    0.666441
      2          6           0        1.121506   -0.069986    0.130153
      3          6           0        0.777444    1.279074   -0.596347
      4          6           0       -0.777535    1.279149   -0.596173
      5          6           0       -1.121497   -0.070001    0.130164
      6          8           0       -2.416169   -0.157232    0.666460
      7          6           0        0.000017   -0.115431    1.185892
      8          6           0       -0.667138   -1.188868   -0.803819
      9          6           0        0.667188   -1.189041   -0.803605
     10          1           0        3.048574   -0.026456   -0.047820
     11          1           0        1.184812    2.111423   -0.014951
     12          1           0        1.207920    1.323906   -1.601106
     13          1           0       -1.184736    2.111442   -0.014575
     14          1           0       -1.208211    1.324129   -1.600838
     15          1           0       -3.048570   -0.026574   -0.047783
     16          1           0        0.000026    0.749642    1.855561
     17          1           0        0.000028   -1.042925    1.760385
     18          1           0       -1.340037   -1.779544   -1.415025
     19          1           0        1.340125   -1.779845   -1.414642
 ---------------------------------------------------------------------

 SCF Done:  E(RB3LYP) =  -423.189651249     A.U. after    1 cycles

 The electronic state is 1-A.
 Alpha  occ. eigenvalues --  -19.13750 -19.13750 -10.23785 -10.23784 -10.18185
 Alpha  occ. eigenvalues --  -10.18166 -10.17805 -10.17716 -10.17284  -1.02530
 Alpha  occ. eigenvalues --   -1.02103  -0.86856  -0.74707  -0.70090  -0.69154
 Alpha  occ. eigenvalues --   -0.59356  -0.55814  -0.55456  -0.53252  -0.48333
 Alpha  occ. eigenvalues --   -0.45705  -0.43600  -0.42396  -0.40795  -0.38958
 Alpha  occ. eigenvalues --   -0.38201  -0.36307  -0.35232  -0.34447  -0.32921
 Alpha  occ. eigenvalues --   -0.29579  -0.27128  -0.25400  -0.24386
 Alpha virt. eigenvalues --    0.01563   0.07621   0.07940   0.10112   0.11824
 Alpha virt. eigenvalues --    0.13237   0.16218   0.16757   0.17402   0.18093
 Alpha virt. eigenvalues --    0.18493   0.19287   0.22225   0.23980   0.24048

 Mulliken charges:
               1
     1  O   -0.503060
     2  C    0.384470
     3  C   -0.265331
     4  C   -0.265329
     5  C    0.384475
     6  O   -0.503060
     7  C   -0.267927
     8  C   -0.148233
     9  C   -0.148217
    10  H    0.275402
    11  H    0.106145
    12  H    0.088841
    13  H    0.106147
    14  H    0.088831
    15  H    0.275401
    16  H    0.096642
    17  H    0.109314
    18  H    0.092750
    19  H    0.092739
 Sum of Mulliken charges =   0.00000

 Dipole moment (field-independent basis, Debye):
    X=              0.0000    Y=              0.6798    Z=             -2.7240  Tot=              2.8076
 Quadrupole moment (field-independent basis, Debye-Ang):
   XX=            -49.2107   YY=            -53.3369   ZZ=            -54.4554
   XY=             -0.0005   XZ=              0.0001   YZ=              1.6056

  Exact polarizability:  86.584  -0.002  70.078   0.001   3.539  66.699
 Approx polarizability: 132.488  -0.005 101.600   0.005   5.190 101.705

                      1                      2                      3
                      A                      A                      A
 Frequencies --    196.9324               214.2809               234.4958
 Red. masses --      1.0760                 1.1042                 1.8516
 Frc consts  --      0.0246                 0.0299                 0.0600
 IR Inten    --      0.0422               145.4557                 0.4633

                      4                      5                      6
                      A                      A                      A
 Frequencies --    265.3644               316.5150               367.3220
 Red. masses --      3.6134                 5.5047                 3.4873
 Frc consts  --      0.1499                 0.3249                 0.2772
 IR Inten    --     13.9308                34.1899                 7.0993

                      7                      8                      9
                      A                      A                      A
 Frequencies --    394.4622               431.5508               499.4093
 Red. masses --      2.4336                 3.3181                 3.1163
 Frc consts  --      0.2231                 0.3641                 0.4579
 IR Inten    --      3.9770                 7.3945                 3.0608

                     10                     11                     12
                      A                      A                      A
 Frequencies --    502.9487               580.8451               647.4747
 Red. masses --      1.8188                 6.4918                 4.7125
 Frc consts  --      0.2711                 1.2904                 1.1640
 IR Inten    --      0.5542                 1.2257                 9.6046

                     13                     14                     15
                      A                      A                      A
 Frequencies --    661.9705               724.0385               788.2353
 Red. masses --      3.5993                 1.5654                 2.9535
 Frc consts  --      0.9293                 0.4835                 1.0812
 IR Inten    --      0.5717                30.7348                 0.5362

                     16                     17                     18
                      A                      A                      A
 Frequencies --    796.0146               845.5390               929.2376
 Red. masses --      3.0831                 1.5240                 1.5711
 Frc consts  --      1.1510                 0.6419                 0.7993
 IR Inten    --      0.2045                 2.0882                 4.4737

                     19                     20                     21
                      A                      A                      A
 Frequencies --    939.4109               942.4026               975.0324
 Red. masses --      1.6594                 2.7250                 2.5561
 Frc consts  --      0.8628                 1.4259                 1.4317
 IR Inten    --      0.7103                11.1783                 3.0185

                     22                     23                     24
                      A                      A                      A
 Frequencies --    980.6538              1017.3622              1061.3020
 Red. masses --      1.9345                 2.0806                 1.3110
 Frc consts  --      1.0961                 1.2688                 0.8700
 IR Inten    --      0.1900                 2.9874                 1.8296

                     25                     26                     27
                      A                      A                      A
 Frequencies --   1082.7972              1092.3634              1141.2887
 Red. masses --      1.6953                 1.3461                 2.7310
 Frc consts  --      1.1711                 0.9464                 2.0959
 IR Inten    --     49.6101                 4.6799               159.2318

                     28                     29                     30
                      A                      A                      A
 Frequencies --   1187.7580              1197.2295              1214.7295
 Red. masses --      1.5222                 1.9186                 1.5391
 Frc consts  --      1.2652                 1.6203                 1.3381
 IR Inten    --      0.2417                31.7585                 0.6663

                     31                     32                     33
                      A                      A                      A
 Frequencies --   1239.4115              1254.8964              1294.1204
 Red. masses --      1.1974                 1.6508                 1.5251
 Frc consts  --      1.0837                 1.5316                 1.5049
 IR Inten    --      4.9183                50.5571                40.4079

                     34                     35                     36
                      A                      A                      A
 Frequencies --   1296.6762              1344.8924              1380.3555
 Red. masses --      2.9391                 1.7079                 1.9838
 Frc consts  --      2.9116                 1.8200                 2.2271
 IR Inten    --     46.3995                88.3423                29.4605

                     37                     38                     39
                      A                      A                      A
 Frequencies --   1392.6358              1486.8178              1491.0106
 Red. masses --      1.7886                 1.0842                 1.1132
 Frc consts  --      2.0439                 1.4121                 1.4581
 IR Inten    --      8.4013                 0.0953                 3.1263

                     40                     41                     42
                      A                      A                      A
 Frequencies --   1515.1456              1647.2937              3044.9671
 Red. masses --      1.1368                 6.4192                 1.0574
 Frc consts  --      1.5376                10.2630                 5.7766
 IR Inten    --      0.3876                 0.5219                35.7236

                     43                     44                     45
                      A                      A                      A
 Frequencies --   3054.2192              3065.8396              3087.2653
 Red. masses --      1.0593                 1.0610                 1.1072
 Frc consts  --      5.8221                 5.8758                 6.2177
 IR Inten    --     38.9659                18.2653                 0.0268

                     46                     47                     48
                      A                      A                      A
 Frequencies --   3105.7846              3134.6646              3181.4610
 Red. masses --      1.1064                 1.1058                 1.0851
 Frc consts  --      6.2878                 6.4017                 6.4711
 IR Inten    --     43.1614                20.4953                 9.3347

                     49                     50                     51
                      A                      A                      A
 Frequencies --   3208.1833              3810.0321              3810.0773
 Red. masses --      1.1076                 1.0659                 1.0661
 Frc consts  --      6.7168                 9.1168                 9.1180
 IR Inten    --     14.2527                 6.9503                30.8759

 - Thermochemistry -
 -------------------
 Temperature   298.150 Kelvin.  Pressure   1.00000 Atm.
 Atom     1 has atomic number  8 and mass  15.99491

 Molecular mass:   126.06808 amu.
 Principal axes and moments of inertia in atomic units:
                           1         2         3
     Eigenvalues --   592.926871219.619411303.50021
           X            1.00000   0.00000   0.00000
           Y            0.00000   0.99995   0.00978
           Z            0.00000  -0.00978   0.99995
 This molecule is an asymmetric top.
 Rotational symmetry number  1.
 Warning -- assumption of classical behavior for rotation
           may cause significant error
 Rotational temperatures (Kelvin)      0.14608     0.07102     0.06645
 Rotational constants (GHZ):           3.04378     1.47976     1.38453
 Zero-point vibrational energy     419139.9 (Joules/Mol)
                                  100.17684 (Kcal/Mol)
 Warning -- explicit consideration of  11 degrees of freedom as
           vibrations may cause significant error
 Vibrational temperatures:    283.34   308.30   337.39   381.80   455.39
          (Kelvin)            528.49   567.54   620.90   718.54   723.63
                              835.71   931.57   952.43  1041.73  1134.09
                             1145.29  1216.54  1336.96  1351.60  1355.91
                             1402.85  1410.94  1463.76  1526.97  1557.90
                             1571.67  1642.06  1708.92  1722.54  1747.72
                             1783.23  1805.51  1861.95  1865.63  1935.00
                             1986.02  2003.69  2139.20  2145.23  2179.95
                             2370.09  4381.02  4394.33  4411.05  4441.88
                             4468.53  4510.08  4577.41  4615.85  5481.78
                             5481.84

 Zero-point correction=                           0.159642 (Hartree/Particle)
 Thermal correction to Energy=                    0.167604
 Thermal correction to Enthalpy=                  0.168548
 Thermal correction to Gibbs Free Energy=         0.128019
 Sum of electronic and zero-point Energies=           -423.030009
 Sum of electronic and thermal Energies=              -423.022047
 Sum of electronic and thermal Enthalpies=            -423.021103
 Sum of electronic and thermal Free Energies=         -423.061633

                     E (Thermal)             CV                S
                      KCal/Mol        Cal/Mol-Kelvin    Cal/Mol-Kelvin
 Total                  105.173             32.859             85.302
 Electronic               0.000              0.000              0.000
 Translational            0.889              2.981             40.409
 Rotational               0.889              2.981             28.335
 Vibrational            103.396             26.897             16.559
 Vibration     1          0.636              1.844              2.162
 Vibration     2          0.644              1.819              2.007
 Vibration     3          0.654              1.788              1.844
 Vibration     4          0.671              1.737              1.626
 Vibration     5          0.703              1.642              1.328
 Vibration     6          0.740              1.539              1.091
 Vibration     7          0.761              1.482              0.983
 Vibration     8          0.793              1.402              0.854
 Vibration     9          0.855              1.251              0.660
 Vibration    10          0.858              1.243              0.651
 Vibration    11          0.938              1.073              0.484

 Optimization completed.
    -- Stationary point found.
 Normal termination of Gaussian 09 at Mon Jan 27 19:12:10 2020.
