 Gaussian 09, Revision D.01,
 Gaussian 09:  ES64L-G09RevD.01 24-Apr-2013

 -----------------------------
 # b3lyp 6-31G(2df,p) opt Freq
 -----------------------------

 -----
 titel
 -----
 Symbolic Z-matrix:
 Charge =  0 Multiplicity = 1

 SCF Done:  E(RB3LYP) =  -423.191838170     A.U. after   13 cycles
 Optimization completed.
    -- Stationary point found.
 Normal termination of Gaussian 09 at Tue Jan 28 08:14:35 2020.

 ----------------------------------------------------------------------
 #N Geom=AllCheck Guess=TCheck SCRF=Check GenChk RB3LYP/6-31G(2df,p) Fr
 eq
 ----------------------------------------------------------------------

 Structure from the checkpoint file:  "/scratch/puck/g09_99efeb1f-4a2a-4a30-bca4-a4a99d341266/Gau-17841.chk"
 -----
 titel
 -----
 Charge =  0 Multiplicity = 1

                         Standard orientation:
 ---------------------------------------------------------------------
 Center     Atomic      Atomic             Coordinates (Angstroms)
 Number     Number       Type             X           Y           Z
 ---------------------------------------------------------------------
      1          6           0        2.416713   -0.217394    0.308155
      2          6           0        1.166874   -0.320117   -0.572916
      3          6           0        0.549331    1.067727   -0.901254
      4          8           0       -0.292188    1.589864    0.135207
      5          6           0       -1.127278    0.605255    0.721980
      6          8           0       -0.329915   -0.418148    1.281669
      7          6           0        0.067930   -1.163803    0.120827
      8          6           0       -1.208827   -1.184815   -0.710731
      9          6           0       -1.940282   -0.140229   -0.334691
     10          1           0        2.176102    0.273150    1.254075
     11          1           0        2.823399   -1.209291    0.533715
     12          1           0        3.200601    0.359185   -0.193347
     13          1           0        1.436663   -0.788880   -1.528723
     14          1           0        1.336198    1.814235   -1.041113
     15          1           0       -0.018937    0.999737   -1.837318
     16          1           0       -1.681913    1.110486    1.513499
     17          1           0        0.433083   -2.143621    0.439931
     18          1           0       -1.405069   -1.887351   -1.510090
     19          1           0       -2.870077    0.218877   -0.753854
 ---------------------------------------------------------------------

 SCF Done:  E(RB3LYP) =  -423.191838170     A.U. after    1 cycles

 The electronic state is 1-A.
 Alpha  occ. eigenvalues --  -19.13873 -19.13848 -10.27536 -10.23766 -10.22551
 Alpha  occ. eigenvalues --  -10.19328 -10.19201 -10.18703 -10.17130  -1.07459
 Alpha  occ. eigenvalues --   -0.99829  -0.80817  -0.78643  -0.70611  -0.67130
 Alpha  occ. eigenvalues --   -0.63103  -0.56743  -0.53849  -0.53135  -0.48072
 Alpha  occ. eigenvalues --   -0.46854  -0.46111  -0.42146  -0.41335  -0.40330
 Alpha  occ. eigenvalues --   -0.39371  -0.37132  -0.36307  -0.34527  -0.33397
 Alpha  occ. eigenvalues --   -0.30714  -0.26897  -0.25827  -0.25057
 Alpha virt. eigenvalues --   -0.00055   0.09145   0.11686   0.12374   0.13448
 Alpha virt. eigenvalues --    0.14624   0.15115   0.15723   0.16222   0.16613
 Alpha virt. eigenvalues --    0.16994   0.19262   0.19871   0.20845   0.22275

 Mulliken charges:
               1
     1  C   -0.402390
     2  C    0.006893
     3  C   -0.084568
     4  O   -0.268398
     5  C    0.143422
     6  O   -0.240991
     7  C    0.026076
     8  C   -0.103353
     9  C   -0.104582
    10  H    0.144023
    11  H    0.108449
    12  H    0.109202
    13  H    0.071291
    14  H    0.107157
    15  H    0.095727
    16  H    0.090937
    17  H    0.079866
    18  H    0.109253
    19  H    0.111987
 Sum of Mulliken charges =   0.00000

 Dipole moment (field-independent basis, Debye):
    X=             -0.0681    Y=             -1.0820    Z=             -1.8870  Tot=              2.1763
 Quadrupole moment (field-independent basis, Debye-Ang):
   XX=            -49.8946   YY=            -53.9908   ZZ=            -53.8925
   XY=             -0.8265   XZ=             -0.2896   YZ=              1.4132

  Exact polarizability:  83.444  -4.262  72.741   0.137   3.652  65.236
 Approx polarizability: 113.241 -11.942 117.333  -3.375   9.157 102.016

                      1                      2                      3
                      A                      A                      A
 Frequencies --    155.4314               214.8512               242.4711
 Red. masses --      2.6795                 1.2687                 2.3532
 Frc consts  --      0.0381                 0.0345                 0.0815
 IR Inten    --      1.1546                 0.7885                 1.6277

                      4                      5                      6
                      A                      A                      A
 Frequencies --    310.4531               364.8496               420.1448
 Red. masses --      3.6049                 2.2323                 2.5572
 Frc consts  --      0.2047                 0.1751                 0.2660
 IR Inten    --      2.1286                 0.6831                 1.4114

                      7                      8                      9
                      A                      A                      A
 Frequencies --    472.4888               519.4114               612.1214
 Red. masses --      3.8302                 4.5916                 4.4831
 Frc consts  --      0.5038                 0.7299                 0.9897
 IR Inten    --      2.9964                 9.4482                 4.4206

                     10                     11                     12
                      A                      A                      A
 Frequencies --    701.5822               734.6739               788.1980
 Red. masses --      4.6358                 1.5444                 3.8992
 Frc consts  --      1.3444                 0.4911                 1.4272
 IR Inten    --      6.1250                15.9983                 7.5914

                     13                     14                     15
                      A                      A                      A
 Frequencies --    835.3497               846.4972               887.7844
 Red. masses --      4.0867                 3.2327                 3.0386
 Frc consts  --      1.6802                 1.3648                 1.4110
 IR Inten    --      1.4344                 3.1746                12.4738

                     16                     17                     18
                      A                      A                      A
 Frequencies --    917.4934               936.5903               942.9715
 Red. masses --      1.9933                 2.0230                 1.9546
 Frc consts  --      0.9886                 1.0455                 1.0240
 IR Inten    --      7.1480                23.0490                19.4559

                     19                     20                     21
                      A                      A                      A
 Frequencies --    954.5872               963.3697               994.7682
 Red. masses --      1.6824                 2.2286                 4.9473
 Frc consts  --      0.9033                 1.2186                 2.8844
 IR Inten    --      7.2387                47.6032                72.9211

                     22                     23                     24
                      A                      A                      A
 Frequencies --   1001.6027              1045.1574              1108.5173
 Red. masses --      2.0037                 1.6977                 1.7707
 Frc consts  --      1.1843                 1.0926                 1.2820
 IR Inten    --     14.9958                28.8494                 7.5551

                     25                     26                     27
                      A                      A                      A
 Frequencies --   1127.5561              1136.7776              1158.3607
 Red. masses --      4.2385                 1.8929                 1.7809
 Frc consts  --      3.1750                 1.4412                 1.4079
 IR Inten    --     88.5618                11.5970                 3.5520

                     28                     29                     30
                      A                      A                      A
 Frequencies --   1259.9591              1277.6229              1293.1149
 Red. masses --      1.4582                 1.2565                 1.1638
 Frc consts  --      1.3639                 1.2084                 1.1466
 IR Inten    --     15.9024                 2.1704                 1.8291

                     31                     32                     33
                      A                      A                      A
 Frequencies --   1319.9657              1332.3733              1357.0823
 Red. masses --      1.4911                 1.6075                 1.4361
 Frc consts  --      1.5307                 1.6814                 1.5583
 IR Inten    --      7.8616                 6.4914                15.0034

                     34                     35                     36
                      A                      A                      A
 Frequencies --   1366.1489              1372.9488              1399.2918
 Red. masses --      1.4983                 1.2685                 1.2614
 Frc consts  --      1.6476                 1.4088                 1.4552
 IR Inten    --      2.2245                 3.5476                 4.7897

                     37                     38                     39
                      A                      A                      A
 Frequencies --   1417.2488              1491.6904              1502.6010
 Red. masses --      1.2624                 1.0506                 1.0736
 Frc consts  --      1.4939                 1.3773                 1.4281
 IR Inten    --      5.4409                 4.9078                 5.2752

                     40                     41                     42
                      A                      A                      A
 Frequencies --   1505.1589              1660.0533              3012.6822
 Red. masses --      1.0542                 6.3445                 1.0757
 Frc consts  --      1.4071                10.3014                 5.7526
 IR Inten    --      2.7918                 1.1282                10.1015

                     43                     44                     45
                      A                      A                      A
 Frequencies --   3027.4195              3035.8996              3077.4331
 Red. masses --      1.0695                 1.0409                 1.0880
 Frc consts  --      5.7751                 5.6524                 6.0708
 IR Inten    --     67.3574                26.7404                36.5757

                     46                     47                     48
                      A                      A                      A
 Frequencies --   3085.3524              3096.8916              3117.0589
 Red. masses --      1.0986                 1.1007                 1.0906
 Frc consts  --      6.1619                 6.2200                 6.2433
 IR Inten    --     24.3119                40.0080                37.6889

                     49                     50                     51
                      A                      A                      A
 Frequencies --   3131.0675              3213.0757              3240.0183
 Red. masses --      1.0996                 1.0864                 1.1077
 Frc consts  --      6.3514                 6.6084                 6.8514
 IR Inten    --     13.4559                 3.3087                 6.4489

 - Thermochemistry -
 -------------------
 Temperature   298.150 Kelvin.  Pressure   1.00000 Atm.
 Atom     1 has atomic number  6 and mass  12.00000

 Molecular mass:   126.06808 amu.
 Principal axes and moments of inertia in atomic units:
                           1         2         3
     Eigenvalues --   649.265671001.954511156.58381
           X            0.99984  -0.01255   0.01288
           Y            0.01239   0.99985   0.01246
           Z           -0.01303  -0.01230   0.99984
 This molecule is an asymmetric top.
 Rotational symmetry number  1.
 Warning -- assumption of classical behavior for rotation
           may cause significant error
 Rotational temperatures (Kelvin)      0.13340     0.08644     0.07489
 Rotational constants (GHZ):           2.77967     1.80122     1.56041
 Zero-point vibrational energy     424591.9 (Joules/Mol)
                                  101.47989 (Kcal/Mol)
 Warning -- explicit consideration of   9 degrees of freedom as
           vibrations may cause significant error
 Vibrational temperatures:    223.63   309.12   348.86   446.67   524.94
          (Kelvin)            604.49   679.81   747.32   880.71  1009.42
                             1057.03  1134.04  1201.88  1217.92  1277.32
                             1320.07  1347.54  1356.72  1373.44  1386.07
                             1431.25  1441.08  1503.75  1594.91  1622.30
                             1635.57  1666.62  1812.80  1838.21  1860.50
                             1899.13  1916.99  1952.54  1965.58  1975.36
                             2013.27  2039.10  2146.21  2161.91  2165.59
                             2388.44  4334.57  4355.78  4367.98  4427.73
                             4439.13  4455.73  4484.75  4504.90  4622.89
                             4661.66

 Zero-point correction=                           0.161719 (Hartree/Particle)
 Thermal correction to Energy=                    0.168893
 Thermal correction to Enthalpy=                  0.169837
 Thermal correction to Gibbs Free Energy=         0.130556
 Sum of electronic and zero-point Energies=           -423.030120
 Sum of electronic and thermal Energies=              -423.022945
 Sum of electronic and thermal Enthalpies=            -423.022001
 Sum of electronic and thermal Free Energies=         -423.061282

                     E (Thermal)             CV                S
                      KCal/Mol        Cal/Mol-Kelvin    Cal/Mol-Kelvin
 Total                  105.982             29.457             82.675
 Electronic               0.000              0.000              0.000
 Translational            0.889              2.981             40.409
 Rotational               0.889              2.981             28.111
 Vibrational            104.205             23.495             14.156
 Vibration     1          0.620              1.897              2.605
 Vibration     2          0.645              1.818              2.002
 Vibration     3          0.659              1.775              1.785
 Vibration     4          0.699              1.654              1.360
 Vibration     5          0.738              1.545              1.101
 Vibration     6          0.783              1.426              0.891
 Vibration     7          0.829              1.311              0.731
 Vibration     8          0.874              1.207              0.611
 Vibration     9          0.971              1.006              0.429

 Optimization completed.
    -- Stationary point found.
 Normal termination of Gaussian 09 at Tue Jan 28 09:02:46 2020.
