 Gaussian 09, Revision D.01,
 Gaussian 09:  ES64L-G09RevD.01 24-Apr-2013

 -----------------------------
 # b3lyp 6-31G(2df,p) opt Freq
 -----------------------------

 -----
 titel
 -----
 Symbolic Z-matrix:
 Charge =  0 Multiplicity = 1

 SCF Done:  E(RB3LYP) =  -423.112862825     A.U. after   14 cycles
 Optimization completed.
    -- Stationary point found.
 Normal termination of Gaussian 09 at Tue Jan 28 12:08:34 2020.

 ----------------------------------------------------------------------
 #N Geom=AllCheck Guess=TCheck SCRF=Check GenChk RB3LYP/6-31G(2df,p) Fr
 eq
 ----------------------------------------------------------------------

 Structure from the checkpoint file:  "/scratch/puck/g09_41c3ef05-ac10-4953-b2a7-34c85a98349f/Gau-138517.chk"
 -----
 titel
 -----
 Charge =  0 Multiplicity = 1

                         Standard orientation:
 ---------------------------------------------------------------------
 Center     Atomic      Atomic             Coordinates (Angstroms)
 Number     Number       Type             X           Y           Z
 ---------------------------------------------------------------------
      1          8           0       -2.733650   -0.424968   -0.361590
      2          6           0       -1.787520   -0.065354    0.637983
      3          6           0       -0.393824    0.085354    0.078104
      4          6           0       -0.077169    1.297737   -0.823614
      5          8           0        1.091266    1.631350   -0.023656
      6          6           0        0.807141    0.567022    0.915885
      7          6           0        1.537787   -0.774630    0.694209
      8          6           0        1.745674   -1.024521   -0.769912
      9          6           0        0.372825   -1.238686   -0.199518
     10          1           0       -2.473957   -1.279965   -0.719958
     11          1           0       -2.136091    0.891421    1.041680
     12          1           0       -1.782733   -0.791024    1.467632
     13          1           0        0.177787    1.101453   -1.870638
     14          1           0       -0.830543    2.093651   -0.777050
     15          1           0        0.725776    0.917238    1.948384
     16          1           0        2.079416   -1.319403    1.457947
     17          1           0        1.967660   -0.194484   -1.431236
     18          1           0        2.284122   -1.937468   -1.003168
     19          1           0       -0.101845   -2.214012   -0.230453
 ---------------------------------------------------------------------

 SCF Done:  E(RB3LYP) =  -423.112862825     A.U. after    1 cycles

 The electronic state is 1-A.
 Alpha  occ. eigenvalues --  -19.14001 -19.13199 -10.23519 -10.23229 -10.22603
 Alpha  occ. eigenvalues --  -10.20308 -10.19735 -10.19609 -10.19258  -1.03761
 Alpha  occ. eigenvalues --   -1.01943  -0.88703  -0.76037  -0.69720  -0.66438
 Alpha  occ. eigenvalues --   -0.61359  -0.58138  -0.53482  -0.51659  -0.50180
 Alpha  occ. eigenvalues --   -0.48154  -0.45733  -0.44404  -0.42596  -0.40627
 Alpha  occ. eigenvalues --   -0.39141  -0.37469  -0.34385  -0.32285  -0.30567
 Alpha  occ. eigenvalues --   -0.30151  -0.27064  -0.25037  -0.24788
 Alpha virt. eigenvalues --    0.04991   0.07592   0.10114   0.10754   0.11222
 Alpha virt. eigenvalues --    0.12749   0.14476   0.15136   0.15991   0.16481
 Alpha virt. eigenvalues --    0.17029   0.17962   0.18929   0.21266   0.22051

 Mulliken charges:
               1
     1  O   -0.417965
     2  C   -0.176661
     3  C    0.297187
     4  C   -0.145343
     5  O   -0.301388
     6  C    0.047472
     7  C   -0.058176
     8  C   -0.302199
     9  C   -0.130462
    10  H    0.285353
    11  H    0.112173
    12  H    0.089665
    13  H    0.103377
    14  H    0.105755
    15  H    0.076585
    16  H    0.087502
    17  H    0.133795
    18  H    0.113701
    19  H    0.079627
 Sum of Mulliken charges =   0.00000

 Dipole moment (field-independent basis, Debye):
    X=              0.1511    Y=             -2.2245    Z=              0.4451  Tot=              2.2737
 Quadrupole moment (field-independent basis, Debye-Ang):
   XX=            -60.0056   YY=            -52.1708   ZZ=            -50.5968
   XY=             -2.1403   XZ=             -0.4041   YZ=              0.8623

  Exact polarizability:  77.533  -4.954  73.437   0.531   0.491  70.331
 Approx polarizability: 109.149  -2.020 108.233   4.712   1.696 108.162

                      1                      2                      3
                      A                      A                      A
 Frequencies --     90.2943               147.7001               209.2939
 Red. masses --      3.7688                 3.7422                 2.7207
 Frc consts  --      0.0181                 0.0481                 0.0702
 IR Inten    --      1.9841                 1.4409                 4.4968

                      4                      5                      6
                      A                      A                      A
 Frequencies --    272.7567               311.9604               340.6494
 Red. masses --      1.7571                 1.6336                 4.4352
 Frc consts  --      0.0770                 0.0937                 0.3032
 IR Inten    --     46.5488                55.1251                 1.6527

                      7                      8                      9
                      A                      A                      A
 Frequencies --    362.7703               449.9417               564.5112
 Red. masses --      2.0274                 2.6232                 3.1820
 Frc consts  --      0.1572                 0.3129                 0.5974
 IR Inten    --     19.8908                 0.7309                 4.1056

                     10                     11                     12
                      A                      A                      A
 Frequencies --    664.5451               680.5771               759.3051
 Red. masses --      3.3252                 3.9861                 1.9543
 Frc consts  --      0.8652                 1.0878                 0.6639
 IR Inten    --      2.5076                 3.6560                 7.1371

                     13                     14                     15
                      A                      A                      A
 Frequencies --    826.4945               855.0631               898.1819
 Red. masses --      2.1331                 2.6557                 2.1095
 Frc consts  --      0.8585                 1.1440                 1.0027
 IR Inten    --     21.1949                 0.5473                 7.0864

                     16                     17                     18
                      A                      A                      A
 Frequencies --    919.0539               947.5405               956.2447
 Red. masses --      1.9242                 1.6685                 1.5541
 Frc consts  --      0.9576                 0.8826                 0.8373
 IR Inten    --     15.9759                11.8573                 4.6082

                     19                     20                     21
                      A                      A                      A
 Frequencies --    978.4187               985.1942              1021.1896
 Red. masses --      5.4737                 2.5143                 2.0067
 Frc consts  --      3.0873                 1.4378                 1.2329
 IR Inten    --     61.9205                14.7828                 3.6695

                     22                     23                     24
                      A                      A                      A
 Frequencies --   1036.0072              1049.7362              1056.9300
 Red. masses --      2.5805                 2.3895                 1.3053
 Frc consts  --      1.6318                 1.5514                 0.8591
 IR Inten    --     66.0186                30.7678                 8.8339

                     25                     26                     27
                      A                      A                      A
 Frequencies --   1086.6205              1092.1088              1134.1897
 Red. masses --      1.3801                 2.8520                 1.5026
 Frc consts  --      0.9601                 2.0042                 1.1389
 IR Inten    --     10.0271                19.9394                 7.0707

                     28                     29                     30
                      A                      A                      A
 Frequencies --   1153.3492              1183.6623              1195.3784
 Red. masses --      1.2007                 1.6625                 2.1245
 Frc consts  --      0.9410                 1.3723                 1.7886
 IR Inten    --      9.6984                 0.9060                 0.5249

                     31                     32                     33
                      A                      A                      A
 Frequencies --   1245.1676              1268.1631              1298.1735
 Red. masses --      1.7538                 1.5421                 1.8077
 Frc consts  --      1.6021                 1.4612                 1.7949
 IR Inten    --      3.2762                 4.0497                10.4411

                     34                     35                     36
                      A                      A                      A
 Frequencies --   1308.3939              1340.5414              1375.8479
 Red. masses --      1.8281                 1.6207                 1.3088
 Frc consts  --      1.8439                 1.7160                 1.4597
 IR Inten    --      0.4820                 3.3260                 1.2882

                     37                     38                     39
                      A                      A                      A
 Frequencies --   1381.2789              1419.5412              1489.3291
 Red. masses --      1.9305                 1.3312                 1.2062
 Frc consts  --      2.1701                 1.5805                 1.5763
 IR Inten    --      2.0578                64.5504                 2.4078

                     40                     41                     42
                      A                      A                      A
 Frequencies --   1500.7165              1524.2172              2972.7673
 Red. masses --      1.0899                 1.0954                 1.0698
 Frc consts  --      1.4463                 1.4994                 5.5701
 IR Inten    --      2.6190                 0.9681                53.8290

                     43                     44                     45
                      A                      A                      A
 Frequencies --   3020.0582              3067.4775              3072.1314
 Red. masses --      1.0569                 1.0965                 1.1030
 Frc consts  --      5.6794                 6.0789                 6.1334
 IR Inten    --     59.7483                12.1953                22.2014

                     46                     47                     48
                      A                      A                      A
 Frequencies --   3074.3835              3135.0241              3156.6068
 Red. masses --      1.0911                 1.0538                 1.0904
 Frc consts  --      6.0759                 6.1024                 6.4015
 IR Inten    --     72.5052                14.0331                21.0695

                     49                     50                     51
                      A                      A                      A
 Frequencies --   3183.4062              3217.9271              3815.0269
 Red. masses --      1.0957                 1.1149                 1.0661
 Frc consts  --      6.5425                 6.8023                 9.1419
 IR Inten    --     17.6908                 7.0040                13.7474

 - Thermochemistry -
 -------------------
 Temperature   298.150 Kelvin.  Pressure   1.00000 Atm.
 Atom     1 has atomic number  8 and mass  15.99491

 Molecular mass:   126.06808 amu.
 Principal axes and moments of inertia in atomic units:
                           1         2         3
     Eigenvalues --   654.632261206.631771464.09680
           X            0.99926  -0.03551  -0.01471
           Y            0.03545   0.99936  -0.00437
           Z            0.01485   0.00384   0.99988
 This molecule is an asymmetric top.
 Rotational symmetry number  1.
 Warning -- assumption of classical behavior for rotation
           may cause significant error
 Rotational temperatures (Kelvin)      0.13231     0.07178     0.05916
 Rotational constants (GHZ):           2.75688     1.49569     1.23267
 Zero-point vibrational energy     419266.3 (Joules/Mol)
                                  100.20704 (Kcal/Mol)
 Warning -- explicit consideration of   9 degrees of freedom as
           vibrations may cause significant error
 Vibrational temperatures:    129.91   212.51   301.13   392.44   448.84
          (Kelvin)            490.12   521.94   647.36   812.20   956.13
                              979.20  1092.47  1189.14  1230.24  1292.28
                             1322.31  1363.30  1375.82  1407.72  1417.47
                             1469.26  1490.58  1510.33  1520.68  1563.40
                             1571.30  1631.84  1659.41  1703.02  1719.88
                             1791.52  1824.60  1867.78  1882.48  1928.74
                             1979.54  1987.35  2042.40  2142.81  2159.19
                             2193.01  4277.14  4345.18  4413.41  4420.11
                             4423.35  4510.59  4541.65  4580.21  4629.87
                             5488.97

 Zero-point correction=                           0.159690 (Hartree/Particle)
 Thermal correction to Energy=                    0.167592
 Thermal correction to Enthalpy=                  0.168536
 Thermal correction to Gibbs Free Energy=         0.127313
 Sum of electronic and zero-point Energies=           -422.953173
 Sum of electronic and thermal Energies=              -422.945271
 Sum of electronic and thermal Enthalpies=            -422.944327
 Sum of electronic and thermal Free Energies=         -422.985550

                     E (Thermal)             CV                S
                      KCal/Mol        Cal/Mol-Kelvin    Cal/Mol-Kelvin
 Total                  105.165             31.076             86.760
 Electronic               0.000              0.000              0.000
 Translational            0.889              2.981             40.409
 Rotational               0.889              2.981             28.538
 Vibrational            103.388             25.114             17.814
 Vibration     1          0.602              1.956              3.654
 Vibration     2          0.617              1.905              2.702
 Vibration     3          0.642              1.827              2.050
 Vibration     4          0.676              1.724              1.579
 Vibration     5          0.700              1.651              1.352
 Vibration     6          0.720              1.594              1.209
 Vibration     7          0.737              1.549              1.110
 Vibration     8          0.809              1.361              0.796
 Vibration     9          0.920              1.108              0.515

 Normal termination of Gaussian 09 at Tue Jan 28 12:51:37 2020.
