 Gaussian 09, Revision D.01,
 Gaussian 09:  ES64L-G09RevD.01 24-Apr-2013

 -----------------------------
 # b3lyp 6-31G(2df,p) opt Freq
 -----------------------------

 -----
 titel
 -----
 Symbolic Z-matrix:
 Charge =  0 Multiplicity = 1

 SCF Done:  E(RB3LYP) =  -423.127148910     A.U. after   12 cycles
 Optimization completed.
    -- Stationary point found.
 Normal termination of Gaussian 09 at Mon Jan 27 22:02:12 2020.

 ----------------------------------------------------------------------
 #N Geom=AllCheck Guess=TCheck SCRF=Check GenChk RB3LYP/6-31G(2df,p) Fr
 eq
 ----------------------------------------------------------------------

 Structure from the checkpoint file:  "/scratch/puck/g09_82d9336c-c61b-4ab5-8425-ba2910771af3/Gau-98643.chk"
 -----
 titel
 -----
 Charge =  0 Multiplicity = 1

                         Standard orientation:
 ---------------------------------------------------------------------
 Center     Atomic      Atomic             Coordinates (Angstroms)
 Number     Number       Type             X           Y           Z
 ---------------------------------------------------------------------
      1          6           0        0.000040    2.308950   -0.410246
      2          6           0        0.000013    0.877128    0.019076
      3          6           0        0.767704    0.130244    1.094385
      4          6           0       -0.767715    0.130270    1.094375
      5          6           0       -1.222795   -0.943494    0.106948
      6          8           0       -2.487964   -0.700237   -0.468008
      7          6           0       -0.000008   -0.524348   -0.755095
      8          6           0        1.222771   -0.943517    0.106948
      9          8           0        2.487947   -0.700279   -0.468003
     10          1           0        0.882454    2.557858   -1.012155
     11          1           0       -0.882393    2.557909   -1.012105
     12          1           0        0.000084    2.971494    0.462430
     13          1           0        1.326319    0.544640    1.926270
     14          1           0       -1.326330    0.544685    1.926251
     15          1           0       -1.251311   -1.986007    0.441701
     16          1           0       -2.531643    0.235738   -0.695947
     17          1           0       -0.000009   -0.683246   -1.832464
     18          1           0        1.251267   -1.986033    0.441695
     19          1           0        2.531640    0.235696   -0.695940
 ---------------------------------------------------------------------

 SCF Done:  E(RB3LYP) =  -423.127148910     A.U. after    1 cycles

 The electronic state is 1-A.
 Alpha  occ. eigenvalues --  -19.13629 -19.13628 -10.23458 -10.23457 -10.20746
 Alpha  occ. eigenvalues --  -10.19581 -10.19524 -10.19503 -10.18858  -1.02550
 Alpha  occ. eigenvalues --   -1.01879  -0.92322  -0.74507  -0.70332  -0.69346
 Alpha  occ. eigenvalues --   -0.62309  -0.57532  -0.52798  -0.52293  -0.48489
 Alpha  occ. eigenvalues --   -0.46597  -0.45162  -0.43225  -0.42099  -0.41600
 Alpha  occ. eigenvalues --   -0.37983  -0.37145  -0.36070  -0.34778  -0.31936
 Alpha  occ. eigenvalues --   -0.29250  -0.26388  -0.25555  -0.24003
 Alpha virt. eigenvalues --    0.06344   0.07570   0.10080   0.10806   0.10928
 Alpha virt. eigenvalues --    0.12885   0.13521   0.14973   0.15481   0.16407
 Alpha virt. eigenvalues --    0.16844   0.17942   0.21000   0.22163   0.22977

 Mulliken charges:
               1
     1  C   -0.526630
     2  C    0.300106
     3  C   -0.167324
     4  C   -0.167323
     5  C    0.153109
     6  O   -0.445464
     7  C   -0.196969
     8  C    0.153109
     9  O   -0.445464
    10  H    0.118938
    11  H    0.118937
    12  H    0.129535
    13  H    0.089955
    14  H    0.089955
    15  H    0.082676
    16  H    0.277125
    17  H    0.075928
    18  H    0.082675
    19  H    0.277125
 Sum of Mulliken charges =   0.00000

 Dipole moment (field-independent basis, Debye):
    X=              0.0000    Y=              2.6405    Z=              0.3558  Tot=              2.6644
 Quadrupole moment (field-independent basis, Debye-Ang):
   XX=            -61.0287   YY=            -51.7087   ZZ=            -51.8156
   XY=              0.0001   XZ=              0.0000   YZ=             -1.7064

  Exact polarizability:  78.250   0.000  78.140   0.000  -1.626  68.060
 Approx polarizability: 114.363   0.000 112.324   0.000  -3.517 106.250

                      1                      2                      3
                      A                      A                      A
 Frequencies --    141.3000               164.4471               200.3021
 Red. masses --      3.3709                 4.5935                 1.0175
 Frc consts  --      0.0397                 0.0732                 0.0241
 IR Inten    --      0.5984                 2.4743                 0.2840

                      4                      5                      6
                      A                      A                      A
 Frequencies --    244.5237               288.5232               289.2731
 Red. masses --      2.0954                 2.9443                 1.1926
 Frc consts  --      0.0738                 0.1444                 0.0588
 IR Inten    --     13.2847                 1.1650                 5.5616

                      7                      8                      9
                      A                      A                      A
 Frequencies --    351.0564               352.2282               417.8574
 Red. masses --      2.3232                 1.5024                 3.5906
 Frc consts  --      0.1687                 0.1098                 0.3694
 IR Inten    --     17.0449               117.6630                 4.7231

                     10                     11                     12
                      A                      A                      A
 Frequencies --    460.8498               549.6972               595.9130
 Red. masses --      5.3026                 4.1216                 3.2241
 Frc consts  --      0.6635                 0.7338                 0.6746
 IR Inten    --      2.1035                 1.3261                 3.5170

                     13                     14                     15
                      A                      A                      A
 Frequencies --    785.7682               816.1505               839.6646
 Red. masses --      3.3873                 3.1104                 2.1841
 Frc consts  --      1.2322                 1.2207                 0.9073
 IR Inten    --     11.7612                 2.1008                 1.7608

                     16                     17                     18
                      A                      A                      A
 Frequencies --    853.8684               858.6895               906.8702
 Red. masses --      2.2868                 1.8154                 2.4919
 Frc consts  --      0.9824                 0.7887                 1.2075
 IR Inten    --      3.1522                10.0787                 5.4885

                     19                     20                     21
                      A                      A                      A
 Frequencies --    976.0806               983.0079              1002.2173
 Red. masses --      1.8813                 1.6876                 1.6045
 Frc consts  --      1.0560                 0.9608                 0.9496
 IR Inten    --      0.0058                 1.1032                 5.8760

                     22                     23                     24
                      A                      A                      A
 Frequencies --   1011.2069              1053.0400              1062.7352
 Red. masses --      1.6626                 2.4334                 2.6785
 Frc consts  --      1.0017                 1.5899                 1.7824
 IR Inten    --     24.1724                11.6817               136.9046

                     25                     26                     27
                      A                      A                      A
 Frequencies --   1086.1709              1108.6806              1156.7563
 Red. masses --      2.7112                 1.6523                 1.7200
 Frc consts  --      1.8846                 1.1966                 1.3560
 IR Inten    --     37.0270                 3.7858                 0.9913

                     28                     29                     30
                      A                      A                      A
 Frequencies --   1159.5382              1167.9178              1227.6414
 Red. masses --      1.5846                 2.3286                 2.5741
 Frc consts  --      1.2553                 1.8714                 2.2857
 IR Inten    --    105.5384                 3.7766                 6.2727

                     31                     32                     33
                      A                      A                      A
 Frequencies --   1237.2241              1277.3101              1281.7050
 Red. masses --      1.3905                 1.6602                 1.5349
 Frc consts  --      1.2540                 1.5959                 1.4856
 IR Inten    --      7.1144                 3.1016                19.1038

                     34                     35                     36
                      A                      A                      A
 Frequencies --   1291.1082              1300.3727              1411.7250
 Red. masses --      1.5405                 1.7341                 1.2597
 Frc consts  --      1.5130                 1.7277                 1.4792
 IR Inten    --      1.4350                 0.2439                 2.0404

                     37                     38                     39
                      A                      A                      A
 Frequencies --   1432.4158              1439.1908              1449.9544
 Red. masses --      1.3081                 1.5036                 2.8661
 Frc consts  --      1.5814                 1.8350                 3.5501
 IR Inten    --    148.7233                19.0129                 6.1474

                     40                     41                     42
                      A                      A                      A
 Frequencies --   1481.2724              1497.8291              3014.7842
 Red. masses --      1.0455                 1.0542                 1.0358
 Frc consts  --      1.3515                 1.3935                 5.5469
 IR Inten    --      6.3539                 3.8741                43.1201

                     43                     44                     45
                      A                      A                      A
 Frequencies --   3049.4742              3060.3824              3068.4875
 Red. masses --      1.0849                 1.0858                 1.1006
 Frc consts  --      5.9442                 5.9917                 6.1058
 IR Inten    --      4.5253               101.5508                25.6173

                     46                     47                     48
                      A                      A                      A
 Frequencies --   3087.9057              3135.7126              3174.6929
 Red. masses --      1.0996                 1.0915                 1.0912
 Frc consts  --      6.1776                 6.3233                 6.4797
 IR Inten    --     17.4870                20.6216                 8.0345

                     49                     50                     51
                      A                      A                      A
 Frequencies --   3184.8746              3791.0787              3791.7697
 Red. masses --      1.0947                 1.0652                 1.0652
 Frc consts  --      6.5422                 9.0202                 9.0233
 IR Inten    --     21.0904                 4.7884                11.3633

 - Thermochemistry -
 -------------------
 Temperature   298.150 Kelvin.  Pressure   1.00000 Atm.
 Atom     1 has atomic number  6 and mass  12.00000

 Molecular mass:   126.06808 amu.
 Principal axes and moments of inertia in atomic units:
                           1         2         3
     Eigenvalues --   729.900241173.326391479.48078
           X            1.00000   0.00000   0.00000
           Y            0.00000   0.99957  -0.02935
           Z            0.00000   0.02935   0.99957
 This molecule is an asymmetric top.
 Rotational symmetry number  1.
 Warning -- assumption of classical behavior for rotation
           may cause significant error
 Rotational temperatures (Kelvin)      0.11867     0.07382     0.05854
 Rotational constants (GHZ):           2.47259     1.53814     1.21985
 Zero-point vibrational energy     416128.5 (Joules/Mol)
                                   99.45709 (Kcal/Mol)
 Warning -- explicit consideration of  12 degrees of freedom as
           vibrations may cause significant error
 Vibrational temperatures:    203.30   236.60   288.19   351.81   415.12
          (Kelvin)            416.20   505.09   506.78   601.20   663.06
                              790.89   857.38  1130.54  1174.26  1208.09
                             1228.52  1235.46  1304.78  1404.36  1414.33
                             1441.97  1454.90  1515.09  1529.04  1562.76
                             1595.14  1664.31  1668.31  1680.37  1766.30
                             1780.09  1837.76  1844.09  1857.61  1870.94
                             2031.15  2060.92  2070.67  2086.16  2131.22
                             2155.04  4337.60  4387.51  4403.20  4414.86
                             4442.80  4511.59  4567.67  4582.32  5454.51
                             5455.50

 Zero-point correction=                           0.158495 (Hartree/Particle)
 Thermal correction to Energy=                    0.166982
 Thermal correction to Enthalpy=                  0.167926
 Thermal correction to Gibbs Free Energy=         0.125971
 Sum of electronic and zero-point Energies=           -422.968654
 Sum of electronic and thermal Energies=              -422.960167
 Sum of electronic and thermal Enthalpies=            -422.959223
 Sum of electronic and thermal Free Energies=         -423.001178

                     E (Thermal)             CV                S
                      KCal/Mol        Cal/Mol-Kelvin    Cal/Mol-Kelvin
 Total                  104.783             33.311             88.303
 Electronic               0.000              0.000              0.000
 Translational            0.889              2.981             40.409
 Rotational               0.889              2.981             28.629
 Vibrational            103.005             27.350             19.266
 Vibration     1          0.615              1.912              2.786
 Vibration     2          0.623              1.886              2.498
 Vibration     3          0.638              1.839              2.130
 Vibration     4          0.660              1.772              1.770
 Vibration     5          0.685              1.695              1.483
 Vibration     6          0.686              1.694              1.478
 Vibration     7          0.728              1.573              1.161
 Vibration     8          0.729              1.571              1.156
 Vibration     9          0.781              1.431              0.899
 Vibration    10          0.819              1.337              0.764
 Vibration    11          0.905              1.140              0.545
 Vibration    12          0.954              1.040              0.457

 Optimization completed.
    -- Stationary point found.
 Normal termination of Gaussian 09 at Mon Jan 27 22:53:32 2020.
