 Gaussian 09, Revision D.01,
 Gaussian 09:  ES64L-G09RevD.01 24-Apr-2013

 -----------------------------
 # b3lyp 6-31G(2df,p) opt Freq
 -----------------------------

 -----
 titel
 -----
 Symbolic Z-matrix:
 Charge =  0 Multiplicity = 1

 SCF Done:  E(RB3LYP) =  -423.125576643     A.U. after   14 cycles
 Optimization completed.
    -- Stationary point found.
 Normal termination of Gaussian 09 at Mon Jan 27 17:51:52 2020.

 ----------------------------------------------------------------------
 #N Geom=AllCheck Guess=TCheck SCRF=Check GenChk RB3LYP/6-31G(2df,p) Fr
 eq
 ----------------------------------------------------------------------

 Structure from the checkpoint file:  "/scratch/puck/g09_c129dc03-89ac-4960-8b0f-07dacc379ad4/Gau-45631.chk"
 -----
 titel
 -----
 Charge =  0 Multiplicity = 1

                         Standard orientation:
 ---------------------------------------------------------------------
 Center     Atomic      Atomic             Coordinates (Angstroms)
 Number     Number       Type             X           Y           Z
 ---------------------------------------------------------------------
      1          6           0       -1.209086    1.893447   -0.221415
      2          6           0       -0.935276    0.438881   -0.024041
      3          8           0       -1.696800   -0.268430    0.972617
      4          6           0       -1.679240   -0.786477   -0.366784
      5          6           0       -0.388943   -1.601151   -0.508093
      6          6           0        0.407121   -0.319647   -0.103977
      7          6           0        1.406820   -0.234592    1.060840
      8          8           0        2.396084    0.399511    0.218494
      9          6           0        1.578445    0.212115   -0.951910
     10          1           0       -0.802442    2.246272   -1.174193
     11          1           0       -2.286509    2.077428   -0.211868
     12          1           0       -0.754388    2.488265    0.578920
     13          1           0       -2.637438   -0.922233   -0.855656
     14          1           0       -0.303370   -2.466681    0.154297
     15          1           0       -0.178409   -1.904826   -1.537949
     16          1           0        1.111342    0.396114    1.907458
     17          1           0        1.754781   -1.204023    1.441645
     18          1           0        1.413015    1.150937   -1.495919
     19          1           0        2.010101   -0.525364   -1.643347
 ---------------------------------------------------------------------

 SCF Done:  E(RB3LYP) =  -423.125576643     A.U. after    1 cycles

 The electronic state is 1-A.
 Alpha  occ. eigenvalues --  -19.14982 -19.13066 -10.24297 -10.23749 -10.23183
 Alpha  occ. eigenvalues --  -10.22646 -10.20362 -10.19334 -10.19119  -1.07695
 Alpha  occ. eigenvalues --   -1.03561  -0.81016  -0.74810  -0.69719  -0.69051
 Alpha  occ. eigenvalues --   -0.62011  -0.59566  -0.52758  -0.50415  -0.49461
 Alpha  occ. eigenvalues --   -0.46265  -0.44797  -0.43186  -0.42061  -0.40628
 Alpha  occ. eigenvalues --   -0.40040  -0.39766  -0.37487  -0.33803  -0.32164
 Alpha  occ. eigenvalues --   -0.30511  -0.28341  -0.25705  -0.24305
 Alpha virt. eigenvalues --    0.07456   0.08244   0.09111   0.10956   0.11607
 Alpha virt. eigenvalues --    0.12293   0.13107   0.13603   0.14316   0.15922
 Alpha virt. eigenvalues --    0.16962   0.18655   0.18956   0.20025   0.21660

 Mulliken charges:
               1
     1  C   -0.512085
     2  C    0.348826
     3  O   -0.291441
     4  C   -0.038014
     5  C   -0.348431
     6  C    0.255870
     7  C   -0.127912
     8  O   -0.276135
     9  C   -0.144062
    10  H    0.127916
    11  H    0.137565
    12  H    0.137011
    13  H    0.103677
    14  H    0.112390
    15  H    0.107347
    16  H    0.109799
    17  H    0.100308
    18  H    0.100996
    19  H    0.096374
 Sum of Mulliken charges =   0.00000

 Dipole moment (field-independent basis, Debye):
    X=             -1.1123    Y=             -0.2451    Z=             -1.9007  Tot=              2.2158
 Quadrupole moment (field-independent basis, Debye-Ang):
   XX=            -59.8585   YY=            -50.5372   ZZ=            -52.4005
   XY=             -2.4255   XZ=              2.4316   YZ=              0.3369

  Exact polarizability:  77.197   0.242  77.343   0.370   1.083  69.108
 Approx polarizability: 106.952   4.574 109.545  -2.217   2.163 108.397

                      1                      2                      3
                      A                      A                      A
 Frequencies --     68.7685               120.6526               186.9314
 Red. masses --      4.0360                 3.0262                 1.1587
 Frc consts  --      0.0112                 0.0260                 0.0239
 IR Inten    --      4.5609                 2.8091                 0.3977

                      4                      5                      6
                      A                      A                      A
 Frequencies --    193.0159               244.2488               315.1444
 Red. masses --      2.3223                 2.1333                 2.2323
 Frc consts  --      0.0510                 0.0750                 0.1306
 IR Inten    --      0.7570                 0.5597                 0.7942

                      7                      8                      9
                      A                      A                      A
 Frequencies --    396.1042               444.0304               460.5111
 Red. masses --      2.3145                 3.9768                 2.8963
 Frc consts  --      0.2140                 0.4620                 0.3619
 IR Inten    --      0.6161                 4.1055                 3.4776

                     10                     11                     12
                      A                      A                      A
 Frequencies --    565.4161               642.7417               759.2137
 Red. masses --      4.0572                 3.3823                 4.5580
 Frc consts  --      0.7642                 0.8233                 1.5479
 IR Inten    --     10.1765                 0.7127                 5.4034

                     13                     14                     15
                      A                      A                      A
 Frequencies --    830.2354               854.8791               869.4297
 Red. masses --      2.6816                 2.9489                 2.5489
 Frc consts  --      1.0890                 1.2698                 1.1352
 IR Inten    --      0.7035                 4.1277                26.8776

                     16                     17                     18
                      A                      A                      A
 Frequencies --    887.8611               935.8171               972.7481
 Red. masses --      1.9703                 1.9456                 1.4173
 Frc consts  --      0.9151                 1.0039                 0.7902
 IR Inten    --      7.9232                 1.6235                 4.2274

                     19                     20                     21
                      A                      A                      A
 Frequencies --    983.9452               985.6467              1033.3955
 Red. masses --      1.7173                 3.2662                10.5395
 Frc consts  --      0.9796                 1.8695                 6.6314
 IR Inten    --      2.7874                14.3393                81.4870

                     22                     23                     24
                      A                      A                      A
 Frequencies --   1046.7096              1092.9828              1110.3423
 Red. masses --      1.8759                 2.0587                 1.8602
 Frc consts  --      1.2109                 1.4490                 1.3512
 IR Inten    --      5.9417                11.4719                 3.5715

                     25                     26                     27
                      A                      A                      A
 Frequencies --   1134.1813              1152.3667              1165.2809
 Red. masses --      2.0628                 1.0996                 1.3671
 Frc consts  --      1.5634                 0.8604                 1.0937
 IR Inten    --      1.9889                 0.8521                 6.6230

                     28                     29                     30
                      A                      A                      A
 Frequencies --   1199.8481              1215.1129              1217.6524
 Red. masses --      2.3337                 1.9245                 1.9156
 Frc consts  --      1.9795                 1.6742                 1.6734
 IR Inten    --      5.2115                 0.7171                12.6534

                     31                     32                     33
                      A                      A                      A
 Frequencies --   1265.3226              1303.8054              1309.3048
 Red. masses --      1.5719                 1.4179                 2.2101
 Frc consts  --      1.4828                 1.4201                 2.2322
 IR Inten    --      6.4413                 1.4314                 8.4348

                     34                     35                     36
                      A                      A                      A
 Frequencies --   1380.6794              1401.4813              1453.8360
 Red. masses --      1.6572                 1.2948                 1.9761
 Frc consts  --      1.8613                 1.4983                 2.4608
 IR Inten    --      4.2810                 4.1870                 8.0641

                     37                     38                     39
                      A                      A                      A
 Frequencies --   1474.1543              1484.9400              1492.4045
 Red. masses --      1.1744                 1.2327                 1.2527
 Frc consts  --      1.5037                 1.6016                 1.6439
 IR Inten    --      4.5511                10.4706                 4.9213

                     40                     41                     42
                      A                      A                      A
 Frequencies --   1507.3061              1531.6755              2993.8678
 Red. masses --      1.0795                 1.1099                 1.0554
 Frc consts  --      1.4450                 1.5341                 5.5738
 IR Inten    --      0.0888                 0.5699                92.4724

                     43                     44                     45
                      A                      A                      A
 Frequencies --   3011.0522              3034.8881              3040.7393
 Red. masses --      1.0603                 1.0437                 1.0989
 Frc consts  --      5.6636                 5.6639                 5.9865
 IR Inten    --     28.9216                 4.6563                50.0439

                     46                     47                     48
                      A                      A                      A
 Frequencies --   3053.3088              3059.3266              3098.3058
 Red. masses --      1.0585                 1.1069                 1.0992
 Frc consts  --      5.8138                 6.1039                 6.2170
 IR Inten    --     25.8509                42.0800                14.6644

                     49                     50                     51
                      A                      A                      A
 Frequencies --   3110.1733              3123.0475              3182.4428
 Red. masses --      1.1080                 1.1010                 1.0942
 Frc consts  --      6.3148                 6.3269                 6.5293
 IR Inten    --     17.3939                12.1699                22.8409

 - Thermochemistry -
 -------------------
 Temperature   298.150 Kelvin.  Pressure   1.00000 Atm.
 Atom     1 has atomic number  6 and mass  12.00000

 Molecular mass:   126.06808 amu.
 Principal axes and moments of inertia in atomic units:
                           1         2         3
     Eigenvalues --   643.658791224.122441430.18278
           X            0.99925  -0.03665   0.01236
           Y            0.03670   0.99932  -0.00416
           Z           -0.01220   0.00461   0.99991
 This molecule is an asymmetric top.
 Rotational symmetry number  1.
 Warning -- assumption of classical behavior for rotation
           may cause significant error
 Rotational temperatures (Kelvin)      0.13456     0.07076     0.06056
 Rotational constants (GHZ):           2.80388     1.47431     1.26190
 Zero-point vibrational energy     415087.9 (Joules/Mol)
                                   99.20838 (Kcal/Mol)
 Warning -- explicit consideration of  10 degrees of freedom as
           vibrations may cause significant error
 Vibrational temperatures:     98.94   173.59   268.95   277.71   351.42
          (Kelvin)            453.42   569.90   638.86   662.57   813.51
                              924.76  1092.34  1194.52  1229.98  1250.91
                             1277.43  1346.43  1399.57  1415.68  1418.12
                             1486.82  1505.98  1572.56  1597.53  1631.83
                             1658.00  1676.58  1726.31  1748.27  1751.93
                             1820.51  1875.88  1883.80  1986.49  2016.42
                             2091.74  2120.98  2136.49  2147.23  2168.67
                             2203.74  4307.50  4332.23  4366.52  4374.94
                             4393.02  4401.68  4457.77  4474.84  4493.36
                             4578.82

 Zero-point correction=                           0.158099 (Hartree/Particle)
 Thermal correction to Energy=                    0.166439
 Thermal correction to Enthalpy=                  0.167383
 Thermal correction to Gibbs Free Energy=         0.124961
 Sum of electronic and zero-point Energies=           -422.967478
 Sum of electronic and thermal Energies=              -422.959137
 Sum of electronic and thermal Enthalpies=            -422.958193
 Sum of electronic and thermal Free Energies=         -423.000616

                     E (Thermal)             CV                S
                      KCal/Mol        Cal/Mol-Kelvin    Cal/Mol-Kelvin
 Total                  104.442             31.504             89.286
 Electronic               0.000              0.000              0.000
 Translational            0.889              2.981             40.409
 Rotational               0.889              2.981             28.512
 Vibrational            102.665             25.543             20.365
 Vibration     1          0.598              1.969              4.188
 Vibration     2          0.609              1.932              3.090
 Vibration     3          0.632              1.858              2.258
 Vibration     4          0.635              1.850              2.199
 Vibration     5          0.660              1.772              1.772
 Vibration     6          0.703              1.645              1.335
 Vibration     7          0.763              1.478              0.977
 Vibration     8          0.804              1.374              0.814
 Vibration     9          0.818              1.338              0.765
 Vibration    10          0.921              1.106              0.513

 Optimization completed.
    -- Stationary point found.
 Normal termination of Gaussian 09 at Mon Jan 27 18:33:34 2020.
