 Gaussian 09, Revision D.01,
 Gaussian 09:  ES64L-G09RevD.01 24-Apr-2013

 -----------------------------
 # b3lyp 6-31G(2df,p) opt Freq
 -----------------------------

 -----
 titel
 -----
 Symbolic Z-matrix:
 Charge =  0 Multiplicity = 1

 SCF Done:  E(RB3LYP) =  -423.123180835     A.U. after   14 cycles
 Optimization completed.
    -- Stationary point found.
 Normal termination of Gaussian 09 at Tue Jan 28 12:10:12 2020.

 ----------------------------------------------------------------------
 #N Geom=AllCheck Guess=TCheck SCRF=Check GenChk RB3LYP/6-31G(2df,p) Fr
 eq
 ----------------------------------------------------------------------

 Structure from the checkpoint file:  "/scratch/puck/g09_f40eeb97-7249-413e-b2f2-2fcf14b0987f/Gau-129344.chk"
 -----
 titel
 -----
 Charge =  0 Multiplicity = 1

                         Standard orientation:
 ---------------------------------------------------------------------
 Center     Atomic      Atomic             Coordinates (Angstroms)
 Number     Number       Type             X           Y           Z
 ---------------------------------------------------------------------
      1          8           0        2.650650    0.285176   -0.490142
      2          6           0        1.766821   -0.249325    0.490629
      3          6           0        0.322315    0.098242    0.220256
      4          6           0       -0.129540    1.558652    0.221965
      5          6           0       -1.645708    1.398184   -0.105503
      6          6           0       -1.735562   -0.117576   -0.222900
      7          6           0       -0.813488   -0.786738    0.836642
      8          8           0       -0.501392   -1.889789   -0.082173
      9          6           0       -0.451440   -0.670450   -0.903433
     10          1           0        2.677083    1.239923   -0.375967
     11          1           0        1.880041   -1.335635    0.445696
     12          1           0        2.052630    0.078307    1.503242
     13          1           0        0.042663    2.038854    1.191500
     14          1           0        0.397094    2.149410   -0.534809
     15          1           0       -2.289574    1.790729    0.687297
     16          1           0       -1.929749    1.900809   -1.034866
     17          1           0       -2.685075   -0.600722   -0.449842
     18          1           0       -1.013907   -1.034206    1.880784
     19          1           0       -0.205658   -0.776507   -1.960452
 ---------------------------------------------------------------------

 SCF Done:  E(RB3LYP) =  -423.123180835     A.U. after    1 cycles

 The electronic state is 1-A.
 Alpha  occ. eigenvalues --  -19.13421 -19.12968 -10.24422 -10.24133 -10.22306
 Alpha  occ. eigenvalues --  -10.19819 -10.19661 -10.19050 -10.18984  -1.05693
 Alpha  occ. eigenvalues --   -1.01308  -0.85086  -0.73569  -0.71206  -0.65495
 Alpha  occ. eigenvalues --   -0.65094  -0.57550  -0.52129  -0.52092  -0.48693
 Alpha  occ. eigenvalues --   -0.47259  -0.46525  -0.43548  -0.39274  -0.39040
 Alpha  occ. eigenvalues --   -0.38405  -0.36638  -0.34923  -0.33240  -0.31795
 Alpha  occ. eigenvalues --   -0.30797  -0.29630  -0.27020  -0.23030
 Alpha virt. eigenvalues --    0.06414   0.07901   0.11409   0.11456   0.12449
 Alpha virt. eigenvalues --    0.13301   0.14161   0.14550   0.15491   0.15917
 Alpha virt. eigenvalues --    0.16822   0.17609   0.18766   0.20768   0.22399

 Mulliken charges:
               1
     1  O   -0.419586
     2  C   -0.187602
     3  C    0.343297
     4  C   -0.316235
     5  C   -0.254213
     6  C   -0.034333
     7  C    0.000199
     8  O   -0.320618
     9  C    0.019509
    10  H    0.283735
    11  H    0.129453
    12  H    0.082539
    13  H    0.100939
    14  H    0.100009
    15  H    0.105649
    16  H    0.106897
    17  H    0.079998
    18  H    0.086399
    19  H    0.093963
 Sum of Mulliken charges =   0.00000

 Dipole moment (field-independent basis, Debye):
    X=             -1.0815    Y=              2.8221    Z=              0.9289  Tot=              3.1618
 Quadrupole moment (field-independent basis, Debye-Ang):
   XX=            -55.6756   YY=            -55.6575   ZZ=            -50.5706
   XY=              1.8023   XZ=              1.8813   YZ=             -0.7621

  Exact polarizability:  79.303  -0.058  74.342   0.520  -0.616  68.663
 Approx polarizability: 107.350   1.027 112.133  -2.374  -0.574 109.927

                      1                      2                      3
                      A                      A                      A
 Frequencies --     93.4879               157.9269               229.6989
 Red. masses --      3.3893                 3.3177                 2.0120
 Frc consts  --      0.0175                 0.0488                 0.0625
 IR Inten    --      1.5619                 2.8527                 0.0767

                      4                      5                      6
                      A                      A                      A
 Frequencies --    267.8530               323.1308               340.0820
 Red. masses --      1.5256                 1.5032                 2.7772
 Frc consts  --      0.0645                 0.0925                 0.1892
 IR Inten    --     50.3475                77.3476                 1.4168

                      7                      8                      9
                      A                      A                      A
 Frequencies --    416.5608               545.9710               656.0535
 Red. masses --      3.4435                 4.7494                 4.9711
 Frc consts  --      0.3520                 0.8341                 1.2606
 IR Inten    --      1.1625                12.1553                 5.4602

                     10                     11                     12
                      A                      A                      A
 Frequencies --    692.4976               713.9465               750.7123
 Red. masses --      4.3354                 3.6021                 3.0624
 Frc consts  --      1.2250                 1.0818                 1.0169
 IR Inten    --      1.6524                 1.5370                 1.7694

                     13                     14                     15
                      A                      A                      A
 Frequencies --    803.3459               823.4036               886.3454
 Red. masses --      3.6216                 1.4627                 2.2934
 Frc consts  --      1.3771                 0.5843                 1.0615
 IR Inten    --      4.1044                 5.1553                13.0892

                     16                     17                     18
                      A                      A                      A
 Frequencies --    901.6333               915.7680               935.3948
 Red. masses --      2.6478                 2.6779                 1.6768
 Frc consts  --      1.2682                 1.3232                 0.8644
 IR Inten    --     23.6800                 2.4706                 8.8641

                     19                     20                     21
                      A                      A                      A
 Frequencies --    943.3850              1011.7307              1031.5122
 Red. masses --      2.2467                 1.8067                 1.6594
 Frc consts  --      1.1781                 1.0896                 1.0403
 IR Inten    --      5.3372                 3.0073                18.1313

                     22                     23                     24
                      A                      A                      A
 Frequencies --   1060.2542              1063.5818              1082.7819
 Red. masses --      2.3214                 2.8467                 1.9194
 Frc consts  --      1.5375                 1.8973                 1.3259
 IR Inten    --     47.6206                38.5872                 0.9859

                     25                     26                     27
                      A                      A                      A
 Frequencies --   1137.7287              1145.0963              1170.6936
 Red. masses --      1.3834                 1.7468                 1.3316
 Frc consts  --      1.0550                 1.3495                 1.0753
 IR Inten    --      2.0896                 7.7600                 4.7917

                     28                     29                     30
                      A                      A                      A
 Frequencies --   1185.5565              1222.3072              1226.1318
 Red. masses --      2.0430                 1.5422                 1.6091
 Frc consts  --      1.6918                 1.3575                 1.4253
 IR Inten    --      1.4950                 5.9898                 4.9664

                     31                     32                     33
                      A                      A                      A
 Frequencies --   1253.4976              1271.3107              1280.8665
 Red. masses --      1.1679                 1.5280                 1.8696
 Frc consts  --      1.0812                 1.4551                 1.8072
 IR Inten    --      1.1224                18.5508                13.1841

                     34                     35                     36
                      A                      A                      A
 Frequencies --   1293.3297              1345.9178              1363.7707
 Red. masses --      2.1922                 1.9844                 1.8954
 Frc consts  --      2.1605                 2.1180                 2.0770
 IR Inten    --      1.5664                 1.3226                 3.4593

                     37                     38                     39
                      A                      A                      A
 Frequencies --   1383.4106              1415.7491              1487.6588
 Red. masses --      1.3103                 1.3667                 1.0817
 Frc consts  --      1.4775                 1.6140                 1.4105
 IR Inten    --      1.7317                35.0894                 0.1235

                     40                     41                     42
                      A                      A                      A
 Frequencies --   1499.0488              1509.8317              2974.4440
 Red. masses --      1.0753                 1.1068                 1.0711
 Frc consts  --      1.4237                 1.4866                 5.5832
 IR Inten    --      4.4632                 1.5545                57.7338

                     43                     44                     45
                      A                      A                      A
 Frequencies --   3036.9486              3054.4659              3072.0170
 Red. masses --      1.0584                 1.0598                 1.1057
 Frc consts  --      5.7514                 5.8259                 6.1478
 IR Inten    --     36.7161                42.4413                 4.3798

                     46                     47                     48
                      A                      A                      A
 Frequencies --   3096.4524              3099.2399              3100.4035
 Red. masses --      1.1055                 1.0905                 1.0908
 Frc consts  --      6.2451                 6.1717                 6.1776
 IR Inten    --     25.4067                59.1566                16.8072

                     49                     50                     51
                      A                      A                      A
 Frequencies --   3115.6735              3136.6162              3824.9069
 Red. masses --      1.0909                 1.0922                 1.0662
 Frc consts  --      6.2392                 6.3311                 9.1907
 IR Inten    --     28.3597                32.4651                15.4867

 - Thermochemistry -
 -------------------
 Temperature   298.150 Kelvin.  Pressure   1.00000 Atm.
 Atom     1 has atomic number  8 and mass  15.99491

 Molecular mass:   126.06808 amu.
 Principal axes and moments of inertia in atomic units:
                           1         2         3
     Eigenvalues --   664.652311097.882471473.84512
           X            0.99961  -0.02503   0.01262
           Y            0.02510   0.99967  -0.00503
           Z           -0.01249   0.00534   0.99991
 This molecule is an asymmetric top.
 Rotational symmetry number  1.
 Warning -- assumption of classical behavior for rotation
           may cause significant error
 Rotational temperatures (Kelvin)      0.13031     0.07889     0.05877
 Rotational constants (GHZ):           2.71532     1.64384     1.22451
 Zero-point vibrational energy     420787.2 (Joules/Mol)
                                  100.57056 (Kcal/Mol)
 Warning -- explicit consideration of   8 degrees of freedom as
           vibrations may cause significant error
 Vibrational temperatures:    134.51   227.22   330.49   385.38   464.91
          (Kelvin)            489.30   599.34   785.53   943.91   996.35
                             1027.21  1080.11  1155.83  1184.69  1275.25
                             1297.25  1317.58  1345.82  1357.32  1455.65
                             1484.11  1525.47  1530.26  1557.88  1636.94
                             1647.54  1684.36  1705.75  1758.63  1764.13
                             1803.50  1829.13  1842.88  1860.81  1936.47
                             1962.16  1990.42  2036.94  2140.41  2156.79
                             2172.31  4279.56  4369.49  4394.69  4419.94
                             4455.10  4459.11  4460.78  4482.75  4512.89
                             5503.18

 Zero-point correction=                           0.160269 (Hartree/Particle)
 Thermal correction to Energy=                    0.167918
 Thermal correction to Enthalpy=                  0.168862
 Thermal correction to Gibbs Free Energy=         0.128168
 Sum of electronic and zero-point Energies=           -422.962911
 Sum of electronic and thermal Energies=              -422.955263
 Sum of electronic and thermal Enthalpies=            -422.954319
 Sum of electronic and thermal Free Energies=         -422.995013

                     E (Thermal)             CV                S
                      KCal/Mol        Cal/Mol-Kelvin    Cal/Mol-Kelvin
 Total                  105.370             30.366             85.648
 Electronic               0.000              0.000              0.000
 Translational            0.889              2.981             40.409
 Rotational               0.889              2.981             28.466
 Vibrational            103.593             24.404             16.774
 Vibration     1          0.603              1.954              3.586
 Vibration     2          0.621              1.894              2.574
 Vibration     3          0.652              1.796              1.881
 Vibration     4          0.673              1.732              1.610
 Vibration     5          0.708              1.629              1.294
 Vibration     6          0.720              1.595              1.212
 Vibration     7          0.780              1.434              0.904
 Vibration     8          0.901              1.149              0.553

 Optimization completed.
    -- Stationary point found.
 Normal termination of Gaussian 09 at Tue Jan 28 13:01:50 2020.
