 Gaussian 09, Revision D.01,
 Gaussian 09:  ES64L-G09RevD.01 24-Apr-2013

 -----------------------------
 # b3lyp 6-31G(2df,p) opt Freq
 -----------------------------

 -----
 titel
 -----
 Symbolic Z-matrix:
 Charge =  0 Multiplicity = 1

 SCF Done:  E(RB3LYP) =  -423.183202873     A.U. after   14 cycles
 Optimization completed.
    -- Stationary point found.
 Normal termination of Gaussian 09 at Tue Jan 28 00:01:12 2020.

 ----------------------------------------------------------------------
 #N Geom=AllCheck Guess=TCheck SCRF=Check GenChk RB3LYP/6-31G(2df,p) Fr
 eq
 ----------------------------------------------------------------------

 Structure from the checkpoint file:  "/scratch/puck/g09_2fa4fc28-8cae-4e6d-80e3-67917d52b2eb/Gau-164357.chk"
 -----
 titel
 -----
 Charge =  0 Multiplicity = 1

                         Standard orientation:
 ---------------------------------------------------------------------
 Center     Atomic      Atomic             Coordinates (Angstroms)
 Number     Number       Type             X           Y           Z
 ---------------------------------------------------------------------
      1          6           0        2.252580    0.196187   -0.716391
      2          6           0        0.753490    0.001034   -0.885812
      3          6           0        0.046712   -1.316283   -0.383439
      4          6           0        0.399209   -1.286411    1.110565
      5          8           0        0.224469    0.124605    1.404246
      6          6           0       -0.218155    0.679261    0.144063
      7          6           0       -0.502489    2.145415    0.250860
      8          6           0       -1.206410   -0.411705   -0.334140
      9          8           0       -2.348928   -0.480881   -0.672172
     10          1           0        2.546883    0.151656    0.334263
     11          1           0        2.814758   -0.563276   -1.269133
     12          1           0        2.551860    1.175732   -1.102808
     13          1           0        0.438076    0.221996   -1.910721
     14          1           0        0.083333   -2.263668   -0.915787
     15          1           0       -0.283954   -1.887265    1.721782
     16          1           0        1.429150   -1.587165    1.331261
     17          1           0       -1.260299    2.328863    1.017690
     18          1           0        0.401496    2.698212    0.524899
     19          1           0       -0.875250    2.530130   -0.702272
 ---------------------------------------------------------------------

 SCF Done:  E(RB3LYP) =  -423.183202873     A.U. after    1 cycles

 The electronic state is 1-A.
 Alpha  occ. eigenvalues --  -19.14819 -19.14442 -10.27134 -10.24657 -10.24029
 Alpha  occ. eigenvalues --  -10.20862 -10.20595 -10.18690 -10.18537  -1.06198
 Alpha  occ. eigenvalues --   -1.04097  -0.84529  -0.77003  -0.73548  -0.68785
 Alpha  occ. eigenvalues --   -0.59126  -0.58331  -0.53750  -0.50592  -0.47391
 Alpha  occ. eigenvalues --   -0.45986  -0.45391  -0.43128  -0.40754  -0.40596
 Alpha  occ. eigenvalues --   -0.39382  -0.38477  -0.37920  -0.35757  -0.34900
 Alpha  occ. eigenvalues --   -0.34052  -0.32398  -0.28029  -0.22228
 Alpha virt. eigenvalues --   -0.01609   0.08321   0.10442   0.12008   0.12587
 Alpha virt. eigenvalues --    0.13145   0.14035   0.14312   0.15179   0.16831
 Alpha virt. eigenvalues --    0.17569   0.18202   0.18786   0.19777   0.20701

 Mulliken charges:
               1
     1  C   -0.440551
     2  C   -0.026414
     3  C   -0.215273
     4  C   -0.091849
     5  O   -0.311269
     6  C    0.295311
     7  C   -0.502573
     8  C    0.413523
     9  O   -0.320961
    10  H    0.140236
    11  H    0.122034
    12  H    0.124633
    13  H    0.093506
    14  H    0.091138
    15  H    0.116773
    16  H    0.107743
    17  H    0.142499
    18  H    0.131234
    19  H    0.130259
 Sum of Mulliken charges =   0.00000

 Dipole moment (field-independent basis, Debye):
    X=              2.5581    Y=             -0.1711    Z=             -0.6138  Tot=              2.6362
 Quadrupole moment (field-independent basis, Debye-Ang):
   XX=            -59.5303   YY=            -49.1629   ZZ=            -54.4418
   XY=             -2.1467   XZ=             -2.9399   YZ=             -1.9191

  Exact polarizability:  81.307  -0.932  78.130   0.088  -1.755  66.801
 Approx polarizability: 121.496  -0.061 109.142   4.224  -0.950 104.192

                      1                      2                      3
                      A                      A                      A
 Frequencies --    136.4528               168.9261               172.0276
 Red. masses --      3.6191                 1.1729                 1.1740
 Frc consts  --      0.0397                 0.0197                 0.0205
 IR Inten    --      2.7982                 0.1394                 0.1753

                      4                      5                      6
                      A                      A                      A
 Frequencies --    194.8944               231.5735               277.8238
 Red. masses --      2.2305                 3.3151                 3.3912
 Frc consts  --      0.0499                 0.1047                 0.1542
 IR Inten    --      0.8862                 1.2668                 2.2910

                      7                      8                      9
                      A                      A                      A
 Frequencies --    300.2517               343.4985               511.9811
 Red. masses --      2.3900                 2.7766                 3.1432
 Frc consts  --      0.1269                 0.1930                 0.4854
 IR Inten    --      4.3974                 2.2747                 1.7543

                     10                     11                     12
                      A                      A                      A
 Frequencies --    531.2678               625.7945               693.0079
 Red. masses --      4.3823                 4.0489                 4.0230
 Frc consts  --      0.7288                 0.9342                 1.1384
 IR Inten    --      3.9869                 2.8148                 0.8276

                     13                     14                     15
                      A                      A                      A
 Frequencies --    703.0344               735.5319               781.9770
 Red. masses --      3.3862                 3.2913                 3.6980
 Frc consts  --      0.9861                 1.0491                 1.3323
 IR Inten    --      3.6619                 4.7383                 5.4665

                     16                     17                     18
                      A                      A                      A
 Frequencies --    831.0046               877.7329               923.9739
 Red. masses --      4.0313                 2.6946                 2.2153
 Frc consts  --      1.6402                 1.2231                 1.1143
 IR Inten    --      4.0306                17.5045                 9.1068

                     19                     20                     21
                      A                      A                      A
 Frequencies --    961.4794               991.8548              1026.7242
 Red. masses --      4.1854                 1.4164                 1.3358
 Frc consts  --      2.2797                 0.8210                 0.8297
 IR Inten    --     31.7699                 6.6508                 8.9993

                     22                     23                     24
                      A                      A                      A
 Frequencies --   1041.2728              1077.8398              1111.6756
 Red. masses --      2.1422                 1.6733                 1.7711
 Frc consts  --      1.3685                 1.1454                 1.2895
 IR Inten    --     25.5335                 7.6697                16.3763

                     25                     26                     27
                      A                      A                      A
 Frequencies --   1114.6786              1159.5241              1176.0822
 Red. masses --      2.1460                 2.0229                 1.9770
 Frc consts  --      1.5710                 1.6025                 1.6111
 IR Inten    --      1.4105                33.6910                 8.8003

                     28                     29                     30
                      A                      A                      A
 Frequencies --   1184.5797              1217.4291              1261.4306
 Red. masses --      1.6784                 1.4025                 1.7041
 Frc consts  --      1.3876                 1.2247                 1.5976
 IR Inten    --      0.7837                 1.6447                 1.8675

                     31                     32                     33
                      A                      A                      A
 Frequencies --   1339.1028              1360.7937              1390.5529
 Red. masses --      2.5495                 1.3680                 1.3983
 Frc consts  --      2.6936                 1.4925                 1.5931
 IR Inten    --      3.1312                 1.0286                 2.0731

                     34                     35                     36
                      A                      A                      A
 Frequencies --   1408.7831              1423.0148              1476.6719
 Red. masses --      1.2619                 1.7463                 1.0473
 Frc consts  --      1.4755                 2.0835                 1.3455
 IR Inten    --      2.4172                10.3163                 3.6935

                     37                     38                     39
                      A                      A                      A
 Frequencies --   1489.5872              1493.6424              1503.7110
 Red. masses --      1.0487                 1.0449                 1.0585
 Frc consts  --      1.3710                 1.3735                 1.4102
 IR Inten    --      6.2647                 1.3173                 3.6791

                     40                     41                     42
                      A                      A                      A
 Frequencies --   1537.6752              1906.1652              3028.8020
 Red. masses --      1.0838                12.4798                 1.0555
 Frc consts  --      1.5098                26.7165                 5.7048
 IR Inten    --      0.9599               292.3978                63.6647

                     43                     44                     45
                      A                      A                      A
 Frequencies --   3041.5768              3044.4210              3061.1502
 Red. masses --      1.0380                 1.0356                 1.0835
 Frc consts  --      5.6579                 5.6553                 5.9823
 IR Inten    --     24.5887                14.3016                11.8582

                     46                     47                     48
                      A                      A                      A
 Frequencies --   3067.9182              3101.4415              3114.8309
 Red. masses --      1.1111                 1.1012                 1.1010
 Frc consts  --      6.1617                 6.2411                 6.2935
 IR Inten    --     32.9948                17.7464                11.8285

                     49                     50                     51
                      A                      A                      A
 Frequencies --   3124.6266              3132.0330              3155.9058
 Red. masses --      1.1015                 1.0993                 1.0912
 Frc consts  --      6.3360                 6.3538                 6.4036
 IR Inten    --      9.2901                15.3497                15.3447

 - Thermochemistry -
 -------------------
 Temperature   298.150 Kelvin.  Pressure   1.00000 Atm.
 Atom     1 has atomic number  6 and mass  12.00000

 Molecular mass:   126.06808 amu.
 Principal axes and moments of inertia in atomic units:
                           1         2         3
     Eigenvalues --   810.486651045.355071234.57442
           X            0.99704  -0.06230  -0.04514
           Y            0.06057   0.99741  -0.03870
           Z            0.04744   0.03586   0.99823
 This molecule is an asymmetric top.
 Rotational symmetry number  1.
 Warning -- assumption of classical behavior for rotation
           may cause significant error
 Rotational temperatures (Kelvin)      0.10687     0.08286     0.07016
 Rotational constants (GHZ):           2.22674     1.72644     1.46183
 Zero-point vibrational energy     416107.4 (Joules/Mol)
                                   99.45206 (Kcal/Mol)
 Warning -- explicit consideration of  10 degrees of freedom as
           vibrations may cause significant error
 Vibrational temperatures:    196.32   243.05   247.51   280.41   333.18
          (Kelvin)            399.73   431.99   494.22   736.63   764.37
                              900.38   997.08  1011.51  1058.27  1125.09
                             1195.63  1262.86  1329.39  1383.35  1427.06
                             1477.23  1498.16  1550.77  1599.45  1603.77
                             1668.29  1692.12  1704.34  1751.61  1814.92
                             1926.67  1957.88  2000.69  2026.92  2047.40
                             2124.60  2143.18  2149.02  2163.50  2212.37
                             2742.54  4357.77  4376.15  4380.24  4404.31
                             4414.04  4462.28  4481.54  4495.64  4506.29
                             4540.64

 Zero-point correction=                           0.158487 (Hartree/Particle)
 Thermal correction to Energy=                    0.167044
 Thermal correction to Enthalpy=                  0.167988
 Thermal correction to Gibbs Free Energy=         0.125759
 Sum of electronic and zero-point Energies=           -423.024716
 Sum of electronic and thermal Energies=              -423.016159
 Sum of electronic and thermal Enthalpies=            -423.015215
 Sum of electronic and thermal Free Energies=         -423.057444

                     E (Thermal)             CV                S
                      KCal/Mol        Cal/Mol-Kelvin    Cal/Mol-Kelvin
 Total                  104.822             32.657             88.878
 Electronic               0.000              0.000              0.000
 Translational            0.889              2.981             40.409
 Rotational               0.889              2.981             28.438
 Vibrational            103.044             26.695             20.032
 Vibration     1          0.614              1.917              2.853
 Vibration     2          0.625              1.881              2.447
 Vibration     3          0.626              1.877              2.413
 Vibration     4          0.636              1.847              2.181
 Vibration     5          0.653              1.793              1.867
 Vibration     6          0.679              1.715              1.547
 Vibration     7          0.693              1.673              1.416
 Vibration     8          0.722              1.588              1.196
 Vibration     9          0.867              1.223              0.629
 Vibration    10          0.886              1.181              0.584

 Optimization completed.
    -- Stationary point found.
 Normal termination of Gaussian 09 at Tue Jan 28 00:38:11 2020.
