 Gaussian 09, Revision D.01,
 Gaussian 09:  ES64L-G09RevD.01 24-Apr-2013

 -----------------------------
 # b3lyp 6-31G(2df,p) opt Freq
 -----------------------------

 -----
 titel
 -----
 Symbolic Z-matrix:
 Charge =  0 Multiplicity = 1

 SCF Done:  E(RB3LYP) =  -423.159596439     A.U. after   12 cycles
 Optimization completed.
    -- Stationary point found.
 Normal termination of Gaussian 09 at Mon Jan 27 12:18:06 2020.

 ----------------------------------------------------------------------
 #N Geom=AllCheck Guess=TCheck SCRF=Check GenChk RB3LYP/6-31G(2df,p) Fr
 eq
 ----------------------------------------------------------------------

 Structure from the checkpoint file:  "/scratch/puck/g09_1c16f8bb-2a73-4d6a-ae74-fc248409eeac/Gau-35498.chk"
 -----
 titel
 -----
 Charge =  0 Multiplicity = 1

                         Standard orientation:
 ---------------------------------------------------------------------
 Center     Atomic      Atomic             Coordinates (Angstroms)
 Number     Number       Type             X           Y           Z
 ---------------------------------------------------------------------
      1          6           0       -2.227203    0.779529   -0.049296
      2          6           0       -2.227205   -0.779556   -0.049227
      3          6           0       -0.782101   -0.789505    0.513857
      4          6           0       -0.782116    0.789526    0.513845
      5          6           0        0.315046    0.783370   -0.583280
      6          8           0        1.617351    1.134758   -0.153626
      7          6           0        2.150618   -0.000025    0.492122
      8          8           0        1.617344   -1.134758   -0.153707
      9          6           0        0.315036   -0.783330   -0.583303
     10          1           0       -2.350543    1.262429   -1.024104
     11          1           0       -2.961543    1.211630    0.633935
     12          1           0       -2.961505   -1.211574    0.634100
     13          1           0       -2.350613   -1.262560   -1.023975
     14          1           0       -0.573220   -1.410619    1.385631
     15          1           0       -0.573294    1.410656    1.385622
     16          1           0        0.099654    1.336351   -1.500808
     17          1           0        3.238284   -0.000025    0.377459
     18          1           0        1.883177   -0.000062    1.563329
     19          1           0        0.099598   -1.336276   -1.500841
 ---------------------------------------------------------------------

 SCF Done:  E(RB3LYP) =  -423.159596439     A.U. after    1 cycles

 The electronic state is 1-A.
 Alpha  occ. eigenvalues --  -19.14790 -19.14790 -10.27265 -10.23177 -10.23160
 Alpha  occ. eigenvalues --  -10.18622 -10.18604 -10.18570 -10.18554  -1.08901
 Alpha  occ. eigenvalues --   -0.99586  -0.86839  -0.75448  -0.68096  -0.67256
 Alpha  occ. eigenvalues --   -0.60662  -0.59718  -0.52906  -0.52020  -0.50787
 Alpha  occ. eigenvalues --   -0.47712  -0.45747  -0.44707  -0.42483  -0.40187
 Alpha  occ. eigenvalues --   -0.38727  -0.35405  -0.35013  -0.32802  -0.32178
 Alpha  occ. eigenvalues --   -0.31645  -0.27947  -0.25721  -0.24959
 Alpha virt. eigenvalues --    0.07176   0.09233   0.10021   0.10021   0.12689
 Alpha virt. eigenvalues --    0.13259   0.15251   0.15454   0.17024   0.17345
 Alpha virt. eigenvalues --    0.17474   0.19222   0.19419   0.21380   0.21582

 Mulliken charges:
               1
     1  C   -0.231329
     2  C   -0.231329
     3  C   -0.064938
     4  C   -0.064939
     5  C    0.083620
     6  O   -0.257003
     7  C    0.007845
     8  O   -0.256998
     9  C    0.083619
    10  H    0.097030
    11  H    0.106621
    12  H    0.106621
    13  H    0.097029
    14  H    0.073801
    15  H    0.073801
    16  H    0.084068
    17  H    0.120384
    18  H    0.088030
    19  H    0.084068
 Sum of Mulliken charges =   0.00000

 Dipole moment (field-independent basis, Debye):
    X=             -1.4635    Y=              0.0000    Z=              0.4065  Tot=              1.5189
 Quadrupole moment (field-independent basis, Debye-Ang):
   XX=            -52.6832   YY=            -56.6502   ZZ=            -51.0487
   XY=             -0.0001   XZ=              1.6553   YZ=             -0.0002

  Exact polarizability:  87.635   0.000  67.587   2.819   0.000  66.006
 Approx polarizability: 113.110   0.000 103.809   3.664   0.000 100.887

                      1                      2                      3
                      A                      A                      A
 Frequencies --     72.9755               185.0627               223.9703
 Red. masses --      2.7133                 2.3732                 2.2581
 Frc consts  --      0.0085                 0.0479                 0.0667
 IR Inten    --      0.0764                 1.8930                 0.6881

                      4                      5                      6
                      A                      A                      A
 Frequencies --    290.8702               333.0154               434.1260
 Red. masses --      3.0410                 4.4409                 5.1297
 Frc consts  --      0.1516                 0.2902                 0.5696
 IR Inten    --      5.3222                 0.3771                 7.4024

                      7                      8                      9
                      A                      A                      A
 Frequencies --    597.1469               733.4762               742.9269
 Red. masses --      4.3855                 2.6154                 1.6902
 Frc consts  --      0.9214                 0.8290                 0.5497
 IR Inten    --      1.4806                 1.5052                 1.5952

                     10                     11                     12
                      A                      A                      A
 Frequencies --    786.8778               816.5064               834.4209
 Red. masses --      3.4321                 1.7426                 2.4922
 Frc consts  --      1.2521                 0.6845                 1.0224
 IR Inten    --     13.1938                 1.6485                 3.1004

                     13                     14                     15
                      A                      A                      A
 Frequencies --    861.5178               898.4551               929.5240
 Red. masses --      1.8988                 5.2398                 2.1673
 Frc consts  --      0.8304                 2.4921                 1.1033
 IR Inten    --      3.2209                 4.5003                 5.0480

                     16                     17                     18
                      A                      A                      A
 Frequencies --    960.9387               968.0152               982.3370
 Red. masses --      2.5865                 2.9186                 2.5747
 Frc consts  --      1.4072                 1.6113                 1.4638
 IR Inten    --      1.7592                56.4125                12.9455

                     19                     20                     21
                      A                      A                      A
 Frequencies --   1008.3152              1020.1098              1037.0824
 Red. masses --      4.8239                 1.7993                 2.3470
 Frc consts  --      2.8896                 1.1032                 1.4873
 IR Inten    --     17.7444                 1.0329                 7.0919

                     22                     23                     24
                      A                      A                      A
 Frequencies --   1107.1021              1114.7931              1121.4608
 Red. masses --      2.9997                 3.5554                 1.8208
 Frc consts  --      2.1662                 2.6033                 1.3492
 IR Inten    --    106.5965                 4.2611                15.6357

                     25                     26                     27
                      A                      A                      A
 Frequencies --   1157.6133              1182.9960              1203.9787
 Red. masses --      1.7404                 1.9848                 1.4252
 Frc consts  --      1.3741                 1.6366                 1.2172
 IR Inten    --     34.7694               100.4083                 0.1145

                     28                     29                     30
                      A                      A                      A
 Frequencies --   1221.5513              1232.0806              1234.6746
 Red. masses --      1.1553                 1.7687                 1.3785
 Frc consts  --      1.0157                 1.5819                 1.2381
 IR Inten    --      0.0874                 4.1672                 0.1278

                     31                     32                     33
                      A                      A                      A
 Frequencies --   1248.5899              1266.1420              1273.4312
 Red. masses --      1.2708                 1.6151                 1.5734
 Frc consts  --      1.1672                 1.5255                 1.5033
 IR Inten    --      0.3818                 1.6371                 1.1975

                     34                     35                     36
                      A                      A                      A
 Frequencies --   1281.9402              1287.2971              1342.9375
 Red. masses --      1.4408                 1.3630                 1.2945
 Frc consts  --      1.3950                 1.3308                 1.3755
 IR Inten    --      0.0001                 2.1338                 1.7743

                     37                     38                     39
                      A                      A                      A
 Frequencies --   1355.9031              1428.7766              1479.7274
 Red. masses --      1.3720                 1.2855                 1.0804
 Frc consts  --      1.4861                 1.5462                 1.3938
 IR Inten    --     16.2370                 8.5514                 0.4003

                     40                     41                     42
                      A                      A                      A
 Frequencies --   1496.0086              1541.9076              2947.5409
 Red. masses --      1.1096                 1.0990                 1.0703
 Frc consts  --      1.4631                 1.5394                 5.4786
 IR Inten    --      1.7885                 3.0281                83.6903

                     43                     44                     45
                      A                      A                      A
 Frequencies --   3045.2094              3052.0718              3076.1137
 Red. masses --      1.0614                 1.0631                 1.0879
 Frc consts  --      5.7991                 5.8347                 6.0650
 IR Inten    --     35.3527                47.9847                25.9949

                     46                     47                     48
                      A                      A                      A
 Frequencies --   3083.8491              3090.4664              3090.9996
 Red. masses --      1.0884                 1.0951                 1.0987
 Frc consts  --      6.0987                 6.1624                 6.1848
 IR Inten    --     64.9301                40.0423                 4.2314

                     49                     50                     51
                      A                      A                      A
 Frequencies --   3102.2895              3105.1371              3117.5669
 Red. masses --      1.0919                 1.0958                 1.0999
 Frc consts  --      6.1917                 6.2250                 6.2987
 IR Inten    --     21.3244                 7.5089                55.8790

 - Thermochemistry -
 -------------------
 Temperature   298.150 Kelvin.  Pressure   1.00000 Atm.
 Atom     1 has atomic number  6 and mass  12.00000

 Molecular mass:   126.06808 amu.
 Principal axes and moments of inertia in atomic units:
                           1         2         3
     Eigenvalues --   469.115331252.616191492.33101
           X            0.99994   0.00000   0.01139
           Y            0.00000   1.00000   0.00000
           Z           -0.01139   0.00000   0.99994
 This molecule is an asymmetric top.
 Rotational symmetry number  1.
 Warning -- assumption of classical behavior for rotation
           may cause significant error
 Rotational temperatures (Kelvin)      0.18463     0.06915     0.05804
 Rotational constants (GHZ):           3.84712     1.44078     1.20934
 Zero-point vibrational energy     424721.1 (Joules/Mol)
                                  101.51078 (Kcal/Mol)
 Warning -- explicit consideration of   7 degrees of freedom as
           vibrations may cause significant error
 Vibrational temperatures:    105.00   266.26   322.24   418.50   479.13
          (Kelvin)            624.61   859.16  1055.31  1068.90  1132.14
                             1174.77  1200.54  1239.53  1292.67  1337.38
                             1382.57  1392.76  1413.36  1450.74  1467.71
                             1492.13  1592.87  1603.94  1613.53  1665.55
                             1702.07  1732.25  1757.54  1772.69  1776.42
                             1796.44  1821.69  1832.18  1844.42  1852.13
                             1932.19  1950.84  2055.69  2129.00  2152.42
                             2218.46  4240.85  4381.37  4391.25  4425.84
                             4436.97  4446.49  4447.25  4463.50  4467.59
                             4485.48

 Zero-point correction=                           0.161768 (Hartree/Particle)
 Thermal correction to Energy=                    0.168832
 Thermal correction to Enthalpy=                  0.169776
 Thermal correction to Gibbs Free Energy=         0.129983
 Sum of electronic and zero-point Energies=           -422.997829
 Sum of electronic and thermal Energies=              -422.990764
 Sum of electronic and thermal Enthalpies=            -422.989820
 Sum of electronic and thermal Free Energies=         -423.029614

                     E (Thermal)             CV                S
                      KCal/Mol        Cal/Mol-Kelvin    Cal/Mol-Kelvin
 Total                  105.944             27.947             83.753
 Electronic               0.000              0.000              0.000
 Translational            0.889              2.981             40.409
 Rotational               0.889              2.981             28.263
 Vibrational            104.166             21.985             15.081
 Vibration     1          0.599              1.967              4.071
 Vibration     2          0.631              1.860              2.277
 Vibration     3          0.649              1.805              1.927
 Vibration     4          0.687              1.691              1.469
 Vibration     5          0.715              1.610              1.245
 Vibration     6          0.795              1.396              0.845
 Vibration     7          0.955              1.038              0.455

 Optimization completed.
    -- Stationary point found.
 Normal termination of Gaussian 09 at Mon Jan 27 13:04:33 2020.
