 Gaussian 09, Revision D.01,
 Gaussian 09:  ES64L-G09RevD.01 24-Apr-2013

 -----------------------------
 # b3lyp 6-31G(2df,p) opt Freq
 -----------------------------

 -----
 titel
 -----
 Symbolic Z-matrix:
 Charge =  0 Multiplicity = 1

 SCF Done:  E(RB3LYP) =  -423.108125019     A.U. after   14 cycles
 Optimization completed.
    -- Stationary point found.
 Normal termination of Gaussian 09 at Mon Jan 27 22:06:59 2020.

 ----------------------------------------------------------------------
 #N Geom=AllCheck Guess=TCheck SCRF=Check GenChk RB3LYP/6-31G(2df,p) Fr
 eq
 ----------------------------------------------------------------------

 Structure from the checkpoint file:  "/scratch/puck/g09_0b8afa6a-fcc9-4f24-ac69-881e7fd4d5f1/Gau-85627.chk"
 -----
 titel
 -----
 Charge =  0 Multiplicity = 1

                         Standard orientation:
 ---------------------------------------------------------------------
 Center     Atomic      Atomic             Coordinates (Angstroms)
 Number     Number       Type             X           Y           Z
 ---------------------------------------------------------------------
      1          6           0       -2.749118   -0.116151   -0.368412
      2          6           0       -1.286395   -0.503803   -0.427766
      3          6           0       -0.574498   -0.709922    0.901443
      4          6           0        0.904704   -1.159269    0.703010
      5          8           0        1.194001   -1.282745   -0.705716
      6          6           0        1.210757    0.020985   -0.101184
      7          6           0        2.405657    0.900442   -0.250267
      8          6           0       -0.283810    0.513567    0.059166
      9          8           0       -0.584161    1.827645    0.371632
     10          1           0       -3.057833    0.386958   -1.291923
     11          1           0       -3.380679   -1.002450   -0.249368
     12          1           0       -2.951755    0.563733    0.463761
     13          1           0       -1.006834   -1.149088   -1.253336
     14          1           0       -1.107397   -0.773600    1.840926
     15          1           0        1.510040   -1.745241    1.385058
     16          1           0        2.460698    1.319570   -1.261869
     17          1           0        2.349467    1.733904    0.456151
     18          1           0        3.322742    0.335059   -0.065261
     19          1           0       -0.780957    2.296865   -0.447405
 ---------------------------------------------------------------------

 SCF Done:  E(RB3LYP) =  -423.108125019     A.U. after    1 cycles

 The electronic state is 1-A.
 Alpha  occ. eigenvalues --  -19.15476 -19.14611 -10.23646 -10.23571 -10.23228
 Alpha  occ. eigenvalues --  -10.18967 -10.18643 -10.18490 -10.17788  -1.07257
 Alpha  occ. eigenvalues --   -1.03585  -0.86093  -0.74936  -0.72471  -0.65159
 Alpha  occ. eigenvalues --   -0.61501  -0.57071  -0.54378  -0.50232  -0.49121
 Alpha  occ. eigenvalues --   -0.46670  -0.42804  -0.42000  -0.41396  -0.40184
 Alpha  occ. eigenvalues --   -0.38361  -0.37636  -0.36632  -0.35358  -0.33166
 Alpha  occ. eigenvalues --   -0.31908  -0.26646  -0.24512  -0.22267
 Alpha virt. eigenvalues --    0.06351   0.07469   0.11277   0.11740   0.12459
 Alpha virt. eigenvalues --    0.13603   0.14150   0.15788   0.15882   0.16690
 Alpha virt. eigenvalues --    0.18094   0.18498   0.19698   0.20385   0.21918

 Mulliken charges:
               1
     1  C   -0.433199
     2  C   -0.082249
     3  C   -0.173628
     4  C   -0.065629
     5  O   -0.288038
     6  C    0.352111
     7  C   -0.509589
     8  C    0.297486
     9  O   -0.454255
    10  H    0.112767
    11  H    0.121620
    12  H    0.127540
    13  H    0.107908
    14  H    0.095738
    15  H    0.104564
    16  H    0.125515
    17  H    0.138601
    18  H    0.133616
    19  H    0.289120
 Sum of Mulliken charges =   0.00000

 Dipole moment (field-independent basis, Debye):
    X=             -0.2650    Y=              1.0940    Z=              0.0329  Tot=              1.1261
 Quadrupole moment (field-independent basis, Debye-Ang):
   XX=            -50.8153   YY=            -53.2664   ZZ=            -52.3848
   XY=              1.2031   XZ=              2.6103   YZ=             -6.0147

  Exact polarizability:  87.588   1.511  73.056   1.327  -5.490  65.154
 Approx polarizability: 108.226   0.336 114.080  -0.488  -6.402 106.909

                      1                      2                      3
                      A                      A                      A
 Frequencies --    151.4612               179.4354               189.0036
 Red. masses --      2.7867                 1.1264                 1.2500
 Frc consts  --      0.0377                 0.0214                 0.0263
 IR Inten    --      2.3012                 0.3852                 1.3318

                      4                      5                      6
                      A                      A                      A
 Frequencies --    203.6434               230.6428               260.5835
 Red. masses --      1.9210                 2.7536                 3.1979
 Frc consts  --      0.0469                 0.0863                 0.1279
 IR Inten    --      1.3238                 0.3703                 7.2186

                      7                      8                      9
                      A                      A                      A
 Frequencies --    303.3390               339.5101               404.1932
 Red. masses --      1.4596                 1.9633                 4.6034
 Frc consts  --      0.0791                 0.1333                 0.4431
 IR Inten    --     65.4793                44.8080                 9.5264

                     10                     11                     12
                      A                      A                      A
 Frequencies --    456.0059               465.1970               566.1228
 Red. masses --      3.1766                 3.8148                 4.2832
 Frc consts  --      0.3892                 0.4864                 0.8088
 IR Inten    --      2.4013                 0.3685                11.1641

                     13                     14                     15
                      A                      A                      A
 Frequencies --    631.5762               686.0372               764.7412
 Red. masses --      3.8831                 5.2604                 3.8794
 Frc consts  --      0.9126                 1.4587                 1.3367
 IR Inten    --      0.7268                 5.7208                 7.1237

                     16                     17                     18
                      A                      A                      A
 Frequencies --    794.4432               855.3231               892.0055
 Red. masses --      2.8646                 2.2413                 2.3845
 Frc consts  --      1.0652                 0.9661                 1.1178
 IR Inten    --      3.5372                25.0348                 1.3180

                     19                     20                     21
                      A                      A                      A
 Frequencies --    913.9861               936.3088               979.9017
 Red. masses --      2.6666                 1.8013                 1.7323
 Frc consts  --      1.3124                 0.9304                 0.9800
 IR Inten    --     11.4476                 9.6374                 2.2155

                     22                     23                     24
                      A                      A                      A
 Frequencies --    992.0924              1029.4708              1042.0370
 Red. masses --      1.6251                 1.9345                 1.5607
 Frc consts  --      0.9424                 1.2079                 0.9985
 IR Inten    --      1.8220                 4.9347                17.8662

                     25                     26                     27
                      A                      A                      A
 Frequencies --   1098.7698              1120.0523              1133.1792
 Red. masses --      1.7698                 2.7166                 1.9287
 Frc consts  --      1.2589                 2.0080                 1.4592
 IR Inten    --     21.5509                 5.9303                 3.5586

                     28                     29                     30
                      A                      A                      A
 Frequencies --   1162.5261              1201.5515              1219.9830
 Red. masses --      1.4498                 1.7676                 1.9323
 Frc consts  --      1.1544                 1.5035                 1.6945
 IR Inten    --      4.3490                25.3846                 0.8697

                     31                     32                     33
                      A                      A                      A
 Frequencies --   1257.7181              1282.0093              1354.7929
 Red. masses --      1.6149                 1.6569                 1.7781
 Frc consts  --      1.5051                 1.6044                 1.9229
 IR Inten    --     16.3755               109.1123                 1.4216

                     34                     35                     36
                      A                      A                      A
 Frequencies --   1399.5779              1412.8427              1428.9690
 Red. masses --      1.2653                 1.3848                 2.9608
 Frc consts  --      1.4603                 1.6287                 3.5621
 IR Inten    --      3.5095                 2.1141                17.9829

                     37                     38                     39
                      A                      A                      A
 Frequencies --   1468.4291              1484.0233              1495.7667
 Red. masses --      1.6085                 1.2244                 1.0486
 Frc consts  --      2.0435                 1.5887                 1.3823
 IR Inten    --      3.8078                11.0499                 3.3760

                     40                     41                     42
                      A                      A                      A
 Frequencies --   1498.1235              1507.0343              3031.5320
 Red. masses --      1.2896                 1.2851                 1.0367
 Frc consts  --      1.7053                 1.7196                 5.6136
 IR Inten    --      4.4758                 2.7037                42.4119

                     43                     44                     45
                      A                      A                      A
 Frequencies --   3033.2369              3090.2454              3097.8296
 Red. masses --      1.0378                 1.0997                 1.0967
 Frc consts  --      5.6258                 6.1877                 6.2008
 IR Inten    --     19.7466                22.1584                13.8220

                     46                     47                     48
                      A                      A                      A
 Frequencies --   3112.8873              3125.4282              3170.2905
 Red. masses --      1.1003                 1.1020                 1.0877
 Frc consts  --      6.2819                 6.3424                 6.4412
 IR Inten    --     12.7314                11.0354                11.6565

                     49                     50                     51
                      A                      A                      A
 Frequencies --   3181.1138              3206.3477              3780.2747
 Red. masses --      1.0934                 1.0939                 1.0662
 Frc consts  --      6.5190                 6.6258                 8.9773
 IR Inten    --     18.4977                 6.6332                20.3608

 - Thermochemistry -
 -------------------
 Temperature   298.150 Kelvin.  Pressure   1.00000 Atm.
 Atom     1 has atomic number  6 and mass  12.00000

 Molecular mass:   126.06808 amu.
 Principal axes and moments of inertia in atomic units:
                           1         2         3
     Eigenvalues --   628.229431213.475161546.80672
           X            0.99915   0.04016   0.00983
           Y           -0.03967   0.99820  -0.04507
           Z           -0.01162   0.04464   0.99894
 This molecule is an asymmetric top.
 Rotational symmetry number  1.
 Warning -- assumption of classical behavior for rotation
           may cause significant error
 Rotational temperatures (Kelvin)      0.13787     0.07138     0.05600
 Rotational constants (GHZ):           2.87274     1.48725     1.16675
 Zero-point vibrational energy     410448.3 (Joules/Mol)
                                   98.09950 (Kcal/Mol)
 Warning -- explicit consideration of  12 degrees of freedom as
           vibrations may cause significant error
 Vibrational temperatures:    217.92   258.17   271.93   293.00   331.84
          (Kelvin)            374.92   436.44   488.48   581.54   656.09
                              669.31   814.52   908.70   987.05  1100.29
                             1143.03  1230.62  1283.40  1315.02  1347.14
                             1409.86  1427.40  1481.18  1499.26  1580.88
                             1611.50  1630.39  1672.61  1728.76  1755.28
                             1809.57  1844.52  1949.24  2013.68  2032.76
                             2055.97  2112.74  2135.18  2152.07  2155.46
                             2168.28  4361.69  4364.15  4446.17  4457.08
                             4478.74  4496.79  4561.34  4576.91  4613.21
                             5438.97

 Zero-point correction=                           0.156331 (Hartree/Particle)
 Thermal correction to Energy=                    0.165295
 Thermal correction to Enthalpy=                  0.166239
 Thermal correction to Gibbs Free Energy=         0.123469
 Sum of electronic and zero-point Energies=           -422.951794
 Sum of electronic and thermal Energies=              -422.942830
 Sum of electronic and thermal Enthalpies=            -422.941886
 Sum of electronic and thermal Free Energies=         -422.984656

                     E (Thermal)             CV                S
                      KCal/Mol        Cal/Mol-Kelvin    Cal/Mol-Kelvin
 Total                  103.724             34.695             90.017
 Electronic               0.000              0.000              0.000
 Translational            0.889              2.981             40.409
 Rotational               0.889              2.981             28.557
 Vibrational            101.947             28.734             21.051
 Vibration     1          0.619              1.901              2.654
 Vibration     2          0.629              1.868              2.334
 Vibration     3          0.633              1.855              2.238
 Vibration     4          0.639              1.835              2.100
 Vibration     5          0.652              1.794              1.874
 Vibration     6          0.669              1.745              1.658
 Vibration     7          0.695              1.667              1.398
 Vibration     8          0.719              1.597              1.214
 Vibration     9          0.769              1.461              0.947
 Vibration    10          0.814              1.348              0.778
 Vibration    11          0.823              1.327              0.751
 Vibration    12          0.922              1.105              0.512

 Optimization completed.
    -- Stationary point found.
 Normal termination of Gaussian 09 at Mon Jan 27 23:03:45 2020.
