 Gaussian 09, Revision D.01,
 Gaussian 09:  ES64L-G09RevD.01 24-Apr-2013

 -----------------------------
 # b3lyp 6-31G(2df,p) opt Freq
 -----------------------------

 -----
 titel
 -----
 Symbolic Z-matrix:
 Charge =  0 Multiplicity = 1

 SCF Done:  E(RB3LYP) =  -423.132320694     A.U. after   14 cycles
 Optimization completed.
    -- Stationary point found.
 Normal termination of Gaussian 09 at Mon Jan 27 13:52:48 2020.

 ----------------------------------------------------------------------
 #N Geom=AllCheck Guess=TCheck SCRF=Check GenChk RB3LYP/6-31G(2df,p) Fr
 eq
 ----------------------------------------------------------------------

 Structure from the checkpoint file:  "/scratch/puck/g09_c826d84d-047f-4fa5-8ae1-0379592af541/Gau-49628.chk"
 -----
 titel
 -----
 Charge =  0 Multiplicity = 1

                         Standard orientation:
 ---------------------------------------------------------------------
 Center     Atomic      Atomic             Coordinates (Angstroms)
 Number     Number       Type             X           Y           Z
 ---------------------------------------------------------------------
      1          8           0        3.854390   -0.266055   -0.001112
      2          6           0        2.814772    0.336952    0.000711
      3          6           0        1.454439   -0.337860    0.001042
      4          8           0        0.468268    0.669419   -0.000966
      5          6           0       -0.832418    0.205070   -0.000337
      6          6           0       -1.555652   -0.657770    1.085142
      7          6           0       -2.616514   -0.313688    0.000235
      8          6           0       -2.058329    1.141143   -0.002595
      9          6           0       -1.555060   -0.662244   -1.082646
     10          1           0        2.762470    1.447835    0.002519
     11          1           0        1.381238   -0.988357   -0.884432
     12          1           0        1.380467   -0.985252    0.888797
     13          1           0       -1.266140   -1.708780    1.166039
     14          1           0       -1.689006   -0.194918    2.066280
     15          1           0       -3.661677   -0.610786    0.000575
     16          1           0       -2.221098    1.728538   -0.909640
     17          1           0       -2.221603    1.732215    0.901966
     18          1           0       -1.265489   -1.713578   -1.159030
     19          1           0       -1.687854   -0.203447   -2.065761
 ---------------------------------------------------------------------

 SCF Done:  E(RB3LYP) =  -423.132320694     A.U. after    1 cycles

 The electronic state is 1-A.
 Alpha  occ. eigenvalues --  -19.16222 -19.14552 -10.27670 -10.25736 -10.24644
 Alpha  occ. eigenvalues --  -10.21053 -10.19264 -10.19263 -10.19193  -1.06309
 Alpha  occ. eigenvalues --   -1.05033  -0.91721  -0.74686  -0.67658  -0.67643
 Alpha  occ. eigenvalues --   -0.61370  -0.58895  -0.54537  -0.53352  -0.48435
 Alpha  occ. eigenvalues --   -0.47740  -0.46024  -0.45457  -0.43851  -0.39884
 Alpha  occ. eigenvalues --   -0.39092  -0.36115  -0.35225  -0.33992  -0.32875
 Alpha  occ. eigenvalues --   -0.32820  -0.30802  -0.26485  -0.25825
 Alpha virt. eigenvalues --   -0.02901   0.08603   0.09799   0.12136   0.13290
 Alpha virt. eigenvalues --    0.13447   0.15050   0.15121   0.15125   0.15560
 Alpha virt. eigenvalues --    0.16104   0.16157   0.18158   0.19146   0.22047

 Mulliken charges:
               1
     1  O   -0.237780
     2  C    0.136979
     3  C   -0.182141
     4  O   -0.301939
     5  C    0.456804
     6  C   -0.282805
     7  C   -0.050534
     8  C   -0.274599
     9  C   -0.282794
    10  H    0.099118
    11  H    0.130426
    12  H    0.130384
    13  H    0.092874
    14  H    0.096545
    15  H    0.087045
    16  H    0.096497
    17  H    0.096489
    18  H    0.092879
    19  H    0.096553
 Sum of Mulliken charges =   0.00000

 Dipole moment (field-independent basis, Debye):
    X=             -2.7361    Y=             -0.2344    Z=              0.0054  Tot=              2.7461
 Quadrupole moment (field-independent basis, Debye-Ang):
   XX=            -64.8793   YY=            -53.0128   ZZ=            -51.9148
   XY=              2.0245   XZ=              0.0149   YZ=              0.0011

  Exact polarizability:  91.394  -3.319  72.713  -0.003   0.011  67.267
 Approx polarizability: 119.931  -6.858 111.535  -0.022   0.014 101.072

                      1                      2                      3
                      A                      A                      A
 Frequencies --     45.4075                53.6985                93.3751
 Red. masses --      5.0469                 2.1177                 2.4349
 Frc consts  --      0.0061                 0.0036                 0.0125
 IR Inten    --      3.1498                 5.3629                 7.9240

                      4                      5                      6
                      A                      A                      A
 Frequencies --    114.1061               292.2577               361.7614
 Red. masses --      5.0186                 4.2979                 4.3331
 Frc consts  --      0.0385                 0.2163                 0.3341
 IR Inten    --      0.9821                 4.3966                 2.5653

                      7                      8                      9
                      A                      A                      A
 Frequencies --    374.7290               517.7469               552.5199
 Red. masses --      3.7182                 2.7740                 1.8322
 Frc consts  --      0.3076                 0.4381                 0.3296
 IR Inten    --      3.6990                11.8105                 0.0801

                     10                     11                     12
                      A                      A                      A
 Frequencies --    568.9526               696.8953               740.0603
 Red. masses --      2.4722                 5.1409                 1.2989
 Frc consts  --      0.4715                 1.4710                 0.4192
 IR Inten    --      6.4317                 4.5778                 0.0015

                     13                     14                     15
                      A                      A                      A
 Frequencies --    775.3527               801.0235               891.3784
 Red. masses --      2.9884                 2.8433                 3.6057
 Frc consts  --      1.0585                 1.0749                 1.6880
 IR Inten    --      2.3532                 4.5628                 1.5869

                     16                     17                     18
                      A                      A                      A
 Frequencies --    943.5475               959.2514               961.7407
 Red. masses --      1.5650                 1.2657                 1.6388
 Frc consts  --      0.8209                 0.6862                 0.8931
 IR Inten    --      4.7677                 0.3537                 1.9333

                     19                     20                     21
                      A                      A                      A
 Frequencies --    969.0467               987.7414              1049.4341
 Red. masses --      2.7940                 1.0120                 3.0727
 Frc consts  --      1.5459                 0.5817                 1.9938
 IR Inten    --     22.8741                 0.0374                37.6991

                     22                     23                     24
                      A                      A                      A
 Frequencies --   1092.9174              1095.1324              1108.5958
 Red. masses --      1.6037                 2.0753                 3.3847
 Frc consts  --      1.1286                 1.4664                 2.4509
 IR Inten    --      1.1505                25.8056                63.0754

                     25                     26                     27
                      A                      A                      A
 Frequencies --   1113.8143              1133.3935              1139.3629
 Red. masses --      1.8069                 1.2990                 1.3640
 Frc consts  --      1.3207                 0.9832                 1.0433
 IR Inten    --      1.4674                 0.5566                 0.4315

                     28                     29                     30
                      A                      A                      A
 Frequencies --   1164.0998              1184.3166              1227.4497
 Red. masses --      1.6058                 1.6898                 1.7813
 Frc consts  --      1.2821                 1.3964                 1.5812
 IR Inten    --      0.7893                 1.5882                 0.0910

                     31                     32                     33
                      A                      A                      A
 Frequencies --   1233.2072              1238.8890              1239.7867
 Red. masses --      1.9303                 2.1106                 1.1204
 Frc consts  --      1.7296                 1.9086                 1.0147
 IR Inten    --      4.3057                 1.4595                 1.8877

                     34                     35                     36
                      A                      A                      A
 Frequencies --   1302.2072              1361.5156              1409.2436
 Red. masses --      3.3258                 1.3947                 1.3126
 Frc consts  --      3.3228                 1.5233                 1.5359
 IR Inten    --    369.7496                12.0739                 6.9541

                     37                     38                     39
                      A                      A                      A
 Frequencies --   1478.8230              1494.3035              1497.9810
 Red. masses --      1.0864                 1.1017                 1.1029
 Frc consts  --      1.3998                 1.4495                 1.4581
 IR Inten    --     15.5871                 0.3591                 0.4382

                     40                     41                     42
                      A                      A                      A
 Frequencies --   1556.9879              1845.0753              2902.1866
 Red. masses --      1.2106                10.6690                 1.0847
 Frc consts  --      1.7291                21.3994                 5.3827
 IR Inten    --     14.4310               174.9635                78.0566

                     43                     44                     45
                      A                      A                      A
 Frequencies --   2983.6339              3017.7073              3049.9725
 Red. masses --      1.0546                 1.1033                 1.0539
 Frc consts  --      5.5312                 5.9197                 5.7764
 IR Inten    --     27.9853                15.0834                53.7143

                     46                     47                     48
                      A                      A                      A
 Frequencies --   3053.0636              3061.1581              3117.7809
 Red. masses --      1.0537                 1.0547                 1.1127
 Frc consts  --      5.7868                 5.8231                 6.3727
 IR Inten    --     54.5862                 3.5911                 3.9956

                     49                     50                     51
                      A                      A                      A
 Frequencies --   3122.7622              3126.0789              3154.2625
 Red. masses --      1.1110                 1.1111                 1.0936
 Frc consts  --      6.3833                 6.3972                 6.4108
 IR Inten    --     48.5570                45.4524                34.5727

 - Thermochemistry -
 -------------------
 Temperature   298.150 Kelvin.  Pressure   1.00000 Atm.
 Atom     1 has atomic number  8 and mass  15.99491

 Molecular mass:   126.06808 amu.
 Principal axes and moments of inertia in atomic units:
                           1         2         3
     Eigenvalues --   350.002732310.958762355.54868
           X            1.00000   0.00167   0.00002
           Y           -0.00167   1.00000   0.00023
           Z           -0.00002  -0.00023   1.00000
 This molecule is an asymmetric top.
 Rotational symmetry number  1.
 Rotational temperatures (Kelvin)      0.24747     0.03748     0.03677
 Rotational constants (GHZ):           5.15636     0.78095     0.76617
 Zero-point vibrational energy     414241.3 (Joules/Mol)
                                   99.00604 (Kcal/Mol)
 Warning -- explicit consideration of  10 degrees of freedom as
           vibrations may cause significant error
 Vibrational temperatures:     65.33    77.26   134.35   164.17   420.49
          (Kelvin)            520.49   539.15   744.92   794.95   818.59
                             1002.68  1064.78  1115.56  1152.49  1282.49
                             1357.55  1380.15  1383.73  1394.24  1421.14
                             1509.90  1572.46  1575.65  1595.02  1602.53
                             1630.70  1639.29  1674.88  1703.97  1766.02
                             1774.31  1782.48  1783.77  1873.58  1958.91
                             2027.58  2127.69  2149.97  2155.26  2240.16
                             2654.65  4175.59  4292.78  4341.80  4388.22
                             4392.67  4404.32  4485.79  4492.95  4497.72
                             4538.27

 Zero-point correction=                           0.157776 (Hartree/Particle)
 Thermal correction to Energy=                    0.166384
 Thermal correction to Enthalpy=                  0.167328
 Thermal correction to Gibbs Free Energy=         0.122817
 Sum of electronic and zero-point Energies=           -422.974545
 Sum of electronic and thermal Energies=              -422.965936
 Sum of electronic and thermal Enthalpies=            -422.964992
 Sum of electronic and thermal Free Energies=         -423.009503

                     E (Thermal)             CV                S
                      KCal/Mol        Cal/Mol-Kelvin    Cal/Mol-Kelvin
 Total                  104.408             31.352             93.682
 Electronic               0.000              0.000              0.000
 Translational            0.889              2.981             40.409
 Rotational               0.889              2.981             29.034
 Vibrational            102.630             25.391             24.239
 Vibration     1          0.595              1.979              5.008
 Vibration     2          0.596              1.976              4.676
 Vibration     3          0.602              1.954              3.588
 Vibration     4          0.607              1.938              3.198
 Vibration     5          0.688              1.688              1.461
 Vibration     6          0.736              1.551              1.115
 Vibration     7          0.746              1.524              1.060
 Vibration     8          0.873              1.211              0.615
 Vibration     9          0.908              1.134              0.539
 Vibration    10          0.925              1.098              0.506

 Optimization completed on the basis of negligible forces.
    -- Stationary point found.
 Normal termination of Gaussian 09 at Mon Jan 27 14:30:03 2020.
