 Gaussian 09, Revision D.01,
 Gaussian 09:  ES64L-G09RevD.01 24-Apr-2013

 -----------------------------
 # b3lyp 6-31G(2df,p) opt Freq
 -----------------------------

 -----
 titel
 -----
 Symbolic Z-matrix:
 Charge =  0 Multiplicity = 1

 SCF Done:  E(RB3LYP) =  -423.218796218     A.U. after   14 cycles
 Optimization completed.
    -- Stationary point found.
 Normal termination of Gaussian 09 at Mon Jan 27 13:52:37 2020.

 ----------------------------------------------------------------------
 #N Geom=AllCheck Guess=TCheck SCRF=Check GenChk RB3LYP/6-31G(2df,p) Fr
 eq
 ----------------------------------------------------------------------

 Structure from the checkpoint file:  "/scratch/puck/g09_b4650675-4aa7-4d0b-b464-a8c3d8fb0c65/Gau-157732.chk"
 -----
 titel
 -----
 Charge =  0 Multiplicity = 1

                         Standard orientation:
 ---------------------------------------------------------------------
 Center     Atomic      Atomic             Coordinates (Angstroms)
 Number     Number       Type             X           Y           Z
 ---------------------------------------------------------------------
      1          8           0       -2.923593    0.090803    0.641340
      2          6           0       -2.475500   -0.203167   -0.434139
      3          8           0       -1.189576   -0.417566   -0.732023
      4          6           0       -0.236155   -0.303096    0.366152
      5          6           0        0.212594    1.160536    0.542748
      6          6           0        1.379566    1.352275   -0.454936
      7          6           0        2.003754   -0.030130   -0.589998
      8          6           0        2.273973   -0.792533    0.681787
      9          6           0        0.999571   -1.047375   -0.086952
     10          1           0       -3.075807   -0.343425   -1.347573
     11          1           0       -0.715806   -0.705384    1.260410
     12          1           0       -0.615543    1.852903    0.384032
     13          1           0        0.548588    1.305956    1.573704
     14          1           0        0.996741    1.671567   -1.430531
     15          1           0        2.087581    2.115819   -0.116517
     16          1           0        2.620503   -0.240395   -1.456251
     17          1           0        3.022960   -1.575508    0.640581
     18          1           0        2.233084   -0.278581    1.636746
     19          1           0        0.856232   -2.007911   -0.567109
 ---------------------------------------------------------------------

 SCF Done:  E(RB3LYP) =  -423.218796218     A.U. after    1 cycles

 The electronic state is 1-A.
 Alpha  occ. eigenvalues --  -19.18355 -19.12965 -10.30462 -10.24404 -10.19363
 Alpha  occ. eigenvalues --  -10.19337 -10.19054 -10.18704 -10.18667  -1.09988
 Alpha  occ. eigenvalues --   -1.01701  -0.88678  -0.77028  -0.72629  -0.64597
 Alpha  occ. eigenvalues --   -0.60507  -0.56214  -0.54874  -0.52140  -0.51150
 Alpha  occ. eigenvalues --   -0.47661  -0.45907  -0.44110  -0.42951  -0.40399
 Alpha  occ. eigenvalues --   -0.38241  -0.36359  -0.35874  -0.34620  -0.33593
 Alpha  occ. eigenvalues --   -0.30136  -0.29482  -0.28084  -0.27058
 Alpha virt. eigenvalues --    0.01240   0.08544   0.09264   0.11478   0.12936
 Alpha virt. eigenvalues --    0.13748   0.14330   0.14939   0.16283   0.16890
 Alpha virt. eigenvalues --    0.17217   0.18103   0.20930   0.21371   0.22951

 Mulliken charges:
               1
     1  O   -0.310297
     2  C    0.182093
     3  O   -0.226318
     4  C    0.136428
     5  C   -0.259604
     6  C   -0.214443
     7  C   -0.016361
     8  C   -0.306983
     9  C   -0.045541
    10  H    0.106533
    11  H    0.105785
    12  H    0.120833
    13  H    0.113509
    14  H    0.108628
    15  H    0.100252
    16  H    0.085116
    17  H    0.115178
    18  H    0.113186
    19  H    0.092006
 Sum of Mulliken charges =   0.00000

 Dipole moment (field-independent basis, Debye):
    X=              1.9963    Y=             -0.2179    Z=             -0.9548  Tot=              2.2236
 Quadrupole moment (field-independent basis, Debye-Ang):
   XX=            -57.4213   YY=            -51.3436   ZZ=            -52.9600
   XY=              0.4131   XZ=              4.9556   YZ=             -0.0038

  Exact polarizability:  90.035  -1.754  67.612   1.625   0.532  68.718
 Approx polarizability: 117.245  -2.307  97.921  -2.702   2.666 111.681

                      1                      2                      3
                      A                      A                      A
 Frequencies --     44.1343               111.9579               181.3420
 Red. masses --      6.6453                 3.4426                 3.4252
 Frc consts  --      0.0076                 0.0254                 0.0664
 IR Inten    --      1.6610                 1.0300                 2.8184

                      4                      5                      6
                      A                      A                      A
 Frequencies --    268.7669               286.2494               344.9721
 Red. masses --      4.3325                 1.9463                 2.6177
 Frc consts  --      0.1844                 0.0940                 0.1835
 IR Inten    --      7.9070                 6.8853                 2.1526

                      7                      8                      9
                      A                      A                      A
 Frequencies --    418.4690               453.6811               630.8514
 Red. masses --      3.1472                 2.6800                 2.4319
 Frc consts  --      0.3247                 0.3250                 0.5702
 IR Inten    --      1.2822                 7.0907                 2.2010

                     10                     11                     12
                      A                      A                      A
 Frequencies --    715.8896               741.7630               805.9149
 Red. masses --      2.7707                 4.4962                 2.4179
 Frc consts  --      0.8366                 1.4576                 0.9253
 IR Inten    --      3.9309                 1.2435                 5.4411

                     13                     14                     15
                      A                      A                      A
 Frequencies --    812.9776               830.7256               878.2092
 Red. masses --      2.2275                 1.5816                 1.8428
 Frc consts  --      0.8674                 0.6431                 0.8374
 IR Inten    --      6.2826                 4.0316                 1.5380

                     16                     17                     18
                      A                      A                      A
 Frequencies --    900.5342               929.8675               973.5548
 Red. masses --      2.8374                 3.0868                 1.6536
 Frc consts  --      1.3557                 1.5725                 0.9234
 IR Inten    --     14.9496                15.7963                 2.2800

                     19                     20                     21
                      A                      A                      A
 Frequencies --    986.8773              1026.1660              1045.8572
 Red. masses --      2.0696                 2.4800                 1.6508
 Frc consts  --      1.1876                 1.5386                 1.0639
 IR Inten    --     26.7073                 3.7499                 0.0627

                     22                     23                     24
                      A                      A                      A
 Frequencies --   1055.8908              1072.2087              1096.0955
 Red. masses --      1.4942                 1.5446                 1.1592
 Frc consts  --      0.9815                 1.0462                 0.8205
 IR Inten    --      3.2405                 0.5906                 3.3478

                     25                     26                     27
                      A                      A                      A
 Frequencies --   1116.9798              1118.6912              1189.6212
 Red. masses --      1.4308                 1.5796                 1.4860
 Frc consts  --      1.0518                 1.1647                 1.2391
 IR Inten    --      0.5870                 6.4119                66.2880

                     28                     29                     30
                      A                      A                      A
 Frequencies --   1202.2365              1210.7213              1218.4866
 Red. masses --      1.4930                 2.8326                 2.1319
 Frc consts  --      1.2714                 2.4463                 1.8649
 IR Inten    --      3.6265               220.8478               140.4916

                     31                     32                     33
                      A                      A                      A
 Frequencies --   1303.4347              1314.1424              1328.9019
 Red. masses --      1.3651                 1.4236                 1.8429
 Frc consts  --      1.3664                 1.4486                 1.9175
 IR Inten    --      1.2905                 1.1662                 1.2764

                     34                     35                     36
                      A                      A                      A
 Frequencies --   1358.4466              1378.1177              1404.5221
 Red. masses --      1.4220                 1.6182                 1.6126
 Frc consts  --      1.5461                 1.8107                 1.8743
 IR Inten    --      1.4887                 6.7932                 9.1660

                     37                     38                     39
                      A                      A                      A
 Frequencies --   1410.2075              1482.7314              1492.6860
 Red. masses --      1.1440                 1.1873                 1.1135
 Frc consts  --      1.3405                 1.5379                 1.4618
 IR Inten    --      1.9221                 3.2261                 2.9356

                     40                     41                     42
                      A                      A                      A
 Frequencies --   1508.4972              1814.3562              3017.5566
 Red. masses --      1.1344                 9.5490                 1.0897
 Frc consts  --      1.5210                18.5205                 5.8462
 IR Inten    --      3.9444               285.4931                75.2689

                     43                     44                     45
                      A                      A                      A
 Frequencies --   3042.2535              3064.8386              3082.2840
 Red. masses --      1.0594                 1.0739                 1.0968
 Frc consts  --      5.7769                 5.9431                 6.1394
 IR Inten    --     38.6176                 4.4546                28.6987

                     46                     47                     48
                      A                      A                      A
 Frequencies --   3100.6377              3124.5347              3132.4521
 Red. masses --      1.0858                 1.0975                 1.0565
 Frc consts  --      6.1501                 6.3127                 6.1078
 IR Inten    --     15.8137                12.0258                21.2410

                     49                     50                     51
                      A                      A                      A
 Frequencies --   3172.9242              3185.1844              3215.0572
 Red. masses --      1.0896                 1.0941                 1.1141
 Frc consts  --      6.4631                 6.5401                 6.7847
 IR Inten    --     15.0781                 7.5150                13.0269

 - Thermochemistry -
 -------------------
 Temperature   298.150 Kelvin.  Pressure   1.00000 Atm.
 Atom     1 has atomic number  8 and mass  15.99491

 Molecular mass:   126.06808 amu.
 Principal axes and moments of inertia in atomic units:
                           1         2         3
     Eigenvalues --   470.363651661.609291785.05214
           X            0.99995  -0.00111   0.00950
           Y            0.00118   0.99997  -0.00768
           Z           -0.00949   0.00769   0.99993
 This molecule is an asymmetric top.
 Rotational symmetry number  1.
 Warning -- assumption of classical behavior for rotation
           may cause significant error
 Rotational temperatures (Kelvin)      0.18414     0.05213     0.04852
 Rotational constants (GHZ):           3.83691     1.08614     1.01103
 Zero-point vibrational energy     422302.5 (Joules/Mol)
                                  100.93271 (Kcal/Mol)
 Warning -- explicit consideration of   8 degrees of freedom as
           vibrations may cause significant error
 Vibrational temperatures:     63.50   161.08   260.91   386.70   411.85
          (Kelvin)            496.34   602.08   652.75   907.65  1030.00
                             1067.23  1159.53  1169.69  1195.23  1263.55
                             1295.67  1337.87  1400.73  1419.89  1476.42
                             1504.75  1519.19  1542.67  1577.03  1607.08
                             1609.55  1711.60  1729.75  1741.96  1753.13
                             1875.35  1890.76  1911.99  1954.50  1982.80
                             2020.79  2028.97  2133.32  2147.64  2170.39
                             2610.45  4341.59  4377.12  4409.61  4434.71
                             4461.12  4495.50  4506.89  4565.12  4582.76
                             4625.74

 Zero-point correction=                           0.160847 (Hartree/Particle)
 Thermal correction to Energy=                    0.168794
 Thermal correction to Enthalpy=                  0.169738
 Thermal correction to Gibbs Free Energy=         0.127591
 Sum of electronic and zero-point Energies=           -423.057950
 Sum of electronic and thermal Energies=              -423.050002
 Sum of electronic and thermal Enthalpies=            -423.049058
 Sum of electronic and thermal Free Energies=         -423.091206

                     E (Thermal)             CV                S
                      KCal/Mol        Cal/Mol-Kelvin    Cal/Mol-Kelvin
 Total                  105.920             30.265             88.707
 Electronic               0.000              0.000              0.000
 Translational            0.889              2.981             40.409
 Rotational               0.889              2.981             28.724
 Vibrational            104.142             24.304             19.573
 Vibration     1          0.595              1.980              5.064
 Vibration     2          0.607              1.940              3.235
 Vibration     3          0.630              1.865              2.315
 Vibration     4          0.673              1.731              1.604
 Vibration     5          0.684              1.699              1.496
 Vibration     6          0.723              1.585              1.189
 Vibration     7          0.781              1.430              0.897
 Vibration     8          0.812              1.353              0.785

 Optimization completed.
    -- Stationary point found.
 Normal termination of Gaussian 09 at Mon Jan 27 14:34:36 2020.
