 Gaussian 09, Revision D.01,
 Gaussian 09:  ES64L-G09RevD.01 24-Apr-2013

 -----------------------------
 # b3lyp 6-31G(2df,p) opt Freq
 -----------------------------

 -----
 titel
 -----
 Symbolic Z-matrix:
 Charge =  0 Multiplicity = 1

 SCF Done:  E(RB3LYP) =  -423.123997052     A.U. after   13 cycles
 Optimization completed.
    -- Stationary point found.
 Normal termination of Gaussian 09 at Tue Jan 28 14:08:32 2020.

 ----------------------------------------------------------------------
 #N Geom=AllCheck Guess=TCheck SCRF=Check GenChk RB3LYP/6-31G(2df,p) Fr
 eq
 ----------------------------------------------------------------------

 Structure from the checkpoint file:  "/scratch/puck/g09_fafd786e-2788-4cd9-9956-7843f4ac2403/Gau-10954.chk"
 -----
 titel
 -----
 Charge =  0 Multiplicity = 1

                         Standard orientation:
 ---------------------------------------------------------------------
 Center     Atomic      Atomic             Coordinates (Angstroms)
 Number     Number       Type             X           Y           Z
 ---------------------------------------------------------------------
      1          6           0       -3.004670    0.121953   -0.227609
      2          8           0       -1.879567   -0.611119    0.208746
      3          6           0       -0.776282    0.200062    0.522281
      4          6           0        0.097618    0.653931   -0.686903
      5          8           0        1.133574    1.382237   -0.015298
      6          6           0        1.704888    0.262164    0.694427
      7          6           0        2.236867   -0.614120   -0.461501
      8          6           0        0.736620   -0.798950   -0.737309
      9          6           0        0.443112   -0.682405    0.806206
     10          1           0       -2.809336    0.669792   -1.161028
     11          1           0       -3.808820   -0.596455   -0.403463
     12          1           0       -3.334013    0.846105    0.533116
     13          1           0       -1.044566    0.995057    1.233320
     14          1           0       -0.277248    1.197913   -1.552349
     15          1           0        2.302422    0.601523    1.538715
     16          1           0        2.879048   -0.123563   -1.197279
     17          1           0        2.685196   -1.547478   -0.109978
     18          1           0        0.300996   -1.550173   -1.389409
     19          1           0        0.445346   -1.517477    1.503219
 ---------------------------------------------------------------------

 SCF Done:  E(RB3LYP) =  -423.123997052     A.U. after    1 cycles

 The electronic state is 1-A.
 Alpha  occ. eigenvalues --  -19.14369 -19.13721 -10.23663 -10.23060 -10.22856
 Alpha  occ. eigenvalues --  -10.22566 -10.19249 -10.19107 -10.18175  -1.05667
 Alpha  occ. eigenvalues --   -1.03272  -0.84478  -0.76052  -0.69332  -0.66690
 Alpha  occ. eigenvalues --   -0.60319  -0.56158  -0.54796  -0.52414  -0.49049
 Alpha  occ. eigenvalues --   -0.48583  -0.45750  -0.43607  -0.41970  -0.39798
 Alpha  occ. eigenvalues --   -0.38000  -0.35556  -0.35293  -0.33653  -0.31936
 Alpha  occ. eigenvalues --   -0.29692  -0.28977  -0.26455  -0.23003
 Alpha virt. eigenvalues --    0.08023   0.09723   0.10851   0.12153   0.12802
 Alpha virt. eigenvalues --    0.14376   0.15425   0.15896   0.16302   0.17222
 Alpha virt. eigenvalues --    0.17615   0.18102   0.18591   0.19813   0.21099

 Mulliken charges:
               1
     1  C   -0.237483
     2  O   -0.256018
     3  C    0.138744
     4  C    0.026571
     5  O   -0.271745
     6  C    0.071754
     7  C   -0.245576
     8  C   -0.059533
     9  C   -0.102897
    10  H    0.107606
    11  H    0.128025
    12  H    0.108781
    13  H    0.066472
    14  H    0.077027
    15  H    0.080563
    16  H    0.101268
    17  H    0.101691
    18  H    0.085150
    19  H    0.079599
 Sum of Mulliken charges =   0.00000

 Dipole moment (field-independent basis, Debye):
    X=             -0.4510    Y=             -0.5207    Z=             -0.1417  Tot=              0.7032
 Quadrupole moment (field-independent basis, Debye-Ang):
   XX=            -49.5126   YY=            -56.2147   ZZ=            -51.2559
   XY=             -4.3600   XZ=              2.2766   YZ=             -0.1096

  Exact polarizability:  90.630  -3.340  66.583   1.648   0.344  67.818
 Approx polarizability: 113.902  -1.343 106.415   3.245  -0.491 104.795

                      1                      2                      3
                      A                      A                      A
 Frequencies --     89.8141               156.5459               178.0481
 Red. masses --      2.4408                 1.6150                 2.0139
 Frc consts  --      0.0116                 0.0233                 0.0376
 IR Inten    --      2.2517                 0.8124                 2.3239

                      4                      5                      6
                      A                      A                      A
 Frequencies --    272.3160               380.2084               437.4909
 Red. masses --      3.1755                 2.8881                 2.6810
 Frc consts  --      0.1387                 0.2460                 0.3023
 IR Inten    --      4.5315                 0.4744                 1.6501

                      7                      8                      9
                      A                      A                      A
 Frequencies --    504.2266               528.7179               661.6118
 Red. masses --      3.6070                 4.3846                 5.0043
 Frc consts  --      0.5403                 0.7222                 1.2906
 IR Inten    --     10.3330                 1.9288                 0.4509

                     10                     11                     12
                      A                      A                      A
 Frequencies --    755.5011               817.4756               832.3186
 Red. masses --      3.2786                 1.8641                 2.0109
 Frc consts  --      1.1026                 0.7340                 0.8208
 IR Inten    --      3.8890                 3.5325                 0.9750

                     13                     14                     15
                      A                      A                      A
 Frequencies --    849.0500               890.3409               918.9887
 Red. masses --      2.8142                 2.7283                 2.4236
 Frc consts  --      1.1953                 1.2742                 1.2060
 IR Inten    --      2.1616                 6.5499                15.5793

                     16                     17                     18
                      A                      A                      A
 Frequencies --    936.3490               963.6071               984.5144
 Red. masses --      2.8288                 2.1189                 2.2660
 Frc consts  --      1.4613                 1.1592                 1.2940
 IR Inten    --      9.0621                12.7012                13.9286

                     19                     20                     21
                      A                      A                      A
 Frequencies --    994.1997              1009.7959              1049.6917
 Red. masses --      2.0647                 2.8334                 2.9254
 Frc consts  --      1.2024                 1.7023                 1.8992
 IR Inten    --      9.0185                17.2598                 3.7219

                     22                     23                     24
                      A                      A                      A
 Frequencies --   1054.5460              1073.9217              1104.4217
 Red. masses --      3.0372                 1.6889                 1.3840
 Frc consts  --      1.9900                 1.1476                 0.9946
 IR Inten    --     36.6032                 3.4685                 2.3215

                     25                     26                     27
                      A                      A                      A
 Frequencies --   1150.0945              1168.6432              1175.6693
 Red. masses --      3.1930                 1.8291                 1.4734
 Frc consts  --      2.4884                 1.4718                 1.1999
 IR Inten    --    137.5862                 4.5500                 8.0369

                     28                     29                     30
                      A                      A                      A
 Frequencies --   1185.5127              1197.5931              1225.0906
 Red. masses --      1.3810                 1.5173                 1.5973
 Frc consts  --      1.1436                 1.2822                 1.4124
 IR Inten    --      5.8983                 5.5428                30.2905

                     31                     32                     33
                      A                      A                      A
 Frequencies --   1231.8102              1245.1359              1268.3734
 Red. masses --      1.3059                 1.6179                 1.5705
 Frc consts  --      1.1675                 1.4778                 1.4886
 IR Inten    --      3.9627                10.2669                 8.1054

                     34                     35                     36
                      A                      A                      A
 Frequencies --   1273.9586              1281.6089              1322.1004
 Red. masses --      1.7495                 1.9565                 1.4424
 Frc consts  --      1.6729                 1.8934                 1.4855
 IR Inten    --     12.5371                 3.8451                13.1713

                     37                     38                     39
                      A                      A                      A
 Frequencies --   1376.8173              1480.5916              1483.6986
 Red. masses --      1.5075                 1.1282                 1.1273
 Frc consts  --      1.6837                 1.4572                 1.4622
 IR Inten    --     42.8042                 1.8968                 1.0598

                     40                     41                     42
                      A                      A                      A
 Frequencies --   1488.6626              1507.7351              2980.4022
 Red. masses --      1.0734                 1.0588                 1.0382
 Frc consts  --      1.4016                 1.4181                 5.4333
 IR Inten    --      3.4939                 7.4269                46.3603

                     43                     44                     45
                      A                      A                      A
 Frequencies --   3001.4203              3029.7800              3058.3644
 Red. masses --      1.0824                 1.1029                 1.0560
 Frc consts  --      5.7450                 5.9648                 5.8194
 IR Inten    --     72.8878                47.5250                33.6788

                     46                     47                     48
                      A                      A                      A
 Frequencies --   3116.3314              3120.5715              3133.1232
 Red. masses --      1.0969                 1.1094                 1.0899
 Frc consts  --      6.2762                 6.3650                 6.3039
 IR Inten    --     29.8064                23.1809                43.2690

                     49                     50                     51
                      A                      A                      A
 Frequencies --   3136.0735              3147.0114              3165.3878
 Red. masses --      1.0916                 1.0908                 1.0927
 Frc consts  --      6.3256                 6.3650                 6.4506
 IR Inten    --     24.2688                35.3561                16.9385

 - Thermochemistry -
 -------------------
 Temperature   298.150 Kelvin.  Pressure   1.00000 Atm.
 Atom     1 has atomic number  6 and mass  12.00000

 Molecular mass:   126.06808 amu.
 Principal axes and moments of inertia in atomic units:
                           1         2         3
     Eigenvalues --   424.726031427.210501518.17450
           X            0.99957  -0.02852   0.00689
           Y            0.02842   0.99950   0.01352
           Z           -0.00727  -0.01331   0.99988
 This molecule is an asymmetric top.
 Rotational symmetry number  1.
 Rotational temperatures (Kelvin)      0.20393     0.06069     0.05705
 Rotational constants (GHZ):           4.24919     1.26452     1.18876
 Zero-point vibrational energy     421057.2 (Joules/Mol)
                                  100.63508 (Kcal/Mol)
 Warning -- explicit consideration of   8 degrees of freedom as
           vibrations may cause significant error
 Vibrational temperatures:    129.22   225.23   256.17   391.80   547.03
          (Kelvin)            629.45   725.47   760.71   951.91  1087.00
                             1176.16  1197.52  1221.59  1281.00  1322.22
                             1347.20  1386.41  1416.49  1430.43  1452.87
                             1510.27  1517.25  1545.13  1589.01  1654.73
                             1681.41  1691.52  1705.69  1723.07  1762.63
                             1772.30  1791.47  1824.90  1832.94  1843.95
                             1902.21  1980.93  2130.24  2134.71  2141.85
                             2169.29  4288.13  4318.37  4359.17  4400.30
                             4483.70  4489.80  4507.86  4512.10  4527.84
                             4554.28

 Zero-point correction=                           0.160372 (Hartree/Particle)
 Thermal correction to Energy=                    0.167734
 Thermal correction to Enthalpy=                  0.168678
 Thermal correction to Gibbs Free Energy=         0.128407
 Sum of electronic and zero-point Energies=           -422.963625
 Sum of electronic and thermal Energies=              -422.956263
 Sum of electronic and thermal Enthalpies=            -422.955319
 Sum of electronic and thermal Free Energies=         -422.995590

                     E (Thermal)             CV                S
                      KCal/Mol        Cal/Mol-Kelvin    Cal/Mol-Kelvin
 Total                  105.255             29.097             84.757
 Electronic               0.000              0.000              0.000
 Translational            0.889              2.981             40.409
 Rotational               0.889              2.981             28.311
 Vibrational            103.477             23.136             16.038
 Vibration     1          0.602              1.956              3.664
 Vibration     2          0.620              1.895              2.591
 Vibration     3          0.628              1.869              2.349
 Vibration     4          0.675              1.724              1.581
 Vibration     5          0.750              1.512              1.038
 Vibration     6          0.798              1.388              0.835
 Vibration     7          0.860              1.241              0.648
 Vibration     8          0.884              1.186              0.590

 Optimization completed.
    -- Stationary point found.
 Normal termination of Gaussian 09 at Tue Jan 28 14:57:15 2020.
