 Gaussian 09, Revision D.01,
 Gaussian 09:  ES64L-G09RevD.01 24-Apr-2013

 -----------------------------
 # b3lyp 6-31G(2df,p) opt Freq
 -----------------------------

 -----
 titel
 -----
 Symbolic Z-matrix:
 Charge =  0 Multiplicity = 1

 SCF Done:  E(RB3LYP) =  -423.180926150     A.U. after   14 cycles
 Optimization completed.
    -- Stationary point found.
 Normal termination of Gaussian 09 at Mon Jan 27 17:36:10 2020.

 ----------------------------------------------------------------------
 #N Geom=AllCheck Guess=TCheck SCRF=Check GenChk RB3LYP/6-31G(2df,p) Fr
 eq
 ----------------------------------------------------------------------

 Structure from the checkpoint file:  "/scratch/puck/g09_b16a3b5e-f6a7-4c3f-907e-20fa6472f6c7/Gau-79638.chk"
 -----
 titel
 -----
 Charge =  0 Multiplicity = 1

                         Standard orientation:
 ---------------------------------------------------------------------
 Center     Atomic      Atomic             Coordinates (Angstroms)
 Number     Number       Type             X           Y           Z
 ---------------------------------------------------------------------
      1          6           0        2.150636    1.006240   -0.306480
      2          6           0        1.017672    0.097060    0.070154
      3          8           0        1.330706   -1.289320    0.268907
      4          6           0        0.395113   -0.947406   -0.753620
      5          6           0       -1.064694   -0.963379   -0.275943
      6          6           0       -1.728663    0.307262   -0.868226
      7          6           0       -1.090981    1.416970    0.028666
      8          6           0       -0.167226    0.565229    0.943094
      9          8           0       -0.934531   -0.628156    1.107763
     10          1           0        1.787838    1.951340   -0.722450
     11          1           0        2.760209    1.242682    0.572953
     12          1           0        2.797308    0.526393   -1.045060
     13          1           0        0.670221   -1.170136   -1.780522
     14          1           0       -1.613916   -1.898439   -0.381115
     15          1           0       -1.506721    0.439370   -1.931230
     16          1           0       -2.813442    0.267366   -0.751641
     17          1           0       -0.551167    2.172674   -0.546983
     18          1           0       -1.846362    1.928240    0.628760
     19          1           0        0.075491    0.988465    1.918056
 ---------------------------------------------------------------------

 SCF Done:  E(RB3LYP) =  -423.180926150     A.U. after    1 cycles

 The electronic state is 1-A.
 Alpha  occ. eigenvalues --  -19.14497 -19.13779 -10.23717 -10.23409 -10.23356
 Alpha  occ. eigenvalues --  -10.23005 -10.18921 -10.18899 -10.18854  -1.08623
 Alpha  occ. eigenvalues --   -1.02801  -0.79070  -0.76134  -0.72624  -0.67818
 Alpha  occ. eigenvalues --   -0.60346  -0.57528  -0.56080  -0.51376  -0.49332
 Alpha  occ. eigenvalues --   -0.46785  -0.44641  -0.43133  -0.40891  -0.39935
 Alpha  occ. eigenvalues --   -0.38524  -0.37624  -0.35666  -0.35195  -0.34180
 Alpha  occ. eigenvalues --   -0.32107  -0.29210  -0.26567  -0.24648
 Alpha virt. eigenvalues --    0.08237   0.09954   0.10239   0.10824   0.12619
 Alpha virt. eigenvalues --    0.12963   0.14188   0.15477   0.16065   0.16569
 Alpha virt. eigenvalues --    0.17672   0.19313   0.19735   0.21522   0.22262

 Mulliken charges:
               1
     1  C   -0.497027
     2  C    0.431925
     3  O   -0.287241
     4  C   -0.041563
     5  C    0.023740
     6  C   -0.224032
     7  C   -0.222859
     8  C   -0.022069
     9  O   -0.240827
    10  H    0.125119
    11  H    0.131797
    12  H    0.134350
    13  H    0.097245
    14  H    0.086352
    15  H    0.100314
    16  H    0.110466
    17  H    0.102076
    18  H    0.110108
    19  H    0.082127
 Sum of Mulliken charges =   0.00000

 Dipole moment (field-independent basis, Debye):
    X=             -0.4224    Y=              2.1249    Z=             -1.9977  Tot=              2.9469
 Quadrupole moment (field-independent basis, Debye-Ang):
   XX=            -52.9569   YY=            -53.7172   ZZ=            -52.7662
   XY=              2.9058   XZ=              0.6993   YZ=              3.8832

  Exact polarizability:  78.947   2.630  72.534   2.098   4.573  66.787
 Approx polarizability: 107.402   2.383 111.054   4.472   4.360 106.089

                      1                      2                      3
                      A                      A                      A
 Frequencies --    152.0086               181.8416               254.6490
 Red. masses --      1.3598                 1.4841                 2.3785
 Frc consts  --      0.0185                 0.0289                 0.0909
 IR Inten    --      0.1286                 0.0474                 0.2078

                      4                      5                      6
                      A                      A                      A
 Frequencies --    292.4114               359.2134               447.7818
 Red. masses --      2.3351                 2.9740                 3.3900
 Frc consts  --      0.1176                 0.2261                 0.4005
 IR Inten    --      0.1915                 1.0569                 1.5379

                      7                      8                      9
                      A                      A                      A
 Frequencies --    489.5334               562.4468               624.1464
 Red. masses --      8.2761                 4.6113                 5.1999
 Frc consts  --      1.1685                 0.8595                 1.1935
 IR Inten    --      2.1814                 5.8577                17.8900

                     10                     11                     12
                      A                      A                      A
 Frequencies --    665.9599               801.3932               826.0165
 Red. masses --      4.0066                 1.9619                 3.2187
 Frc consts  --      1.0469                 0.7424                 1.2939
 IR Inten    --      1.8197                 9.1077                 5.1610

                     13                     14                     15
                      A                      A                      A
 Frequencies --    835.6126               864.0946               879.0355
 Red. masses --      3.3605                 2.7332                 2.5722
 Frc consts  --      1.3825                 1.2024                 1.1710
 IR Inten    --     10.4471                16.7936                 3.6047

                     16                     17                     18
                      A                      A                      A
 Frequencies --    902.8337               922.7755               936.4022
 Red. masses --      2.7089                 2.1826                 2.0011
 Frc consts  --      1.3009                 1.0950                 1.0338
 IR Inten    --      5.5222                12.6444                 7.7154

                     19                     20                     21
                      A                      A                      A
 Frequencies --    969.5382               981.9616              1018.7538
 Red. masses --      2.4929                 2.4375                 1.9773
 Frc consts  --      1.3807                 1.3848                 1.2091
 IR Inten    --     11.3738                 9.8296                11.7615

                     22                     23                     24
                      A                      A                      A
 Frequencies --   1031.6033              1056.3295              1065.7968
 Red. masses --      2.3071                 2.6534                 2.4563
 Frc consts  --      1.4466                 1.7444                 1.6439
 IR Inten    --     15.7663                16.2441                13.2908

                     25                     26                     27
                      A                      A                      A
 Frequencies --   1115.6402              1153.7335              1215.3777
 Red. masses --      1.8282                 1.3049                 1.6264
 Frc consts  --      1.3406                 1.0234                 1.4154
 IR Inten    --     10.1969                10.6657                 2.6331

                     28                     29                     30
                      A                      A                      A
 Frequencies --   1222.4227              1233.4040              1248.7510
 Red. masses --      1.5721                 1.3184                 1.2881
 Frc consts  --      1.3841                 1.1817                 1.1834
 IR Inten    --      5.5101                 3.4568                 2.4840

                     31                     32                     33
                      A                      A                      A
 Frequencies --   1269.8187              1298.0290              1316.2667
 Red. masses --      1.3548                 1.6294                 1.5049
 Frc consts  --      1.2871                 1.6175                 1.5362
 IR Inten    --      4.6611                 1.0618                 1.2363

                     34                     35                     36
                      A                      A                      A
 Frequencies --   1332.3245              1342.1771              1409.3428
 Red. masses --      1.6597                 1.5829                 1.2694
 Frc consts  --      1.7358                 1.6801                 1.4856
 IR Inten    --      1.8178                 8.1603                 3.9151

                     37                     38                     39
                      A                      A                      A
 Frequencies --   1454.1313              1481.8480              1487.8746
 Red. masses --      2.6367                 1.0831                 1.1670
 Frc consts  --      3.2849                 1.4013                 1.5221
 IR Inten    --     10.0504                 0.5356                 6.1381

                     40                     41                     42
                      A                      A                      A
 Frequencies --   1496.7224              1504.7760              3036.6979
 Red. masses --      1.1578                 1.1008                 1.0371
 Frc consts  --      1.5281                 1.4686                 5.6346
 IR Inten    --      2.0989                 7.3349                19.1457

                     43                     44                     45
                      A                      A                      A
 Frequencies --   3061.3822              3073.8667              3097.4929
 Red. masses --      1.0603                 1.0607                 1.0990
 Frc consts  --      5.8547                 5.9050                 6.2125
 IR Inten    --     26.7805                27.1468                17.2215

                     46                     47                     48
                      A                      A                      A
 Frequencies --   3105.2339              3119.3822              3123.0879
 Red. masses --      1.1044                 1.0931                 1.0983
 Frc consts  --      6.2744                 6.2668                 6.3118
 IR Inten    --      1.8003                26.0452                49.2010

                     49                     50                     51
                      A                      A                      A
 Frequencies --   3124.7923              3129.6869              3159.0845
 Red. masses --      1.1009                 1.0936                 1.0923
 Frc consts  --      6.3334                 6.3114                 6.4229
 IR Inten    --      2.5530                37.4610                17.3993

 - Thermochemistry -
 -------------------
 Temperature   298.150 Kelvin.  Pressure   1.00000 Atm.
 Atom     1 has atomic number  6 and mass  12.00000

 Molecular mass:   126.06808 amu.
 Principal axes and moments of inertia in atomic units:
                           1         2         3
     Eigenvalues --   640.53119 983.853271172.75885
           X            0.99888   0.04654   0.00862
           Y           -0.04687   0.99801   0.04224
           Z           -0.00664  -0.04260   0.99907
 This molecule is an asymmetric top.
 Rotational symmetry number  1.
 Warning -- assumption of classical behavior for rotation
           may cause significant error
 Rotational temperatures (Kelvin)      0.13522     0.08804     0.07385
 Rotational constants (GHZ):           2.81757     1.83436     1.53889
 Zero-point vibrational energy     423092.2 (Joules/Mol)
                                  101.12145 (Kcal/Mol)
 Warning -- explicit consideration of   8 degrees of freedom as
           vibrations may cause significant error
 Vibrational temperatures:    218.71   261.63   366.38   420.71   516.83
          (Kelvin)            644.26   704.33   809.23   898.01   958.17
                             1153.02  1188.45  1202.26  1243.24  1264.73
                             1298.97  1327.67  1347.27  1394.95  1412.82
                             1465.76  1484.25  1519.82  1533.44  1605.16
                             1659.96  1748.66  1758.79  1774.59  1796.67
                             1826.98  1867.57  1893.81  1916.92  1931.09
                             2027.73  2092.17  2132.05  2140.72  2153.45
                             2165.03  4369.13  4404.64  4422.60  4456.60
                             4467.73  4488.09  4493.42  4495.87  4502.92
                             4545.21

 Zero-point correction=                           0.161147 (Hartree/Particle)
 Thermal correction to Energy=                    0.168308
 Thermal correction to Enthalpy=                  0.169253
 Thermal correction to Gibbs Free Energy=         0.129927
 Sum of electronic and zero-point Energies=           -423.019779
 Sum of electronic and thermal Energies=              -423.012618
 Sum of electronic and thermal Enthalpies=            -423.011674
 Sum of electronic and thermal Free Energies=         -423.050999

                     E (Thermal)             CV                S
                      KCal/Mol        Cal/Mol-Kelvin    Cal/Mol-Kelvin
 Total                  105.615             29.306             82.767
 Electronic               0.000              0.000              0.000
 Translational            0.889              2.981             40.409
 Rotational               0.889              2.981             28.093
 Vibrational            103.838             23.344             14.265
 Vibration     1          0.619              1.900              2.647
 Vibration     2          0.630              1.864              2.309
 Vibration     3          0.665              1.755              1.698
 Vibration     4          0.688              1.688              1.460
 Vibration     5          0.734              1.556              1.126
 Vibration     6          0.807              1.366              0.803
 Vibration     7          0.845              1.273              0.685
 Vibration     8          0.918              1.113              0.519

 Optimization completed.
    -- Stationary point found.
 Normal termination of Gaussian 09 at Mon Jan 27 18:31:20 2020.
