 Gaussian 09, Revision D.01,
 Gaussian 09:  ES64L-G09RevD.01 24-Apr-2013

 -----------------------------
 # b3lyp 6-31G(2df,p) opt Freq
 -----------------------------

 -----
 titel
 -----
 Symbolic Z-matrix:
 Charge =  0 Multiplicity = 1

 SCF Done:  E(RB3LYP) =  -423.175664935     A.U. after   14 cycles
 SCF Done:  E(RB3LYP) =  -423.175665026     A.U. after    7 cycles
 SCF Done:  E(RB3LYP) =  -423.175665078     A.U. after    8 cycles
 SCF Done:  E(RB3LYP) =  -423.175665215     A.U. after    7 cycles
 SCF Done:  E(RB3LYP) =  -423.175665354     A.U. after    8 cycles
 SCF Done:  E(RB3LYP) =  -423.175665516     A.U. after    8 cycles
 SCF Done:  E(RB3LYP) =  -423.175665841     A.U. after    9 cycles
 SCF Done:  E(RB3LYP) =  -423.175665966     A.U. after    9 cycles
 SCF Done:  E(RB3LYP) =  -423.175666062     A.U. after    7 cycles
 SCF Done:  E(RB3LYP) =  -423.175666108     A.U. after    8 cycles
 SCF Done:  E(RB3LYP) =  -423.175163375     A.U. after   12 cycles
 SCF Done:  E(RB3LYP) =  -423.175666189     A.U. after    8 cycles
 SCF Done:  E(RB3LYP) =  -423.175621116     A.U. after   11 cycles
 SCF Done:  E(RB3LYP) =  -423.175666097     A.U. after   11 cycles
 SCF Done:  E(RB3LYP) =  -423.175666159     A.U. after    7 cycles
 SCF Done:  E(RB3LYP) =  -423.175666149     A.U. after    9 cycles
 SCF Done:  E(RB3LYP) =  -423.175666165     A.U. after    8 cycles
 SCF Done:  E(RB3LYP) =  -423.174898455     A.U. after   12 cycles
 SCF Done:  E(RB3LYP) =  -423.175666189     A.U. after    8 cycles
 Optimization completed.
    -- Stationary point found.
 Normal termination of Gaussian 09 at Wed Jan 29 13:32:55 2020.

 ----------------------------------------------------------------------
 #N Geom=AllCheck Guess=TCheck SCRF=Check GenChk RB3LYP/6-31G(2df,p) Fr
 eq
 ----------------------------------------------------------------------

 Structure from the checkpoint file:  "/scratch/puck/g09_e0030ffe-e34e-44da-8c3a-7563c35f8486/Gau-88179.chk"
 -----
 titel
 -----
 Charge =  0 Multiplicity = 1

                         Standard orientation:
 ---------------------------------------------------------------------
 Center     Atomic      Atomic             Coordinates (Angstroms)
 Number     Number       Type             X           Y           Z
 ---------------------------------------------------------------------
      1          6           0       -3.963743    0.370750    0.687157
      2          6           0       -3.087905    0.370118   -0.579085
      3          6           0       -1.787121   -0.260078   -0.376475
      4          6           0       -0.719532   -0.784959   -0.187251
      5          6           0        0.569901   -1.425410    0.031816
      6          6           0        1.792723   -0.502274    0.056396
      7          8           0        2.909596   -0.961079    0.153777
      8          6           0        1.600991    0.999664   -0.030682
      9          8           0        2.822123    1.671032    0.034982
     10          1           0       -4.154666   -0.650209    1.028407
     11          1           0       -3.472070    0.912080    1.499869
     12          1           0       -4.924746    0.851995    0.483901
     13          1           0       -3.616000   -0.144882   -1.391677
     14          1           0       -2.939595    1.401388   -0.923993
     15          1           0        0.578078   -1.966588    0.987709
     16          1           0        0.769718   -2.187036   -0.732443
     17          1           0        1.061090    1.218562   -0.966628
     18          1           0        0.920393    1.305198    0.781054
     19          1           0        3.492161    0.972995    0.112471
 ---------------------------------------------------------------------

 SCF Done:  E(RB3LYP) =  -423.175666189     A.U. after    1 cycles

 The electronic state is 1-A.
 Alpha  occ. eigenvalues --  -19.15076 -19.12954 -10.28653 -10.23683 -10.22696
 Alpha  occ. eigenvalues --  -10.21579 -10.18953 -10.18607 -10.18298  -1.06720
 Alpha  occ. eigenvalues --   -1.01210  -0.81441  -0.79212  -0.72209  -0.69987
 Alpha  occ. eigenvalues --   -0.64250  -0.56341  -0.52628  -0.48653  -0.48205
 Alpha  occ. eigenvalues --   -0.47472  -0.46275  -0.45331  -0.44094  -0.41990
 Alpha  occ. eigenvalues --   -0.40333  -0.37780  -0.37047  -0.36892  -0.34507
 Alpha  occ. eigenvalues --   -0.28861  -0.26994  -0.26145  -0.25246
 Alpha virt. eigenvalues --   -0.02750   0.04123   0.04435   0.09579   0.10357
 Alpha virt. eigenvalues --    0.12205   0.13201   0.14156   0.14871   0.16108
 Alpha virt. eigenvalues --    0.16743   0.18334   0.18960   0.19553   0.20730

 Mulliken charges:
               1
     1  C   -0.365815
     2  C   -0.315491
     3  C    0.102453
     4  C    0.032798
     5  C   -0.466567
     6  C    0.363511
     7  O   -0.317283
     8  C   -0.132497
     9  O   -0.422884
    10  H    0.129892
    11  H    0.129445
    12  H    0.118466
    13  H    0.133328
    14  H    0.133582
    15  H    0.166689
    16  H    0.165982
    17  H    0.126499
    18  H    0.124252
    19  H    0.293639
 Sum of Mulliken charges =   0.00000

 Dipole moment (field-independent basis, Debye):
    X=             -3.2620    Y=             -0.7834    Z=             -0.1249  Tot=              3.3571
 Quadrupole moment (field-independent basis, Debye-Ang):
   XX=            -56.3959   YY=            -56.0792   ZZ=            -52.0804
   XY=             -3.4768   XZ=              0.4607   YZ=             -0.2105

  Exact polarizability: 113.566 -10.780  73.222   3.292  -1.735  57.707
 Approx polarizability: 155.815 -24.928 109.224   9.277  -4.498  85.977

                      1                      2                      3
                      A                      A                      A
 Frequencies --      3.2025                14.9699                72.6709
 Red. masses --      3.6695                 2.5792                 3.3847
 Frc consts  --      0.0000                 0.0003                 0.0105
 IR Inten    --      2.5251                 0.1071                 0.3816

                      4                      5                      6
                      A                      A                      A
 Frequencies --    125.3797               135.4323               192.9218
 Red. masses --      2.9673                 2.3914                 1.7034
 Frc consts  --      0.0275                 0.0258                 0.0374
 IR Inten    --      5.2997                 2.6008                 1.2235

                      7                      8                      9
                      A                      A                      A
 Frequencies --    258.9852               276.8161               333.5287
 Red. masses --      2.4735                 2.5672                 3.5817
 Frc consts  --      0.0977                 0.1159                 0.2347
 IR Inten    --      0.3621                 6.9058                23.2911

                     10                     11                     12
                      A                      A                      A
 Frequencies --    385.5110               395.8146               455.8751
 Red. masses --      1.4180                 3.8791                 6.5413
 Frc consts  --      0.1242                 0.3581                 0.8010
 IR Inten    --     27.4659                11.8560                 1.9409

                     13                     14                     15
                      A                      A                      A
 Frequencies --    480.1594               528.1060               623.1538
 Red. masses --      1.7094                 4.4526                 4.5964
 Frc consts  --      0.2322                 0.7317                 1.0516
 IR Inten    --     40.3396                 0.2172                14.8948

                     16                     17                     18
                      A                      A                      A
 Frequencies --    755.8099               784.9298               798.3430
 Red. masses --      3.4767                 1.1821                 1.6018
 Frc consts  --      1.1701                 0.4291                 0.6015
 IR Inten    --      0.3097                 1.7884                 1.5963

                     19                     20                     21
                      A                      A                      A
 Frequencies --    832.9648               969.8229              1025.6085
 Red. masses --      3.9565                 2.3510                 2.1484
 Frc consts  --      1.6174                 1.3028                 1.3315
 IR Inten    --      3.3359                 0.2144                 0.4194

                     22                     23                     24
                      A                      A                      A
 Frequencies --   1079.8138              1103.9936              1112.7851
 Red. masses --      1.9046                 1.5430                 6.9267
 Frc consts  --      1.3084                 1.1080                 5.0536
 IR Inten    --      2.9225                14.3938               207.4091

                     25                     26                     27
                      A                      A                      A
 Frequencies --   1161.2915              1174.4188              1203.2753
 Red. masses --      2.6137                 2.3440                 1.1209
 Frc consts  --      2.0768                 1.9048                 0.9562
 IR Inten    --      3.9503                 2.5392                 0.8831

                     28                     29                     30
                      A                      A                      A
 Frequencies --   1249.8153              1285.9647              1306.5327
 Red. masses --      1.1303                 1.1516                 1.5423
 Frc consts  --      1.0403                 1.1220                 1.5512
 IR Inten    --      0.7610                 0.2173                37.0045

                     31                     32                     33
                      A                      A                      A
 Frequencies --   1311.1106              1351.3450              1409.5321
 Red. masses --      1.5770                 1.5672                 1.2114
 Frc consts  --      1.5973                 1.6862                 1.4181
 IR Inten    --     57.9712                25.4002                 0.9447

                     34                     35                     36
                      A                      A                      A
 Frequencies --   1430.1533              1449.3061              1473.8063
 Red. masses --      1.0929                 1.3071                 1.0740
 Frc consts  --      1.3170                 1.6176                 1.3745
 IR Inten    --      3.7010                73.9683                 4.0708

                     37                     38                     39
                      A                      A                      A
 Frequencies --   1477.8348              1494.8587              1505.3611
 Red. masses --      1.0938                 1.0396                 1.0571
 Frc consts  --      1.4074                 1.3688                 1.4114
 IR Inten    --     15.6405                 4.9866                 1.6264

                     40                     41                     42
                      A                      A                      A
 Frequencies --   1795.9710              2368.3577              2980.5548
 Red. masses --     11.3245                11.8543                 1.0575
 Frc consts  --     21.5213                39.1759                 5.5351
 IR Inten    --    171.9597                 3.0011                36.4709

                     43                     44                     45
                      A                      A                      A
 Frequencies --   2994.7074              3022.4418              3024.0929
 Red. masses --      1.0998                 1.0589                 1.0608
 Frc consts  --      5.8114                 5.6994                 5.7160
 IR Inten    --     18.4877                22.1497                12.1138

                     46                     47                     48
                      A                      A                      A
 Frequencies --   3046.1237              3050.1047              3056.6618
 Red. masses --      1.0342                 1.1011                 1.0977
 Frc consts  --      5.6539                 6.0353                 6.0429
 IR Inten    --     27.1199                 7.7413                 1.2968

                     49                     50                     51
                      A                      A                      A
 Frequencies --   3120.4428              3124.9407              3684.3990
 Red. masses --      1.1023                 1.1030                 1.0645
 Frc consts  --      6.3240                 6.3460                 8.5136
 IR Inten    --     27.9724                23.3559                57.4778

 - Thermochemistry -
 -------------------
 Temperature   298.150 Kelvin.  Pressure   1.00000 Atm.
 Atom     1 has atomic number  6 and mass  12.00000

 Molecular mass:   126.06808 amu.
 Principal axes and moments of inertia in atomic units:
                           1         2         3
     Eigenvalues --   531.626902839.758113216.28122
           X            0.99995  -0.00822  -0.00539
           Y            0.00820   0.99996  -0.00311
           Z            0.00542   0.00307   0.99998
 This molecule is an asymmetric top.
 Rotational symmetry number  1.
 Warning -- assumption of classical behavior for rotation
           may cause significant error
 Rotational temperatures (Kelvin)      0.16292     0.03050     0.02693
 Rotational constants (GHZ):           3.39475     0.63553     0.56113
 Zero-point vibrational energy     408524.7 (Joules/Mol)
                                   97.63976 (Kcal/Mol)
 Warning -- explicit consideration of  14 degrees of freedom as
           vibrations may cause significant error
 Vibrational temperatures:      4.61    21.54   104.56   180.39   194.86
          (Kelvin)            277.57   372.62   398.28   479.87   554.66
                              569.49   655.90   690.84   759.83   896.58
                             1087.44  1129.34  1148.64  1198.45  1395.36
                             1475.62  1553.61  1588.40  1601.05  1670.84
                             1689.72  1731.24  1798.20  1850.21  1879.81
                             1886.39  1944.28  2028.00  2057.67  2085.23
                             2120.48  2126.27  2150.77  2165.88  2584.00
                             3407.53  4288.35  4308.71  4348.61  4350.99
                             4382.69  4388.41  4397.85  4489.62  4496.09
                             5301.02

 Zero-point correction=                           0.155599 (Hartree/Particle)
 Thermal correction to Energy=                    0.166412
 Thermal correction to Enthalpy=                  0.167356
 Thermal correction to Gibbs Free Energy=         0.114817
 Sum of electronic and zero-point Energies=           -423.020067
 Sum of electronic and thermal Energies=              -423.009254
 Sum of electronic and thermal Enthalpies=            -423.008310
 Sum of electronic and thermal Free Energies=         -423.060849

                     E (Thermal)             CV                S
                      KCal/Mol        Cal/Mol-Kelvin    Cal/Mol-Kelvin
 Total                  104.425             36.750            110.578
 Electronic               0.000              0.000              0.000
 Translational            0.889              2.981             40.409
 Rotational               0.889              2.981             29.964
 Vibrational            102.648             30.788             40.206
 Vibration     1          0.592              1.987             10.274
 Vibration     2          0.593              1.986              7.210
 Vibration     3          0.599              1.967              4.080
 Vibration     4          0.610              1.928              3.016
 Vibration     5          0.613              1.918              2.867
 Vibration     6          0.635              1.850              2.200
 Vibration     7          0.668              1.748              1.669
 Vibration     8          0.678              1.716              1.553
 Vibration     9          0.715              1.609              1.243
 Vibration    10          0.754              1.501              1.017
 Vibration    11          0.763              1.479              0.978
 Vibration    12          0.814              1.348              0.778
 Vibration    13          0.837              1.294              0.710
 Vibration    14          0.883              1.188              0.591

 Normal termination of Gaussian 09 at Wed Jan 29 14:04:51 2020.
