 Gaussian 09, Revision D.01,
 Gaussian 09:  ES64L-G09RevD.01 24-Apr-2013

 -----------------------------
 # b3lyp 6-31G(2df,p) opt Freq
 -----------------------------

 -----
 titel
 -----
 Symbolic Z-matrix:
 Charge =  0 Multiplicity = 1

 SCF Done:  E(RB3LYP) =  -423.148596895     A.U. after   14 cycles
 Optimization completed.
    -- Stationary point found.
 Normal termination of Gaussian 09 at Mon Jan 27 15:49:21 2020.

 ----------------------------------------------------------------------
 #N Geom=AllCheck Guess=TCheck SCRF=Check GenChk RB3LYP/6-31G(2df,p) Fr
 eq
 ----------------------------------------------------------------------

 Structure from the checkpoint file:  "/scratch/puck/g09_f10fb164-4806-4872-90d9-18f94ed9f830/Gau-9967.chk"
 -----
 titel
 -----
 Charge =  0 Multiplicity = 1

                         Standard orientation:
 ---------------------------------------------------------------------
 Center     Atomic      Atomic             Coordinates (Angstroms)
 Number     Number       Type             X           Y           Z
 ---------------------------------------------------------------------
      1          6           0       -1.577456    1.656001   -0.044081
      2          6           0       -0.966205    0.290632   -0.360601
      3          6           0       -1.935491   -0.848781   -0.084132
      4          8           0       -3.081752   -0.696293    0.257121
      5          6           0        0.343723    0.046844    0.398123
      6          8           0        0.942010   -1.232432    0.024072
      7          6           0        2.059820   -0.553394   -0.555483
      8          6           0        2.816423    0.208793    0.483746
      9          6           0        1.563123    0.806086   -0.124398
     10          1           0       -0.901790    2.468462   -0.325496
     11          1           0       -2.519953    1.784853   -0.580042
     12          1           0       -1.798304    1.746033    1.023863
     13          1           0       -0.720139    0.218462   -1.431735
     14          1           0       -1.504205   -1.860721   -0.227597
     15          1           0        0.171198    0.098793    1.481701
     16          1           0        2.462156   -0.938297   -1.485020
     17          1           0        2.820042   -0.147080    1.510354
     18          1           0        3.741675    0.668092    0.149533
     19          1           0        1.543632    1.754106   -0.644155
 ---------------------------------------------------------------------

 SCF Done:  E(RB3LYP) =  -423.148596895     A.U. after    1 cycles

 The electronic state is 1-A.
 Alpha  occ. eigenvalues --  -19.14827 -19.13745 -10.26548 -10.25183 -10.24931
 Alpha  occ. eigenvalues --  -10.20632 -10.20215 -10.19910 -10.18258  -1.06192
 Alpha  occ. eigenvalues --   -1.04322  -0.84181  -0.80670  -0.69661  -0.65921
 Alpha  occ. eigenvalues --   -0.61406  -0.56389  -0.54569  -0.52805  -0.49359
 Alpha  occ. eigenvalues --   -0.48848  -0.44799  -0.44211  -0.43271  -0.39721
 Alpha  occ. eigenvalues --   -0.38213  -0.37991  -0.36548  -0.35463  -0.35070
 Alpha  occ. eigenvalues --   -0.33441  -0.28730  -0.25135  -0.24156
 Alpha virt. eigenvalues --   -0.02113   0.07478   0.08842   0.10498   0.10768
 Alpha virt. eigenvalues --    0.12989   0.13454   0.14291   0.15096   0.15735
 Alpha virt. eigenvalues --    0.16696   0.18012   0.19365   0.20896   0.21976

 Mulliken charges:
               1
     1  C   -0.405459
     2  C   -0.099612
     3  C    0.140958
     4  O   -0.246442
     5  C    0.113390
     6  O   -0.303021
     7  C    0.105827
     8  C   -0.307926
     9  C   -0.128797
    10  H    0.113205
    11  H    0.137738
    12  H    0.130334
    13  H    0.099894
    14  H    0.104408
    15  H    0.091547
    16  H    0.107977
    17  H    0.120629
    18  H    0.119853
    19  H    0.105497
 Sum of Mulliken charges =   0.00000

 Dipole moment (field-independent basis, Debye):
    X=              2.9663    Y=              1.7287    Z=             -1.0399  Tot=              3.5873
 Quadrupole moment (field-independent basis, Debye-Ang):
   XX=            -60.1762   YY=            -54.6472   ZZ=            -50.8519
   XY=             -0.6013   XZ=              0.5085   YZ=              0.4612

  Exact polarizability:  95.327  -0.819  70.212  -2.059   1.120  62.031
 Approx polarizability: 127.176  -1.607 106.035  -6.388   2.466  97.391

                      1                      2                      3
                      A                      A                      A
 Frequencies --     66.5133                90.5384               153.1172
 Red. masses --      5.0909                 2.8854                 2.3195
 Frc consts  --      0.0133                 0.0139                 0.0320
 IR Inten    --      1.7234                 3.9608                 1.7255

                      4                      5                      6
                      A                      A                      A
 Frequencies --    159.3859               189.6604               262.6316
 Red. masses --      1.8528                 1.7280                 3.1359
 Frc consts  --      0.0277                 0.0366                 0.1274
 IR Inten    --      0.0647                 2.6456                 5.5756

                      7                      8                      9
                      A                      A                      A
 Frequencies --    335.8373               385.5408               432.2563
 Red. masses --      4.3119                 2.9888                 2.7696
 Frc consts  --      0.2865                 0.2618                 0.3049
 IR Inten    --      1.5166                 4.1895                 2.6628

                     10                     11                     12
                      A                      A                      A
 Frequencies --    476.8289               672.7950               756.3715
 Red. masses --      3.0157                 3.1443                 1.6470
 Frc consts  --      0.4040                 0.8386                 0.5552
 IR Inten    --      5.9249                 7.0248                 9.9398

                     13                     14                     15
                      A                      A                      A
 Frequencies --    793.6156               822.7342               847.2186
 Red. masses --      2.2036                 2.4455                 2.8550
 Frc consts  --      0.8177                 0.9753                 1.2074
 IR Inten    --      6.6072                12.4017                12.5896

                     16                     17                     18
                      A                      A                      A
 Frequencies --    907.0935               926.1966               945.8253
 Red. masses --      2.0703                 1.9486                 1.6988
 Frc consts  --      1.0037                 0.9848                 0.8954
 IR Inten    --     25.6885                18.4281                16.9129

                     19                     20                     21
                      A                      A                      A
 Frequencies --    964.5087               985.2909              1021.0616
 Red. masses --      2.3462                 2.0078                 1.9721
 Frc consts  --      1.2860                 1.1484                 1.2114
 IR Inten    --      3.7161                 8.0089                81.8422

                     22                     23                     24
                      A                      A                      A
 Frequencies --   1036.2238              1053.4495              1066.1811
 Red. masses --      1.3792                 1.5307                 1.8840
 Frc consts  --      0.8725                 1.0008                 1.2618
 IR Inten    --      3.7593                 3.7244                 5.3627

                     25                     26                     27
                      A                      A                      A
 Frequencies --   1087.0344              1109.6145              1135.9217
 Red. masses --      1.7576                 1.8250                 2.4462
 Frc consts  --      1.2237                 1.3239                 1.8597
 IR Inten    --     30.3434                 4.8994                11.9603

                     28                     29                     30
                      A                      A                      A
 Frequencies --   1170.3098              1205.4181              1238.2640
 Red. masses --      2.2072                 2.0538                 1.2665
 Frc consts  --      1.7811                 1.7583                 1.1441
 IR Inten    --      2.1384                 1.2960                 0.3046

                     31                     32                     33
                      A                      A                      A
 Frequencies --   1264.2680              1299.4032              1328.2224
 Red. masses --      1.3936                 1.6042                 1.7188
 Frc consts  --      1.3124                 1.5959                 1.7865
 IR Inten    --      1.7911                 1.0471                 1.3229

                     34                     35                     36
                      A                      A                      A
 Frequencies --   1353.5851              1385.4671              1406.3869
 Red. masses --      1.7667                 1.5419                 1.2107
 Frc consts  --      1.9072                 1.7438                 1.4109
 IR Inten    --     27.3442                13.6417                 2.2302

                     37                     38                     39
                      A                      A                      A
 Frequencies --   1423.1567              1473.2034              1490.5798
 Red. masses --      1.2317                 1.2691                 1.0440
 Frc consts  --      1.4698                 1.6229                 1.3667
 IR Inten    --     15.4535                 5.3053                 6.0916

                     40                     41                     42
                      A                      A                      A
 Frequencies --   1494.4284              1822.4960              2929.2823
 Red. masses --      1.0542                10.1390                 1.0842
 Frc consts  --      1.3872                19.8417                 5.4814
 IR Inten    --      6.4995               162.7374                65.7958

                     43                     44                     45
                      A                      A                      A
 Frequencies --   2993.4506              3019.9634              3049.4358
 Red. masses --      1.0800                 1.0854                 1.0361
 Frc consts  --      5.7018                 5.8324                 5.6764
 IR Inten    --      5.6225                46.6339                16.1298

                     46                     47                     48
                      A                      A                      A
 Frequencies --   3116.0444              3116.6739              3133.0443
 Red. masses --      1.0996                 1.0560                 1.1006
 Frc consts  --      6.2905                 6.0436                 6.3654
 IR Inten    --     18.7359                13.0182                12.9412

                     49                     50                     51
                      A                      A                      A
 Frequencies --   3182.8941              3203.8166              3213.2434
 Red. masses --      1.0921                 1.1052                 1.1070
 Frc consts  --      6.5187                 6.6840                 6.7343
 IR Inten    --     19.9328                 1.9304                12.7328

 - Thermochemistry -
 -------------------
 Temperature   298.150 Kelvin.  Pressure   1.00000 Atm.
 Atom     1 has atomic number  6 and mass  12.00000

 Molecular mass:   126.06808 amu.
 Principal axes and moments of inertia in atomic units:
                           1         2         3
     Eigenvalues --   460.212651767.680562069.91068
           X            0.99992  -0.01240   0.00369
           Y            0.01238   0.99992   0.00358
           Z           -0.00373  -0.00353   0.99999
 This molecule is an asymmetric top.
 Rotational symmetry number  1.
 Warning -- assumption of classical behavior for rotation
           may cause significant error
 Rotational temperatures (Kelvin)      0.18820     0.04900     0.04184
 Rotational constants (GHZ):           3.92154     1.02097     0.87189
 Zero-point vibrational energy     412690.6 (Joules/Mol)
                                   98.63543 (Kcal/Mol)
 Warning -- explicit consideration of  10 degrees of freedom as
           vibrations may cause significant error
 Vibrational temperatures:     95.70   130.26   220.30   229.32   272.88
          (Kelvin)            377.87   483.19   554.71   621.92   686.05
                              968.00  1088.25  1141.83  1183.73  1218.96
                             1305.10  1332.59  1360.83  1387.71  1417.61
                             1469.08  1490.89  1515.68  1533.99  1564.00
                             1596.49  1634.34  1683.81  1734.33  1781.58
                             1819.00  1869.55  1911.01  1947.50  1993.38
                             2023.47  2047.60  2119.61  2144.61  2150.15
                             2622.16  4214.58  4306.90  4345.05  4387.45
                             4483.29  4484.19  4507.75  4579.47  4609.57
                             4623.13

 Zero-point correction=                           0.157186 (Hartree/Particle)
 Thermal correction to Energy=                    0.166095
 Thermal correction to Enthalpy=                  0.167039
 Thermal correction to Gibbs Free Energy=         0.123011
 Sum of electronic and zero-point Energies=           -422.991411
 Sum of electronic and thermal Energies=              -422.982502
 Sum of electronic and thermal Enthalpies=            -422.981558
 Sum of electronic and thermal Free Energies=         -423.025586

                     E (Thermal)             CV                S
                      KCal/Mol        Cal/Mol-Kelvin    Cal/Mol-Kelvin
 Total                  104.226             32.642             92.666
 Electronic               0.000              0.000              0.000
 Translational            0.889              2.981             40.409
 Rotational               0.889              2.981             28.911
 Vibrational            102.449             26.680             23.346
 Vibration     1          0.598              1.970              4.254
 Vibration     2          0.602              1.956              3.648
 Vibration     3          0.619              1.899              2.633
 Vibration     4          0.621              1.892              2.557
 Vibration     5          0.633              1.854              2.231
 Vibration     6          0.670              1.741              1.644
 Vibration     7          0.717              1.604              1.232
 Vibration     8          0.754              1.501              1.017
 Vibration     9          0.793              1.400              0.851
 Vibration    10          0.833              1.301              0.719

 Optimization completed.
    -- Stationary point found.
 Normal termination of Gaussian 09 at Mon Jan 27 17:40:04 2020.
