 Gaussian 09, Revision D.01,
 Gaussian 09:  ES64L-G09RevD.01 24-Apr-2013

 -----------------------------
 # b3lyp 6-31G(2df,p) opt Freq
 -----------------------------

 -----
 titel
 -----
 Symbolic Z-matrix:
 Charge =  0 Multiplicity = 1

 SCF Done:  E(RB3LYP) =  -423.165774656     A.U. after   13 cycles
 Optimization completed.
    -- Stationary point found.
 Normal termination of Gaussian 09 at Tue Jan 28 03:08:20 2020.

 ----------------------------------------------------------------------
 #N Geom=AllCheck Guess=TCheck SCRF=Check GenChk RB3LYP/6-31G(2df,p) Fr
 eq
 ----------------------------------------------------------------------

 Structure from the checkpoint file:  "/scratch/puck/g09_60baf795-506c-46d5-b666-aed902c81ba2/Gau-44645.chk"
 -----
 titel
 -----
 Charge =  0 Multiplicity = 1

                         Standard orientation:
 ---------------------------------------------------------------------
 Center     Atomic      Atomic             Coordinates (Angstroms)
 Number     Number       Type             X           Y           Z
 ---------------------------------------------------------------------
      1          6           0       -2.628861    0.733767    0.031090
      2          6           0       -1.490656   -0.175608    0.466881
      3          8           0       -1.120381   -1.086863   -0.603199
      4          6           0        0.269482   -0.847836   -0.740821
      5          6           0        0.478991    0.701984   -0.694593
      6          6           0        1.969145    0.846686   -0.416108
      7          8           0        2.163965   -0.193123    0.569116
      8          6           0        0.856576   -0.725869    0.695679
      9          6           0       -0.137564    0.481098    0.735697
     10          1           0       -2.332494    1.376155   -0.802772
     11          1           0       -3.484707    0.132702   -0.289786
     12          1           0       -2.950616    1.369183    0.863162
     13          1           0       -1.815300   -0.771980    1.331501
     14          1           0        0.703286   -1.486884   -1.509081
     15          1           0        0.023282    1.360747   -1.432551
     16          1           0        2.597152    0.653313   -1.294497
     17          1           0        2.246923    1.820068    0.006685
     18          1           0        0.835398   -1.540270    1.418691
     19          1           0       -0.074276    1.241514    1.514354
 ---------------------------------------------------------------------

 SCF Done:  E(RB3LYP) =  -423.165774656     A.U. after    1 cycles

 The electronic state is 1-A.
 Alpha  occ. eigenvalues --  -19.13830 -19.13685 -10.23474 -10.23415 -10.23396
 Alpha  occ. eigenvalues --  -10.23009 -10.19788 -10.19625 -10.17768  -1.05815
 Alpha  occ. eigenvalues --   -1.02799  -0.82424  -0.76591  -0.72860  -0.66731
 Alpha  occ. eigenvalues --   -0.59054  -0.57187  -0.56685  -0.53519  -0.50222
 Alpha  occ. eigenvalues --   -0.45827  -0.44114  -0.42632  -0.40818  -0.39702
 Alpha  occ. eigenvalues --   -0.38442  -0.37672  -0.35893  -0.34203  -0.33934
 Alpha  occ. eigenvalues --   -0.32278  -0.30614  -0.26508  -0.21987
 Alpha virt. eigenvalues --    0.08799   0.09785   0.11328   0.12061   0.12612
 Alpha virt. eigenvalues --    0.13749   0.14118   0.15161   0.15681   0.16979
 Alpha virt. eigenvalues --    0.17739   0.18244   0.20056   0.21321   0.22269

 Mulliken charges:
               1
     1  C   -0.403897
     2  C    0.124598
     3  O   -0.297954
     4  C    0.094612
     5  C   -0.099966
     6  C   -0.102608
     7  O   -0.284498
     8  C    0.098615
     9  C   -0.101837
    10  H    0.118846
    11  H    0.128956
    12  H    0.113831
    13  H    0.077968
    14  H    0.085877
    15  H    0.076975
    16  H    0.104760
    17  H    0.104260
    18  H    0.087064
    19  H    0.074398
 Sum of Mulliken charges =   0.00000

 Dipole moment (field-independent basis, Debye):
    X=             -0.6071    Y=              1.4536    Z=              0.0203  Tot=              1.5754
 Quadrupole moment (field-independent basis, Debye-Ang):
   XX=            -56.7478   YY=            -52.6166   ZZ=            -51.9227
   XY=             -0.5320   XZ=             -4.5807   YZ=             -1.2385

  Exact polarizability:  85.020   0.615  69.152  -4.960  -1.117  67.660
 Approx polarizability: 112.429   1.579 106.345  -4.399  -0.712 106.107

                      1                      2                      3
                      A                      A                      A
 Frequencies --    170.8245               209.5765               245.9119
 Red. masses --      3.0440                 1.0393                 2.9556
 Frc consts  --      0.0523                 0.0269                 0.1053
 IR Inten    --      0.4526                 0.1162                 0.1087

                      4                      5                      6
                      A                      A                      A
 Frequencies --    308.2743               371.2760               426.1998
 Red. masses --      2.1652                 4.3715                 3.9346
 Frc consts  --      0.1212                 0.3550                 0.4211
 IR Inten    --      2.2251                 6.4791                 3.9536

                      7                      8                      9
                      A                      A                      A
 Frequencies --    474.4734               604.2091               677.7556
 Red. masses --      3.5190                 4.5736                 3.6032
 Frc consts  --      0.4668                 0.9837                 0.9752
 IR Inten    --      3.6018                 0.3399                 2.4519

                     10                     11                     12
                      A                      A                      A
 Frequencies --    685.0599               798.9191               835.6642
 Red. masses --      4.1642                 3.2555                 2.4929
 Frc consts  --      1.1514                 1.2243                 1.0257
 IR Inten    --      4.4581                 5.2168                13.8690

                     13                     14                     15
                      A                      A                      A
 Frequencies --    899.7872               912.6228               924.7271
 Red. masses --      2.1907                 3.0039                 2.1724
 Frc consts  --      1.0450                 1.4741                 1.0945
 IR Inten    --      5.1917                 9.4903                 1.1039

                     16                     17                     18
                      A                      A                      A
 Frequencies --    951.7605               972.9454               979.7415
 Red. masses --      2.0799                 2.3873                 3.8329
 Frc consts  --      1.1100                 1.3315                 2.1677
 IR Inten    --     15.0694                12.1254                 2.0821

                     19                     20                     21
                      A                      A                      A
 Frequencies --   1007.8339              1018.2504              1043.4145
 Red. masses --      1.4296                 1.9912                 1.4941
 Frc consts  --      0.8555                 1.2164                 0.9584
 IR Inten    --      4.4929                 3.7995                 6.1095

                     22                     23                     24
                      A                      A                      A
 Frequencies --   1057.3491              1076.5265              1093.4233
 Red. masses --      3.6531                 2.3460                 1.8997
 Frc consts  --      2.4063                 1.6018                 1.3382
 IR Inten    --    109.5761                49.5414                 5.1332

                     25                     26                     27
                      A                      A                      A
 Frequencies --   1131.1805              1136.1833              1165.8342
 Red. masses --      3.2021                 2.5759                 1.3360
 Frc consts  --      2.4141                 1.9592                 1.0699
 IR Inten    --      9.4954                15.4084                 1.8921

                     28                     29                     30
                      A                      A                      A
 Frequencies --   1191.4428              1212.3344              1238.6248
 Red. masses --      1.3253                 1.5450                 1.4909
 Frc consts  --      1.1084                 1.3379                 1.3476
 IR Inten    --      1.1990                 5.4025                 7.6578

                     31                     32                     33
                      A                      A                      A
 Frequencies --   1250.2946              1274.4672              1277.5032
 Red. masses --      1.6273                 1.6781                 1.3977
 Frc consts  --      1.4988                 1.6059                 1.3439
 IR Inten    --      6.0108                 6.1574                21.9195

                     34                     35                     36
                      A                      A                      A
 Frequencies --   1317.8974              1345.0097              1391.9105
 Red. masses --      1.5779                 1.5093                 1.5053
 Frc consts  --      1.6147                 1.6087                 1.7183
 IR Inten    --      2.5984                16.7860                12.3791

                     37                     38                     39
                      A                      A                      A
 Frequencies --   1397.5881              1411.9996              1487.2411
 Red. masses --      1.3686                 1.3723                 1.0622
 Frc consts  --      1.5750                 1.6120                 1.3843
 IR Inten    --      2.1032                14.9549                 2.2797

                     40                     41                     42
                      A                      A                      A
 Frequencies --   1495.9014              1530.0310              2998.7178
 Red. masses --      1.0478                 1.0972                 1.0845
 Frc consts  --      1.3815                 1.5133                 5.7457
 IR Inten    --      3.2553                 0.3863                49.1261

                     43                     44                     45
                      A                      A                      A
 Frequencies --   3017.2719              3039.2858              3053.7060
 Red. masses --      1.0560                 1.0356                 1.1102
 Frc consts  --      5.6645                 5.6362                 6.0999
 IR Inten    --     76.1686                16.6385                34.9109

                     46                     47                     48
                      A                      A                      A
 Frequencies --   3109.4575              3118.0868              3120.6137
 Red. masses --      1.1000                 1.0917                 1.0975
 Frc consts  --      6.2660                 6.2538                 6.2968
 IR Inten    --     11.5438                25.4077                24.7689

                     49                     50                     51
                      A                      A                      A
 Frequencies --   3128.7106              3132.2753              3142.3140
 Red. masses --      1.0882                 1.0886                 1.0966
 Frc consts  --      6.2759                 6.2926                 6.3797
 IR Inten    --     29.3261                56.4073                 9.8539

 - Thermochemistry -
 -------------------
 Temperature   298.150 Kelvin.  Pressure   1.00000 Atm.
 Atom     1 has atomic number  6 and mass  12.00000

 Molecular mass:   126.06808 amu.
 Principal axes and moments of inertia in atomic units:
                           1         2         3
     Eigenvalues --   459.040221287.258661362.17056
           X            0.99968  -0.01497  -0.02025
           Y            0.01321   0.99637  -0.08407
           Z            0.02143   0.08377   0.99625
 This molecule is an asymmetric top.
 Rotational symmetry number  1.
 Warning -- assumption of classical behavior for rotation
           may cause significant error
 Rotational temperatures (Kelvin)      0.18868     0.06729     0.06359
 Rotational constants (GHZ):           3.93155     1.40200     1.32490
 Zero-point vibrational energy     423851.3 (Joules/Mol)
                                  101.30290 (Kcal/Mol)
 Warning -- explicit consideration of   8 degrees of freedom as
           vibrations may cause significant error
 Vibrational temperatures:    245.78   301.53   353.81   443.54   534.18
          (Kelvin)            613.21   682.66   869.32   975.14   985.65
                             1149.46  1202.33  1294.59  1313.06  1330.47
                             1369.37  1399.85  1409.63  1450.05  1465.03
                             1501.24  1521.29  1548.88  1573.19  1627.51
                             1634.71  1677.37  1714.22  1744.28  1782.10
                             1798.89  1833.67  1838.04  1896.16  1935.17
                             2002.65  2010.82  2031.55  2139.81  2152.27
                             2201.37  4314.48  4341.18  4372.85  4393.60
                             4473.81  4486.23  4489.86  4501.51  4506.64
                             4521.08

 Zero-point correction=                           0.161436 (Hartree/Particle)
 Thermal correction to Energy=                    0.168406
 Thermal correction to Enthalpy=                  0.169351
 Thermal correction to Gibbs Free Energy=         0.130372
 Sum of electronic and zero-point Energies=           -423.004338
 Sum of electronic and thermal Energies=              -422.997368
 Sum of electronic and thermal Enthalpies=            -422.996424
 Sum of electronic and thermal Free Energies=         -423.035402

                     E (Thermal)             CV                S
                      KCal/Mol        Cal/Mol-Kelvin    Cal/Mol-Kelvin
 Total                  105.677             28.623             82.037
 Electronic               0.000              0.000              0.000
 Translational            0.889              2.981             40.409
 Rotational               0.889              2.981             28.178
 Vibrational            103.899             22.661             13.450
 Vibration     1          0.626              1.878              2.426
 Vibration     2          0.642              1.826              2.047
 Vibration     3          0.660              1.770              1.760
 Vibration     4          0.698              1.658              1.372
 Vibration     5          0.743              1.531              1.075
 Vibration     6          0.788              1.413              0.871
 Vibration     7          0.831              1.307              0.725
 Vibration     8          0.963              1.023              0.442

 Optimization completed.
    -- Stationary point found.
 Normal termination of Gaussian 09 at Tue Jan 28 05:15:01 2020.
