 Gaussian 09, Revision D.01,
 Gaussian 09:  ES64L-G09RevD.01 24-Apr-2013

 -----------------------------
 # b3lyp 6-31G(2df,p) opt Freq
 -----------------------------

 -----
 titel
 -----
 Symbolic Z-matrix:
 Charge =  0 Multiplicity = 1

 SCF Done:  E(RB3LYP) =  -423.175861629     A.U. after   14 cycles
 Optimization completed.
    -- Stationary point found.
 Normal termination of Gaussian 09 at Mon Jan 27 22:13:37 2020.

 ----------------------------------------------------------------------
 #N Geom=AllCheck Guess=TCheck SCRF=Check GenChk RB3LYP/6-31G(2df,p) Fr
 eq
 ----------------------------------------------------------------------

 Structure from the checkpoint file:  "/scratch/puck/g09_f602b573-86b9-48ef-a517-430366d43735/Gau-28644.chk"
 -----
 titel
 -----
 Charge =  0 Multiplicity = 1

                         Standard orientation:
 ---------------------------------------------------------------------
 Center     Atomic      Atomic             Coordinates (Angstroms)
 Number     Number       Type             X           Y           Z
 ---------------------------------------------------------------------
      1          6           0       -2.380874   -1.244965    0.176534
      2          6           0       -1.086583   -0.518242    0.541697
      3          6           0        0.158654   -0.958753   -0.247999
      4          6           0        0.257007    0.446164   -0.937195
      5          6           0       -0.973469    0.849650   -0.196469
      6          8           0       -1.724832    1.782995   -0.275977
      7          6           0        1.337153   -0.105898    0.019611
      8          6           0        1.684992    0.538628    1.342969
      9          8           0        2.459913   -0.578675   -0.676822
     10          1           0       -2.505424   -1.310427   -0.909439
     11          1           0       -2.387487   -2.261483    0.581949
     12          1           0       -3.241084   -0.704899    0.581060
     13          1           0       -0.968172   -0.486439    1.629525
     14          1           0        0.271219   -1.915397   -0.742348
     15          1           0        0.543439    0.717896   -1.945790
     16          1           0        2.343016    1.400604    1.179795
     17          1           0        0.804216    0.900999    1.876093
     18          1           0        2.214104   -0.176187    1.981234
     19          1           0        3.064242    0.161262   -0.804579
 ---------------------------------------------------------------------

 SCF Done:  E(RB3LYP) =  -423.175861629     A.U. after    1 cycles

 The electronic state is 1-A.
 Alpha  occ. eigenvalues --  -19.15681 -19.12570 -10.26441 -10.26303 -10.20787
 Alpha  occ. eigenvalues --  -10.19990 -10.19857 -10.19162 -10.18439  -1.04690
 Alpha  occ. eigenvalues --   -1.03500  -0.89822  -0.76704  -0.73095  -0.66417
 Alpha  occ. eigenvalues --   -0.63318  -0.56420  -0.52768  -0.51854  -0.47559
 Alpha  occ. eigenvalues --   -0.46543  -0.45123  -0.43073  -0.41525  -0.40879
 Alpha  occ. eigenvalues --   -0.39089  -0.37766  -0.37506  -0.36470  -0.34281
 Alpha  occ. eigenvalues --   -0.32207  -0.28783  -0.26784  -0.23404
 Alpha virt. eigenvalues --   -0.01021   0.06225   0.09850   0.10319   0.11314
 Alpha virt. eigenvalues --    0.12361   0.14113   0.14424   0.16302   0.16703
 Alpha virt. eigenvalues --    0.17141   0.18191   0.19849   0.20909   0.22298

 Mulliken charges:
               1
     1  C   -0.405597
     2  C   -0.143283
     3  C   -0.091845
     4  C   -0.257439
     5  C    0.405658
     6  O   -0.333513
     7  C    0.396784
     8  C   -0.466753
     9  O   -0.465349
    10  H    0.123765
    11  H    0.119296
    12  H    0.137279
    13  H    0.090481
    14  H    0.110345
    15  H    0.107782
    16  H    0.116712
    17  H    0.137173
    18  H    0.132319
    19  H    0.286185
 Sum of Mulliken charges =   0.00000

 Dipole moment (field-independent basis, Debye):
    X=              2.0597    Y=             -1.2252    Z=              0.5781  Tot=              2.4652
 Quadrupole moment (field-independent basis, Debye-Ang):
   XX=            -52.9480   YY=            -57.8760   ZZ=            -51.3424
   XY=              9.5794   XZ=             -0.9256   YZ=             -0.2396

  Exact polarizability:  90.949   0.292  73.526  -1.494  -2.169  66.885
 Approx polarizability: 124.631 -10.676 119.892  -3.757  -5.367 100.376

                      1                      2                      3
                      A                      A                      A
 Frequencies --     99.5920               165.6299               203.7690
 Red. masses --      4.3042                 3.1076                 2.0279
 Frc consts  --      0.0252                 0.0502                 0.0496
 IR Inten    --      4.6190                 0.9333                 1.0836

                      4                      5                      6
                      A                      A                      A
 Frequencies --    215.7359               223.0037               249.0044
 Red. masses --      1.5147                 1.0790                 2.2996
 Frc consts  --      0.0415                 0.0316                 0.0840
 IR Inten    --      1.8634                 0.0370                 5.4185

                      7                      8                      9
                      A                      A                      A
 Frequencies --    312.0813               323.3906               378.6548
 Red. masses --      1.3866                 2.1364                 3.7168
 Frc consts  --      0.0796                 0.1316                 0.3140
 IR Inten    --     75.3279                20.4685                16.6646

                     10                     11                     12
                      A                      A                      A
 Frequencies --    433.1043               479.1538               495.8800
 Red. masses --      4.3612                 3.4094                 2.9568
 Frc consts  --      0.4820                 0.4612                 0.4284
 IR Inten    --     13.4243                 1.3844                 3.8474

                     13                     14                     15
                      A                      A                      A
 Frequencies --    602.6366               690.2537               750.0198
 Red. masses --      4.5691                 3.6134                 3.8679
 Frc consts  --      0.9777                 1.0143                 1.2820
 IR Inten    --      3.6397                 3.1508                 2.7740

                     16                     17                     18
                      A                      A                      A
 Frequencies --    819.3684               844.4372               872.3583
 Red. masses --      2.5690                 1.5848                 3.2175
 Frc consts  --      1.0162                 0.6658                 1.4427
 IR Inten    --      3.5520                 7.7146                29.1389

                     19                     20                     21
                      A                      A                      A
 Frequencies --    903.6293               942.3092               983.7667
 Red. masses --      2.4611                 1.9930                 1.3567
 Frc consts  --      1.1840                 1.0427                 0.7736
 IR Inten    --      8.9736                23.6851                31.5118

                     22                     23                     24
                      A                      A                      A
 Frequencies --   1005.5713              1040.2622              1068.4457
 Red. masses --      1.6796                 1.4238                 1.9500
 Frc consts  --      1.0006                 0.9078                 1.3116
 IR Inten    --      8.0816                 3.5732                 4.5338

                     25                     26                     27
                      A                      A                      A
 Frequencies --   1088.1603              1110.9883              1119.9036
 Red. masses --      1.7462                 1.8081                 2.2963
 Frc consts  --      1.2182                 1.3149                 1.6968
 IR Inten    --     10.4372                 1.3197                40.4508

                     28                     29                     30
                      A                      A                      A
 Frequencies --   1159.2541              1214.7046              1236.8895
 Red. masses --      2.1049                 1.6559                 1.6752
 Frc consts  --      1.6666                 1.4395                 1.5100
 IR Inten    --     49.6941                71.2738                 8.1754

                     31                     32                     33
                      A                      A                      A
 Frequencies --   1270.6440              1282.4364              1345.6621
 Red. masses --      3.1108                 1.5861                 1.6949
 Frc consts  --      2.9592                 1.5369                 1.8083
 IR Inten    --     31.4991                49.0148                 6.9132

                     34                     35                     36
                      A                      A                      A
 Frequencies --   1406.5753              1418.0413              1439.9479
 Red. masses --      1.2141                 1.2627                 2.2363
 Frc consts  --      1.4152                 1.4960                 2.7319
 IR Inten    --      1.4642                 5.6298                20.5213

                     37                     38                     39
                      A                      A                      A
 Frequencies --   1487.7250              1494.2983              1497.4811
 Red. masses --      1.0549                 1.0464                 1.0486
 Frc consts  --      1.3756                 1.3767                 1.3854
 IR Inten    --      3.6680                 3.6241                 2.9442

                     40                     41                     42
                      A                      A                      A
 Frequencies --   1503.0734              1865.9821              3032.5236
 Red. masses --      1.2231                12.3964                 1.0402
 Frc consts  --      1.6280                25.4309                 5.6363
 IR Inten    --      8.3741               318.2333                22.1033

                     43                     44                     45
                      A                      A                      A
 Frequencies --   3037.1404              3053.7072              3094.8643
 Red. masses --      1.0348                 1.0836                 1.0983
 Frc consts  --      5.6240                 5.9537                 6.1979
 IR Inten    --     22.7831                19.6732                16.5099

                     46                     47                     48
                      A                      A                      A
 Frequencies --   3105.7306              3120.0991              3134.9433
 Red. masses --      1.1020                 1.1014                 1.0988
 Frc consts  --      6.2625                 6.3172                 6.3624
 IR Inten    --     26.3716                13.7749                15.2045

                     49                     50                     51
                      A                      A                      A
 Frequencies --   3193.0690              3202.9540              3796.8908
 Red. masses --      1.0909                 1.0955                 1.0660
 Frc consts  --      6.5531                 6.6215                 9.0544
 IR Inten    --      6.0800                 2.4737                22.5481

 - Thermochemistry -
 -------------------
 Temperature   298.150 Kelvin.  Pressure   1.00000 Atm.
 Atom     1 has atomic number  6 and mass  12.00000

 Molecular mass:   126.06808 amu.
 Principal axes and moments of inertia in atomic units:
                           1         2         3
     Eigenvalues --   646.731641442.640001633.76075
           X            0.99761   0.06834   0.01014
           Y           -0.06861   0.99721   0.02945
           Z           -0.00810  -0.03008   0.99951
 This molecule is an asymmetric top.
 Rotational symmetry number  1.
 Warning -- assumption of classical behavior for rotation
           may cause significant error
 Rotational temperatures (Kelvin)      0.13393     0.06004     0.05301
 Rotational constants (GHZ):           2.79056     1.25100     1.10465
 Zero-point vibrational energy     411609.6 (Joules/Mol)
                                   98.37705 (Kcal/Mol)
 Warning -- explicit consideration of  13 degrees of freedom as
           vibrations may cause significant error
 Vibrational temperatures:    143.29   238.30   293.18   310.40   320.85
          (Kelvin)            358.26   449.01   465.29   544.80   623.14
                              689.39   713.46   867.06   993.12  1079.11
                             1178.89  1214.96  1255.13  1300.12  1355.77
                             1415.42  1446.79  1496.70  1537.25  1565.62
                             1598.46  1611.29  1667.91  1747.69  1779.61
                             1828.17  1845.14  1936.11  2023.75  2040.24
                             2071.76  2140.50  2149.96  2154.54  2162.58
                             2684.73  4363.12  4369.76  4393.60  4452.81
                             4468.45  4489.12  4510.48  4594.11  4608.33
                             5462.87

 Zero-point correction=                           0.156774 (Hartree/Particle)
 Thermal correction to Energy=                    0.165938
 Thermal correction to Enthalpy=                  0.166882
 Thermal correction to Gibbs Free Energy=         0.123420
 Sum of electronic and zero-point Energies=           -423.019088
 Sum of electronic and thermal Energies=              -423.009924
 Sum of electronic and thermal Enthalpies=            -423.008980
 Sum of electronic and thermal Free Energies=         -423.052442

                     E (Thermal)             CV                S
                      KCal/Mol        Cal/Mol-Kelvin    Cal/Mol-Kelvin
 Total                  104.128             34.968             91.474
 Electronic               0.000              0.000              0.000
 Translational            0.889              2.981             40.409
 Rotational               0.889              2.981             28.812
 Vibrational            102.350             29.006             22.253
 Vibration     1          0.604              1.949              3.462
 Vibration     2          0.624              1.885              2.485
 Vibration     3          0.639              1.835              2.099
 Vibration     4          0.645              1.817              1.995
 Vibration     5          0.649              1.806              1.935
 Vibration     6          0.662              1.764              1.738
 Vibration     7          0.700              1.651              1.351
 Vibration     8          0.708              1.629              1.293
 Vibration     9          0.749              1.516              1.045
 Vibration    10          0.794              1.398              0.849
 Vibration    11          0.836              1.296              0.712
 Vibration    12          0.851              1.259              0.669
 Vibration    13          0.961              1.026              0.445

 Optimization completed.
    -- Stationary point found.
 Normal termination of Gaussian 09 at Tue Jan 28 00:25:48 2020.
