 Gaussian 09, Revision D.01,
 Gaussian 09:  ES64L-G09RevD.01 24-Apr-2013

 -----------------------------
 # b3lyp 6-31G(2df,p) opt Freq
 -----------------------------

 -----
 titel
 -----
 Symbolic Z-matrix:
 Charge =  0 Multiplicity = 1

 SCF Done:  E(RB3LYP) =  -423.099930983     A.U. after   12 cycles
 Optimization completed.
    -- Stationary point found.
 Normal termination of Gaussian 09 at Mon Jan 27 22:11:51 2020.

 ----------------------------------------------------------------------
 #N Geom=AllCheck Guess=TCheck SCRF=Check GenChk RB3LYP/6-31G(2df,p) Fr
 eq
 ----------------------------------------------------------------------

 Structure from the checkpoint file:  "/scratch/puck/g09_1cecc142-3f0c-4e0e-bc88-16b9c3a2189c/Gau-28894.chk"
 -----
 titel
 -----
 Charge =  0 Multiplicity = 1

                         Standard orientation:
 ---------------------------------------------------------------------
 Center     Atomic      Atomic             Coordinates (Angstroms)
 Number     Number       Type             X           Y           Z
 ---------------------------------------------------------------------
      1          6           0       -3.087521    0.009654   -0.016429
      2          6           0       -1.633837    0.016941    0.412432
      3          6           0       -0.655070    0.749698   -0.472551
      4          6           0       -0.662102   -0.770263   -0.434783
      5          6           0        0.817925   -0.762895    0.058612
      6          8           0        1.736196   -1.722749   -0.314167
      7          6           0        1.032307    0.012657    1.329323
      8          6           0        0.825451    0.756139    0.023123
      9          8           0        1.761562    1.622467   -0.506787
     10          1           0       -3.179194   -0.016306   -1.107516
     11          1           0       -3.610555   -0.865382    0.383809
     12          1           0       -3.606989    0.905342    0.340674
     13          1           0       -1.503821    0.042774    1.489513
     14          1           0       -0.972137    1.385344   -1.290869
     15          1           0       -0.998865   -1.448088   -1.211221
     16          1           0        1.821424   -1.700023   -1.274360
     17          1           0        0.349223    0.023358    2.173008
     18          1           0        2.083095    0.002087    1.607298
     19          1           0        1.812828    2.401570    0.058945
 ---------------------------------------------------------------------

 SCF Done:  E(RB3LYP) =  -423.099930983     A.U. after    1 cycles

 The electronic state is 1-A.
 Alpha  occ. eigenvalues --  -19.14837 -19.14774 -10.23695 -10.23491 -10.19527
 Alpha  occ. eigenvalues --  -10.18593 -10.18542 -10.18049 -10.17949  -1.03988
 Alpha  occ. eigenvalues --   -1.02599  -0.90416  -0.80362  -0.71143  -0.62680
 Alpha  occ. eigenvalues --   -0.61664  -0.55501  -0.55204  -0.54135  -0.49645
 Alpha  occ. eigenvalues --   -0.45835  -0.44407  -0.41508  -0.40964  -0.40127
 Alpha  occ. eigenvalues --   -0.37677  -0.36918  -0.36362  -0.34174  -0.32902
 Alpha  occ. eigenvalues --   -0.28081  -0.27422  -0.25370  -0.20216
 Alpha virt. eigenvalues --    0.06784   0.08359   0.09691   0.10159   0.10701
 Alpha virt. eigenvalues --    0.13240   0.15178   0.15318   0.16903   0.17503
 Alpha virt. eigenvalues --    0.18861   0.19629   0.21362   0.22757   0.23247

 Mulliken charges:
               1
     1  C   -0.423269
     2  C   -0.019517
     3  C   -0.137453
     4  C   -0.147765
     5  C    0.343241
     6  O   -0.448990
     7  C   -0.415114
     8  C    0.291116
     9  O   -0.455148
    10  H    0.115909
    11  H    0.120767
    12  H    0.118847
    13  H    0.082287
    14  H    0.087556
    15  H    0.082448
    16  H    0.289079
    17  H    0.109323
    18  H    0.120796
    19  H    0.285887
 Sum of Mulliken charges =   0.00000

 Dipole moment (field-independent basis, Debye):
    X=             -1.0851    Y=              1.1421    Z=             -0.1605  Tot=              1.5835
 Quadrupole moment (field-independent basis, Debye-Ang):
   XX=            -54.2047   YY=            -52.2277   ZZ=            -50.1298
   XY=              2.1907   XZ=              0.3563   YZ=              4.6355

  Exact polarizability:  87.211   0.846  71.225   1.163   1.717  68.626
 Approx polarizability: 110.701   0.370 113.254  -1.577   1.658 107.073

                      1                      2                      3
                      A                      A                      A
 Frequencies --    157.4107               191.7691               206.3810
 Red. masses --      3.7195                 1.6387                 3.0172
 Frc consts  --      0.0543                 0.0355                 0.0757
 IR Inten    --     14.3680                 1.0170                 0.8439

                      4                      5                      6
                      A                      A                      A
 Frequencies --    216.8004               256.5298               268.7528
 Red. masses --      2.4677                 1.5944                 1.0858
 Frc consts  --      0.0683                 0.0618                 0.0462
 IR Inten    --      0.7153                 6.5158                90.2351

                      7                      8                      9
                      A                      A                      A
 Frequencies --    324.2106               373.0194               393.2552
 Red. masses --      1.3303                 3.8097                 4.0193
 Frc consts  --      0.0824                 0.3123                 0.3662
 IR Inten    --     76.3513                 4.4963                 8.9267

                     10                     11                     12
                      A                      A                      A
 Frequencies --    412.1297               498.3567               565.3039
 Red. masses --      3.2073                 2.3357                 4.1109
 Frc consts  --      0.3210                 0.3418                 0.7740
 IR Inten    --      2.4338                 1.4375                 8.1285

                     13                     14                     15
                      A                      A                      A
 Frequencies --    594.9469               738.4003               763.2545
 Red. masses --      2.9655                 2.7790                 3.8497
 Frc consts  --      0.6185                 0.8927                 1.3213
 IR Inten    --     15.1031                 9.3493                12.7660

                     16                     17                     18
                      A                      A                      A
 Frequencies --    780.6212               821.5034               872.8575
 Red. masses --      1.6673                 3.4622                 2.3592
 Frc consts  --      0.5986                 1.3767                 1.0590
 IR Inten    --      1.2912                15.6748                 1.4847

                     19                     20                     21
                      A                      A                      A
 Frequencies --    878.1454               911.6277               978.7160
 Red. masses --      1.7981                 2.1550                 1.9691
 Frc consts  --      0.8169                 1.0552                 1.1113
 IR Inten    --      2.7492                 3.3092                 4.1503

                     22                     23                     24
                      A                      A                      A
 Frequencies --   1018.0807              1022.9876              1040.5762
 Red. masses --      1.6077                 1.6502                 1.2144
 Frc consts  --      0.9818                 1.0175                 0.7747
 IR Inten    --      0.5667                 0.8744                 3.0354

                     25                     26                     27
                      A                      A                      A
 Frequencies --   1064.1510              1093.7856              1127.8182
 Red. masses --      1.3760                 1.8114                 2.0463
 Frc consts  --      0.9181                 1.2768                 1.5335
 IR Inten    --      7.5575                 6.4549                18.4051

                     28                     29                     30
                      A                      A                      A
 Frequencies --   1142.0685              1167.5592              1190.5724
 Red. masses --      1.5307                 2.3516                 1.8638
 Frc consts  --      1.1763                 1.8888                 1.5565
 IR Inten    --      0.0702                51.7004                32.9046

                     31                     32                     33
                      A                      A                      A
 Frequencies --   1223.4797              1258.3935              1279.7635
 Red. masses --      2.4948                 1.7388                 1.4180
 Frc consts  --      2.2003                 1.6224                 1.3684
 IR Inten    --     19.1769                32.3750                88.5624

                     34                     35                     36
                      A                      A                      A
 Frequencies --   1301.4795              1363.7226              1388.9691
 Red. masses --      2.5352                 1.9978                 2.0016
 Frc consts  --      2.5301                 2.1891                 2.2751
 IR Inten    --    171.9700                33.9782                 3.0013

                     37                     38                     39
                      A                      A                      A
 Frequencies --   1415.2610              1440.7080              1495.5333
 Red. masses --      1.2581                 1.5723                 1.0447
 Frc consts  --      1.4847                 1.9228                 1.3767
 IR Inten    --      1.2701                10.4518                 1.7728

                     40                     41                     42
                      A                      A                      A
 Frequencies --   1500.2179              1523.3498              3028.8001
 Red. masses --      1.0684                 2.1199                 1.0348
 Frc consts  --      1.4167                 2.8984                 5.5931
 IR Inten    --      4.2357                20.4870                36.0402

                     43                     44                     45
                      A                      A                      A
 Frequencies --   3094.9287              3096.3367              3112.1533
 Red. masses --      1.1013                 1.1003                 1.0561
 Frc consts  --      6.2155                 6.2155                 6.0267
 IR Inten    --     22.3217                19.0657                 6.3870

                     46                     47                     48
                      A                      A                      A
 Frequencies --   3154.3238              3169.8251              3184.1043
 Red. masses --      1.0862                 1.0894                 1.0943
 Frc consts  --      6.3677                 6.4493                 6.5368
 IR Inten    --     24.2048                14.2694                11.8182

                     49                     50                     51
                      A                      A                      A
 Frequencies --   3198.6355              3776.0444              3785.4694
 Red. masses --      1.1141                 1.0663                 1.0659
 Frc consts  --      6.7157                 8.9581                 8.9996
 IR Inten    --     14.1555                16.7341                21.9064

 - Thermochemistry -
 -------------------
 Temperature   298.150 Kelvin.  Pressure   1.00000 Atm.
 Atom     1 has atomic number  6 and mass  12.00000

 Molecular mass:   126.06808 amu.
 Principal axes and moments of inertia in atomic units:
                           1         2         3
     Eigenvalues --   647.888271374.096561666.87489
           X            0.99993   0.00529   0.01036
           Y           -0.00559   0.99956   0.02909
           Z           -0.01020  -0.02915   0.99952
 This molecule is an asymmetric top.
 Rotational symmetry number  1.
 Warning -- assumption of classical behavior for rotation
           may cause significant error
 Rotational temperatures (Kelvin)      0.13369     0.06303     0.05196
 Rotational constants (GHZ):           2.78557     1.31340     1.08271
 Zero-point vibrational energy     411892.7 (Joules/Mol)
                                   98.44473 (Kcal/Mol)
 Warning -- explicit consideration of  13 degrees of freedom as
           vibrations may cause significant error
 Vibrational temperatures:    226.48   275.91   296.94   311.93   369.09
          (Kelvin)            386.67   466.47   536.69   565.81   592.96
                              717.02   813.35   855.99  1062.39  1098.15
                             1123.14  1181.96  1255.85  1263.45  1311.63
                             1408.15  1464.79  1471.85  1497.16  1531.07
                             1573.71  1622.68  1643.18  1679.86  1712.97
                             1760.31  1810.55  1841.29  1872.54  1962.09
                             1998.41  2036.24  2072.85  2151.74  2158.48
                             2191.76  4357.76  4452.91  4454.93  4477.69
                             4538.36  4560.67  4581.21  4602.12  5432.88
                             5446.44

 Zero-point correction=                           0.156882 (Hartree/Particle)
 Thermal correction to Energy=                    0.165736
 Thermal correction to Enthalpy=                  0.166680
 Thermal correction to Gibbs Free Energy=         0.124149
 Sum of electronic and zero-point Energies=           -422.943049
 Sum of electronic and thermal Energies=              -422.934195
 Sum of electronic and thermal Enthalpies=            -422.933251
 Sum of electronic and thermal Free Energies=         -422.975782

                     E (Thermal)             CV                S
                      KCal/Mol        Cal/Mol-Kelvin    Cal/Mol-Kelvin
 Total                  104.001             34.938             89.513
 Electronic               0.000              0.000              0.000
 Translational            0.889              2.981             40.409
 Rotational               0.889              2.981             28.786
 Vibrational            102.223             28.976             20.318
 Vibration     1          0.621              1.894              2.581
 Vibration     2          0.634              1.851              2.211
 Vibration     3          0.641              1.831              2.075
 Vibration     4          0.646              1.815              1.986
 Vibration     5          0.666              1.752              1.685
 Vibration     6          0.673              1.731              1.604
 Vibration     7          0.709              1.627              1.289
 Vibration     8          0.744              1.528              1.067
 Vibration     9          0.760              1.485              0.988
 Vibration    10          0.776              1.444              0.919
 Vibration    11          0.854              1.254              0.662
 Vibration    12          0.921              1.106              0.513
 Vibration    13          0.953              1.043              0.458

 Normal termination of Gaussian 09 at Tue Jan 28 00:23:40 2020.
