 Gaussian 09, Revision D.01,
 Gaussian 09:  ES64L-G09RevD.01 24-Apr-2013

 -----------------------------
 # b3lyp 6-31G(2df,p) opt Freq
 -----------------------------

 -----
 titel
 -----
 Symbolic Z-matrix:
 Charge =  0 Multiplicity = 1

 SCF Done:  E(RB3LYP) =  -423.123652453     A.U. after   13 cycles
 Optimization completed.
    -- Stationary point found.
 Normal termination of Gaussian 09 at Tue Jan 28 01:58:28 2020.

 ----------------------------------------------------------------------
 #N Geom=AllCheck Guess=TCheck SCRF=Check GenChk RB3LYP/6-31G(2df,p) Fr
 eq
 ----------------------------------------------------------------------

 Structure from the checkpoint file:  "/scratch/puck/g09_d275132c-e056-4478-8199-2353542eac82/Gau-26532.chk"
 -----
 titel
 -----
 Charge =  0 Multiplicity = 1

                         Standard orientation:
 ---------------------------------------------------------------------
 Center     Atomic      Atomic             Coordinates (Angstroms)
 Number     Number       Type             X           Y           Z
 ---------------------------------------------------------------------
      1          8           0       -2.457865   -0.692268   -0.784128
      2          6           0       -1.927910    0.360318   -0.031387
      3          6           0       -1.325021    0.085722    1.323052
      4          6           0       -0.441824    0.372134    0.136497
      5          6           0        0.534439    1.538004   -0.106680
      6          6           0        1.525094    0.531604   -0.758354
      7          6           0        2.409107   -0.245717    0.234845
      8          8           0        1.406444   -1.273543    0.417637
      9          6           0        0.513850   -0.627232   -0.514264
     10          1           0       -3.251289   -1.007197   -0.338985
     11          1           0       -2.420066    1.323424   -0.179391
     12          1           0       -1.419150    0.843788    2.094659
     13          1           0       -1.333368   -0.939177    1.680616
     14          1           0        0.153551    2.289661   -0.804567
     15          1           0        0.909699    2.050215    0.785245
     16          1           0        1.951500    0.783496   -1.727810
     17          1           0        3.329049   -0.663707   -0.192989
     18          1           0        2.655849    0.272353    1.171151
     19          1           0        0.109186   -1.315359   -1.258252
 ---------------------------------------------------------------------

 SCF Done:  E(RB3LYP) =  -423.123652452     A.U. after    1 cycles

 The electronic state is 1-A.
 Alpha  occ. eigenvalues --  -19.14365 -19.12399 -10.23463 -10.22542 -10.22486
 Alpha  occ. eigenvalues --  -10.18947 -10.18872 -10.18571 -10.18218  -1.03201
 Alpha  occ. eigenvalues --   -1.02689  -0.85849  -0.78859  -0.69307  -0.64605
 Alpha  occ. eigenvalues --   -0.60742  -0.57624  -0.51940  -0.51305  -0.50566
 Alpha  occ. eigenvalues --   -0.47387  -0.45430  -0.43794  -0.41728  -0.39822
 Alpha  occ. eigenvalues --   -0.38264  -0.36145  -0.33976  -0.31835  -0.31463
 Alpha  occ. eigenvalues --   -0.28550  -0.27345  -0.25461  -0.23425
 Alpha virt. eigenvalues --    0.06910   0.08316   0.09401   0.10677   0.11764
 Alpha virt. eigenvalues --    0.12574   0.13905   0.15246   0.16332   0.17454
 Alpha virt. eigenvalues --    0.17860   0.19201   0.20406   0.20902   0.23677

 Mulliken charges:
               1
     1  O   -0.420240
     2  C    0.028707
     3  C   -0.382833
     4  C    0.353764
     5  C   -0.344450
     6  C   -0.074620
     7  C   -0.077311
     8  O   -0.292002
     9  C    0.033262
    10  H    0.289464
    11  H    0.082282
    12  H    0.110466
    13  H    0.125436
    14  H    0.105409
    15  H    0.099643
    16  H    0.078316
    17  H    0.100490
    18  H    0.096543
    19  H    0.087673
 Sum of Mulliken charges =   0.00000

 Dipole moment (field-independent basis, Debye):
    X=             -0.7711    Y=              1.6393    Z=              0.2531  Tot=              1.8292
 Quadrupole moment (field-independent basis, Debye-Ang):
   XX=            -46.2015   YY=            -54.2421   ZZ=            -53.8745
   XY=              2.9578   XZ=             -3.7161   YZ=              0.5589

  Exact polarizability:  89.716   1.412  69.665  -1.481   0.879  67.894
 Approx polarizability: 115.312   2.885 104.120   0.117   0.557 103.079

                      1                      2                      3
                      A                      A                      A
 Frequencies --     61.9008               142.0129               193.3564
 Red. masses --      3.0648                 4.5354                 3.7121
 Frc consts  --      0.0069                 0.0539                 0.0818
 IR Inten    --      2.5836                 0.7447                 3.6138

                      4                      5                      6
                      A                      A                      A
 Frequencies --    213.4047               289.1378               362.5421
 Red. masses --      2.9091                 1.1997                 2.2317
 Frc consts  --      0.0781                 0.0591                 0.1728
 IR Inten    --     11.2319                87.2136                 0.2271

                      7                      8                      9
                      A                      A                      A
 Frequencies --    425.9452               437.3678               533.4016
 Red. masses --      2.5127                 2.2296                 4.1924
 Frc consts  --      0.2686                 0.2513                 0.7028
 IR Inten    --      4.8620                 5.9866                 6.2692

                     10                     11                     12
                      A                      A                      A
 Frequencies --    551.3847               756.5371               782.8658
 Red. masses --      3.7329                 2.9654                 2.1298
 Frc consts  --      0.6687                 1.0000                 0.7691
 IR Inten    --      5.8708                 2.7356                 3.0504

                     13                     14                     15
                      A                      A                      A
 Frequencies --    815.9767               844.5261               866.5438
 Red. masses --      1.9622                 1.8843                 1.7308
 Frc consts  --      0.7698                 0.7918                 0.7657
 IR Inten    --      0.8451                 5.5471                14.2214

                     16                     17                     18
                      A                      A                      A
 Frequencies --    901.2278               929.5224               942.9379
 Red. masses --      2.2334                 1.8570                 2.8089
 Frc consts  --      1.0688                 0.9453                 1.4715
 IR Inten    --      9.6019                 4.9281                 8.6444

                     19                     20                     21
                      A                      A                      A
 Frequencies --    984.9179               995.6590              1013.6498
 Red. masses --      2.5385                 2.5479                 5.0097
 Frc consts  --      1.4509                 1.4882                 3.0328
 IR Inten    --     20.2285                 0.6077               110.6232

                     22                     23                     24
                      A                      A                      A
 Frequencies --   1029.3967              1045.7368              1093.1429
 Red. masses --      1.3554                 2.2252                 1.7844
 Frc consts  --      0.8462                 1.4337                 1.2563
 IR Inten    --      2.4489                24.4450                19.6385

                     25                     26                     27
                      A                      A                      A
 Frequencies --   1114.0365              1151.0540              1158.1790
 Red. masses --      2.0649                 1.3436                 1.5449
 Frc consts  --      1.5099                 1.0488                 1.2210
 IR Inten    --      2.5915                 0.4365                 6.5969

                     28                     29                     30
                      A                      A                      A
 Frequencies --   1174.2825              1182.0286              1214.4222
 Red. masses --      2.3425                 1.5058                 1.5178
 Frc consts  --      1.9032                 1.2396                 1.3189
 IR Inten    --     47.9288                 3.9063                 0.3750

                     31                     32                     33
                      A                      A                      A
 Frequencies --   1233.8539              1256.7273              1284.6035
 Red. masses --      2.0638                 1.5201                 1.3286
 Frc consts  --      1.8512                 1.4145                 1.2918
 IR Inten    --      3.1662                 2.8778                 9.4925

                     34                     35                     36
                      A                      A                      A
 Frequencies --   1298.1172              1310.8977              1350.9868
 Red. masses --      1.3475                 1.5091                 1.7932
 Frc consts  --      1.3378                 1.5279                 1.9284
 IR Inten    --     53.4208                14.7642                 3.7204

                     37                     38                     39
                      A                      A                      A
 Frequencies --   1360.3170              1422.0921              1483.8112
 Red. masses --      1.4629                 1.3887                 1.1167
 Frc consts  --      1.5949                 1.6547                 1.4486
 IR Inten    --      5.1657                13.4919                 3.0654

                     40                     41                     42
                      A                      A                      A
 Frequencies --   1485.2450              1520.8590              3005.0150
 Red. masses --      1.8502                 1.0999                 1.0549
 Frc consts  --      2.4047                 1.4990                 5.6127
 IR Inten    --     17.0113                 1.2946                86.4444

                     43                     44                     45
                      A                      A                      A
 Frequencies --   3041.1104              3047.2648              3080.6078
 Red. masses --      1.0591                 1.1097                 1.0868
 Frc consts  --      5.7712                 6.0710                 6.0767
 IR Inten    --     32.8211                47.9437                39.5748

                     46                     47                     48
                      A                      A                      A
 Frequencies --   3089.8212              3101.3309              3122.0022
 Red. masses --      1.1072                 1.0883                 1.0544
 Frc consts  --      6.2281                 6.1674                 6.0550
 IR Inten    --     20.0480                23.8835                13.7039

                     49                     50                     51
                      A                      A                      A
 Frequencies --   3125.5342              3212.3665              3808.7336
 Red. masses --      1.0909                 1.1166                 1.0663
 Frc consts  --      6.2789                 6.7889                 9.1138
 IR Inten    --     40.1181                 6.2074                24.9164

 - Thermochemistry -
 -------------------
 Temperature   298.150 Kelvin.  Pressure   1.00000 Atm.
 Atom     1 has atomic number  8 and mass  15.99491

 Molecular mass:   126.06808 amu.
 Principal axes and moments of inertia in atomic units:
                           1         2         3
     Eigenvalues --   536.349361439.969451552.34398
           X            0.99986   0.00928  -0.01412
           Y           -0.00891   0.99963   0.02560
           Z            0.01436  -0.02547   0.99957
 This molecule is an asymmetric top.
 Rotational symmetry number  1.
 Warning -- assumption of classical behavior for rotation
           may cause significant error
 Rotational temperatures (Kelvin)      0.16149     0.06015     0.05580
 Rotational constants (GHZ):           3.36486     1.25332     1.16259
 Zero-point vibrational energy     417786.2 (Joules/Mol)
                                   99.85329 (Kcal/Mol)
 Warning -- explicit consideration of  10 degrees of freedom as
           vibrations may cause significant error
 Vibrational temperatures:     89.06   204.32   278.20   307.04   416.00
          (Kelvin)            521.62   612.84   629.27   767.44   793.32
                             1088.49  1126.37  1174.01  1215.08  1246.76
                             1296.66  1337.37  1356.68  1417.08  1432.53
                             1458.41  1481.07  1504.58  1572.79  1602.85
                             1656.11  1666.36  1689.53  1700.67  1747.28
                             1775.24  1808.15  1848.26  1867.70  1886.09
                             1943.77  1957.19  2046.07  2134.87  2136.93
                             2188.17  4323.54  4375.47  4384.33  4432.30
                             4445.56  4462.12  4491.86  4496.94  4621.87
                             5479.91

 Zero-point correction=                           0.159126 (Hartree/Particle)
 Thermal correction to Energy=                    0.167212
 Thermal correction to Enthalpy=                  0.168156
 Thermal correction to Gibbs Free Energy=         0.126248
 Sum of electronic and zero-point Energies=           -422.964526
 Sum of electronic and thermal Energies=              -422.956441
 Sum of electronic and thermal Enthalpies=            -422.955497
 Sum of electronic and thermal Free Energies=         -422.997404

                     E (Thermal)             CV                S
                      KCal/Mol        Cal/Mol-Kelvin    Cal/Mol-Kelvin
 Total                  104.927             31.285             88.202
 Electronic               0.000              0.000              0.000
 Translational            0.889              2.981             40.409
 Rotational               0.889              2.981             28.574
 Vibrational            103.149             25.323             19.220
 Vibration     1          0.597              1.972              4.396
 Vibration     2          0.615              1.911              2.777
 Vibration     3          0.635              1.849              2.195
 Vibration     4          0.644              1.821              2.014
 Vibration     5          0.686              1.694              1.479
 Vibration     6          0.736              1.549              1.111
 Vibration     7          0.788              1.414              0.872
 Vibration     8          0.798              1.389              0.835
 Vibration     9          0.888              1.176              0.580
 Vibration    10          0.907              1.137              0.541

 Optimization completed.
    -- Stationary point found.
 Normal termination of Gaussian 09 at Tue Jan 28 02:46:29 2020.
