 Gaussian 09, Revision D.01,
 Gaussian 09:  ES64L-G09RevD.01 24-Apr-2013

 -----------------------------
 # b3lyp 6-31G(2df,p) opt Freq
 -----------------------------

 -----
 titel
 -----
 Symbolic Z-matrix:
 Charge =  0 Multiplicity = 1

 SCF Done:  E(RB3LYP) =  -423.123466389     A.U. after   14 cycles
 SCF Done:  E(RB3LYP) =  -423.123465960     A.U. after    7 cycles
 SCF Done:  E(RB3LYP) =  -423.123466288     A.U. after    6 cycles
 SCF Done:  E(RB3LYP) =  -423.123466364     A.U. after    6 cycles
 Optimization completed.
    -- Stationary point found.
 Normal termination of Gaussian 09 at Tue Jan 28 09:03:46 2020.

 ----------------------------------------------------------------------
 #N Geom=AllCheck Guess=TCheck SCRF=Check GenChk RB3LYP/6-31G(2df,p) Fr
 eq
 ----------------------------------------------------------------------

 Structure from the checkpoint file:  "/scratch/puck/g09_9f665cff-f045-4ad2-9168-2b43069907d5/Gau-103819.chk"
 -----
 titel
 -----
 Charge =  0 Multiplicity = 1

                         Standard orientation:
 ---------------------------------------------------------------------
 Center     Atomic      Atomic             Coordinates (Angstroms)
 Number     Number       Type             X           Y           Z
 ---------------------------------------------------------------------
      1          6           0       -1.331413    1.634175   -0.007004
      2          6           0       -0.930721    0.203646    0.274867
      3          6           0       -2.089635   -0.781877    0.352867
      4          8           0       -2.819977   -0.867857   -0.862148
      5          8           0        0.040143    0.001157    1.316706
      6          6           0        0.407690   -0.332986   -0.025328
      7          6           0        1.536581    0.462118   -0.662734
      8          6           0        2.850948   -0.058882   -0.300820
      9          6           0        3.923149   -0.508758    0.001274
     10          1           0       -0.477983    2.312943    0.008026
     11          1           0       -1.813939    1.708364   -0.987150
     12          1           0       -2.043586    1.980121    0.751302
     13          1           0       -1.695498   -1.781051    0.558799
     14          1           0       -2.739269   -0.505090    1.197343
     15          1           0       -3.426255   -0.122988   -0.903114
     16          1           0        0.481875   -1.406209   -0.208517
     17          1           0        1.415409    0.425525   -1.753940
     18          1           0        1.464405    1.513658   -0.369597
     19          1           0        4.873913   -0.896299    0.271650
 ---------------------------------------------------------------------

 SCF Done:  E(RB3LYP) =  -423.123466364     A.U. after    1 cycles

 The electronic state is 1-A.
 Alpha  occ. eigenvalues --  -19.15029 -19.14503 -10.24368 -10.24244 -10.23381
 Alpha  occ. eigenvalues --  -10.21585 -10.19117 -10.18194 -10.17092  -1.07261
 Alpha  occ. eigenvalues --   -1.02442  -0.79608  -0.76430  -0.71552  -0.69809
 Alpha  occ. eigenvalues --   -0.62910  -0.56737  -0.53283  -0.51997  -0.48915
 Alpha  occ. eigenvalues --   -0.47729  -0.45867  -0.44899  -0.42647  -0.41818
 Alpha  occ. eigenvalues --   -0.40273  -0.37721  -0.36778  -0.34191  -0.29956
 Alpha  occ. eigenvalues --   -0.29507  -0.26594  -0.26369  -0.25682
 Alpha virt. eigenvalues --    0.04638   0.05519   0.06484   0.10089   0.11012
 Alpha virt. eigenvalues --    0.11104   0.11636   0.13137   0.14131   0.15408
 Alpha virt. eigenvalues --    0.15714   0.17926   0.19449   0.20541   0.22147

 Mulliken charges:
               1
     1  C   -0.481564
     2  C    0.375254
     3  C   -0.146667
     4  O   -0.412767
     5  O   -0.290378
     6  C    0.018635
     7  C   -0.391307
     8  C    0.299633
     9  C   -0.436386
    10  H    0.133212
    11  H    0.125509
    12  H    0.124429
    13  H    0.121357
    14  H    0.096838
    15  H    0.289690
    16  H    0.100194
    17  H    0.138898
    18  H    0.137528
    19  H    0.197890
 Sum of Mulliken charges =   0.00000

 Dipole moment (field-independent basis, Debye):
    X=             -1.2375    Y=              1.3825    Z=             -0.8848  Tot=              2.0556
 Quadrupole moment (field-independent basis, Debye-Ang):
   XX=            -47.1011   YY=            -52.3940   ZZ=            -57.0085
   XY=             -5.7167   XZ=             -1.4891   YZ=             -2.4065

  Exact polarizability: 106.905 -10.993  67.491   2.420  -2.442  59.996
 Approx polarizability: 140.616 -20.425  98.484   9.826  -3.091  97.172

                      1                      2                      3
                      A                      A                      A
 Frequencies --     43.1739                75.1180               101.5540
 Red. masses --      4.1978                 3.2526                 3.2184
 Frc consts  --      0.0046                 0.0108                 0.0196
 IR Inten    --      0.2738                 2.0844                 0.7174

                      4                      5                      6
                      A                      A                      A
 Frequencies --    149.5481               184.4686               229.6407
 Red. masses --      1.1539                 3.2843                 3.2105
 Frc consts  --      0.0152                 0.0658                 0.0998
 IR Inten    --      4.7657                22.9633                 2.2973

                      7                      8                      9
                      A                      A                      A
 Frequencies --    260.9392               296.3423               331.6644
 Red. masses --      1.1322                 3.0151                 3.0886
 Frc consts  --      0.0454                 0.1560                 0.2002
 IR Inten    --     95.5362                 0.7416                 4.5420

                     10                     11                     12
                      A                      A                      A
 Frequencies --    350.6395               428.7628               459.5269
 Red. masses --      2.5991                 3.8749                 3.0284
 Frc consts  --      0.1883                 0.4197                 0.3768
 IR Inten    --      8.9180                 8.7755                 0.6062

                     13                     14                     15
                      A                      A                      A
 Frequencies --    502.7853               544.4512               620.0400
 Red. masses --      5.2529                 3.7383                 1.2056
 Frc consts  --      0.7824                 0.6529                 0.2731
 IR Inten    --      7.7460                 9.8076                41.6254

                     16                     17                     18
                      A                      A                      A
 Frequencies --    644.6647               731.5493               820.7276
 Red. masses --      1.2224                 3.8235                 2.9360
 Frc consts  --      0.2993                 1.2056                 1.1652
 IR Inten    --     42.7307                 9.6376                 8.5461

                     19                     20                     21
                      A                      A                      A
 Frequencies --    887.6067               937.4683               956.7550
 Red. masses --      2.7739                 2.1386                 1.8392
 Frc consts  --      1.2876                 1.1073                 0.9920
 IR Inten    --     13.5826                16.6048                 7.9785

                     22                     23                     24
                      A                      A                      A
 Frequencies --    971.2410              1017.0370              1066.2200
 Red. masses --      2.5612                 2.0842                 5.1984
 Frc consts  --      1.4235                 1.2702                 3.4819
 IR Inten    --      9.7308                 4.6274               108.1033

                     25                     26                     27
                      A                      A                      A
 Frequencies --   1087.9000              1108.0804              1122.9131
 Red. masses --      2.3718                 1.6981                 1.5951
 Frc consts  --      1.6539                 1.2284                 1.1850
 IR Inten    --     14.3816                18.7976                 0.0790

                     28                     29                     30
                      A                      A                      A
 Frequencies --   1195.8426              1231.5817              1270.5226
 Red. masses --      1.3632                 1.1608                 2.3025
 Frc consts  --      1.1486                 1.0374                 2.1899
 IR Inten    --     14.1252                 0.9948                 3.9196

                     31                     32                     33
                      A                      A                      A
 Frequencies --   1317.6700              1362.6494              1389.0816
 Red. masses --      1.4168                 1.4266                 1.3184
 Frc consts  --      1.4494                 1.5607                 1.4988
 IR Inten    --      4.7757                23.8340                10.3920

                     34                     35                     36
                      A                      A                      A
 Frequencies --   1397.5704              1412.9600              1451.1673
 Red. masses --      1.2034                 1.3022                 1.1032
 Frc consts  --      1.3848                 1.5317                 1.3688
 IR Inten    --     32.1480                 7.7979                 4.1901

                     37                     38                     39
                      A                      A                      A
 Frequencies --   1471.5450              1486.3576              1501.1581
 Red. masses --      1.5553                 1.0656                 1.0779
 Frc consts  --      1.9844                 1.3870                 1.4312
 IR Inten    --      2.0489                 4.2360                 3.4708

                     40                     41                     42
                      A                      A                      A
 Frequencies --   1515.4675              2242.5593              2992.3283
 Red. masses --      1.6667                 5.9132                 1.0690
 Frc consts  --      2.2553                17.5210                 5.6397
 IR Inten    --     10.3213                 2.3849                48.9991

                     43                     44                     45
                      A                      A                      A
 Frequencies --   3022.4025              3035.3323              3079.6911
 Red. masses --      1.0654                 1.0403                 1.0918
 Frc consts  --      5.7342                 5.6468                 6.1009
 IR Inten    --     10.3644                21.6468                 3.1849

                     46                     47                     48
                      A                      A                      A
 Frequencies --   3090.6495              3095.5059              3100.9319
 Red. masses --      1.0948                 1.0993                 1.0889
 Frc consts  --      6.1617                 6.2062                 6.1690
 IR Inten    --     12.5947                17.5053                34.2764

                     49                     50                     51
                      A                      A                      A
 Frequencies --   3142.1219              3507.4833              3836.6253
 Red. masses --      1.0969                 1.1627                 1.0665
 Frc consts  --      6.3809                 8.4279                 9.2496
 IR Inten    --     18.0169                69.8071                25.1697

 - Thermochemistry -
 -------------------
 Temperature   298.150 Kelvin.  Pressure   1.00000 Atm.
 Atom     1 has atomic number  6 and mass  12.00000

 Molecular mass:   126.06808 amu.
 Principal axes and moments of inertia in atomic units:
                           1         2         3
     Eigenvalues --   484.646092277.257282365.52512
           X            0.99992  -0.01188  -0.00363
           Y            0.01137   0.99290  -0.11840
           Z            0.00501   0.11835   0.99296
 This molecule is an asymmetric top.
 Rotational symmetry number  1.
 Warning -- assumption of classical behavior for rotation
           may cause significant error
 Rotational temperatures (Kelvin)      0.17872     0.03803     0.03662
 Rotational constants (GHZ):           3.72383     0.79251     0.76293
 Zero-point vibrational energy     407209.0 (Joules/Mol)
                                   97.32528 (Kcal/Mol)
 Warning -- explicit consideration of  15 degrees of freedom as
           vibrations may cause significant error
 Vibrational temperatures:     62.12   108.08   146.11   215.17   265.41
          (Kelvin)            330.40   375.43   426.37   477.19   504.49
                              616.89   661.16   723.40   783.34   892.10
                              927.53  1052.53  1180.84  1277.07  1348.81
                             1376.56  1397.40  1463.29  1534.05  1565.24
                             1594.28  1615.62  1720.55  1771.97  1828.00
                             1895.83  1960.55  1998.58  2010.79  2032.93
                             2087.90  2117.22  2138.53  2159.83  2180.42
                             3226.54  4305.29  4348.56  4367.16  4430.98
                             4446.75  4453.74  4461.54  4520.81  5046.48
                             5520.04

 Zero-point correction=                           0.155098 (Hartree/Particle)
 Thermal correction to Energy=                    0.165528
 Thermal correction to Enthalpy=                  0.166472
 Thermal correction to Gibbs Free Energy=         0.119032
 Sum of electronic and zero-point Energies=           -422.968369
 Sum of electronic and thermal Energies=              -422.957938
 Sum of electronic and thermal Enthalpies=            -422.956994
 Sum of electronic and thermal Free Energies=         -423.004434

                     E (Thermal)             CV                S
                      KCal/Mol        Cal/Mol-Kelvin    Cal/Mol-Kelvin
 Total                  103.870             37.318             99.845
 Electronic               0.000              0.000              0.000
 Translational            0.889              2.981             40.409
 Rotational               0.889              2.981             29.347
 Vibrational            102.093             31.357             30.090
 Vibration     1          0.595              1.980              5.108
 Vibration     2          0.599              1.966              4.015
 Vibration     3          0.604              1.948              3.424
 Vibration     4          0.618              1.903              2.678
 Vibration     5          0.631              1.861              2.283
 Vibration     6          0.652              1.796              1.882
 Vibration     7          0.669              1.744              1.655
 Vibration     8          0.690              1.681              1.437
 Vibration     9          0.714              1.612              1.252
 Vibration    10          0.728              1.574              1.163
 Vibration    11          0.790              1.408              0.863
 Vibration    12          0.817              1.340              0.767
 Vibration    13          0.858              1.244              0.651
 Vibration    14          0.900              1.152              0.556
 Vibration    15          0.980              0.990              0.416

 Optimization completed.
    -- Stationary point found.
 Normal termination of Gaussian 09 at Tue Jan 28 09:40:06 2020.
