 Gaussian 09, Revision D.01,
 Gaussian 09:  ES64L-G09RevD.01 24-Apr-2013

 -----------------------------
 # b3lyp 6-31G(2df,p) opt Freq
 -----------------------------

 -----
 titel
 -----
 Symbolic Z-matrix:
 Charge =  0 Multiplicity = 1

 SCF Done:  E(RB3LYP) =  -423.157860250     A.U. after   13 cycles
 Optimization completed.
    -- Stationary point found.
 Normal termination of Gaussian 09 at Mon Jan 27 11:19:43 2020.

 ----------------------------------------------------------------------
 #N Geom=AllCheck Guess=TCheck SCRF=Check GenChk RB3LYP/6-31G(2df,p) Fr
 eq
 ----------------------------------------------------------------------

 Structure from the checkpoint file:  "/scratch/puck/g09_2467b31e-8898-4d40-b341-809f3d14e501/Gau-32317.chk"
 -----
 titel
 -----
 Charge =  0 Multiplicity = 1

                         Standard orientation:
 ---------------------------------------------------------------------
 Center     Atomic      Atomic             Coordinates (Angstroms)
 Number     Number       Type             X           Y           Z
 ---------------------------------------------------------------------
      1          6           0        1.227038   -1.174419   -0.549702
      2          8           0        1.675348    0.200072   -0.613668
      3          6           0        0.956483    1.007758    0.374098
      4          6           0        0.410813   -0.035427    1.346679
      5          6           0       -0.053853   -0.960019    0.228157
      6          8           0       -1.295067   -1.631387    0.278000
      7          6           0       -1.173166   -0.453731   -0.563605
      8          6           0       -1.575475    0.964611   -0.208884
      9          6           0       -0.243059    1.787818   -0.244367
     10          1           0        1.076287   -1.553077   -1.564071
     11          1           0        1.975215   -1.793722   -0.037351
     12          1           0        1.693614    1.701129    0.785098
     13          1           0        1.196400   -0.491499    1.955331
     14          1           0       -0.386370    0.319526    1.997102
     15          1           0       -1.193393   -0.706032   -1.622629
     16          1           0       -2.303278    1.374756   -0.914000
     17          1           0       -2.034822    1.007435    0.781937
     18          1           0        0.016612    2.035893   -1.278509
     19          1           0       -0.375207    2.736558    0.288174
 ---------------------------------------------------------------------

 SCF Done:  E(RB3LYP) =  -423.157860250     A.U. after    1 cycles

 The electronic state is 1-A.
 Alpha  occ. eigenvalues --  -19.16104 -19.13649 -10.23842 -10.23770 -10.23153
 Alpha  occ. eigenvalues --  -10.23148 -10.19396 -10.18904 -10.18768  -1.07655
 Alpha  occ. eigenvalues --   -1.02350  -0.81436  -0.75642  -0.73634  -0.66234
 Alpha  occ. eigenvalues --   -0.62421  -0.57232  -0.54613  -0.51419  -0.49263
 Alpha  occ. eigenvalues --   -0.46585  -0.46221  -0.42509  -0.41885  -0.41314
 Alpha  occ. eigenvalues --   -0.39414  -0.37886  -0.36307  -0.34322  -0.33917
 Alpha  occ. eigenvalues --   -0.31398  -0.27472  -0.26741  -0.24981
 Alpha virt. eigenvalues --    0.07380   0.08264   0.08880   0.11100   0.12574
 Alpha virt. eigenvalues --    0.13075   0.14858   0.15569   0.15975   0.17335
 Alpha virt. eigenvalues --    0.17815   0.18649   0.19698   0.20482   0.21860

 Mulliken charges:
               1
     1  C   -0.143903
     2  O   -0.297866
     3  C    0.122611
     4  C   -0.298463
     5  C    0.352492
     6  O   -0.316858
     7  C    0.032137
     8  C   -0.283336
     9  C   -0.209725
    10  H    0.111275
    11  H    0.095927
    12  H    0.078501
    13  H    0.103744
    14  H    0.112951
    15  H    0.099437
    16  H    0.103997
    17  H    0.120197
    18  H    0.116867
    19  H    0.100017
 Sum of Mulliken charges =   0.00000

 Dipole moment (field-independent basis, Debye):
    X=             -0.1506    Y=              1.3171    Z=              0.2759  Tot=              1.3541
 Quadrupole moment (field-independent basis, Debye-Ang):
   XX=            -56.6140   YY=            -53.9049   ZZ=            -51.2340
   XY=             -4.7050   XZ=              3.2173   YZ=              2.1727

  Exact polarizability:  74.954  -4.623  76.482   3.529   1.520  68.041
 Approx polarizability: 110.677  -1.716 112.063   2.682  -0.995 105.063

                      1                      2                      3
                      A                      A                      A
 Frequencies --    196.1892               276.0885               350.5334
 Red. masses --      2.6970                 2.6395                 3.0406
 Frc consts  --      0.0612                 0.1185                 0.2201
 IR Inten    --      3.0571                 3.6155                 3.5651

                      4                      5                      6
                      A                      A                      A
 Frequencies --    384.0001               411.7546               485.0725
 Red. masses --      2.4404                 3.2765                 2.4145
 Frc consts  --      0.2120                 0.3273                 0.3347
 IR Inten    --      1.8435                 5.5264                 2.0415

                      7                      8                      9
                      A                      A                      A
 Frequencies --    500.9762               537.3775               567.5014
 Red. masses --      4.4574                 2.6330                 5.3958
 Frc consts  --      0.6591                 0.4480                 1.0239
 IR Inten    --      0.9119                 1.5488                 2.6893

                     10                     11                     12
                      A                      A                      A
 Frequencies --    721.5679               770.3707               796.4703
 Red. masses --      2.7260                 2.9153                 3.0915
 Frc consts  --      0.8362                 1.0194                 1.1555
 IR Inten    --      2.7145                 2.9476                 2.3388

                     13                     14                     15
                      A                      A                      A
 Frequencies --    835.2183               854.8908               902.7350
 Red. masses --      3.3656                 3.1119                 2.6550
 Frc consts  --      1.3833                 1.3400                 1.2748
 IR Inten    --     22.0106                12.8510                18.0162

                     16                     17                     18
                      A                      A                      A
 Frequencies --    924.0823               934.5759               986.4679
 Red. masses --      2.3598                 3.0522                 1.7874
 Frc consts  --      1.1873                 1.5707                 1.0248
 IR Inten    --      7.8666                44.7675                 2.6830

                     19                     20                     21
                      A                      A                      A
 Frequencies --    988.9118              1000.1303              1032.7150
 Red. masses --      1.7645                 2.6502                 2.5853
 Frc consts  --      1.0167                 1.5619                 1.6245
 IR Inten    --      3.8222                28.4577                38.4272

                     22                     23                     24
                      A                      A                      A
 Frequencies --   1053.4020              1088.7548              1111.5883
 Red. masses --      1.6628                 2.1689                 2.1547
 Frc consts  --      1.0871                 1.5148                 1.5687
 IR Inten    --      3.4311                 7.2465                 7.8271

                     25                     26                     27
                      A                      A                      A
 Frequencies --   1130.4291              1174.3035              1180.2258
 Red. masses --      1.5118                 1.2302                 1.3038
 Frc consts  --      1.1382                 0.9995                 1.0700
 IR Inten    --      4.2551                 5.7135                10.9907

                     28                     29                     30
                      A                      A                      A
 Frequencies --   1218.2511              1230.2075              1263.6009
 Red. masses --      1.8614                 1.5173                 1.5879
 Frc consts  --      1.6277                 1.3529                 1.4938
 IR Inten    --      3.1054                 5.5281                 9.9611

                     31                     32                     33
                      A                      A                      A
 Frequencies --   1299.4600              1323.9912              1339.7951
 Red. masses --      1.4355                 1.3858                 1.3267
 Frc consts  --      1.4282                 1.4312                 1.4031
 IR Inten    --      0.6594                 0.8099                 5.9588

                     34                     35                     36
                      A                      A                      A
 Frequencies --   1351.2865              1361.9824              1368.9869
 Red. masses --      1.4196                 1.2882                 1.3608
 Frc consts  --      1.5272                 1.4079                 1.5026
 IR Inten    --      0.7239                 4.6974                 0.1948

                     37                     38                     39
                      A                      A                      A
 Frequencies --   1472.3839              1483.3556              1494.3061
 Red. masses --      1.1311                 1.1073                 3.7663
 Frc consts  --      1.4447                 1.4355                 4.9551
 IR Inten    --      1.1601                 3.9808                25.4846

                     40                     41                     42
                      A                      A                      A
 Frequencies --   1511.8575              1530.3281              3012.4442
 Red. masses --      1.0922                 1.0995                 1.0655
 Frc consts  --      1.4709                 1.5171                 5.6971
 IR Inten    --      8.0169                 0.7029                76.1795

                     43                     44                     45
                      A                      A                      A
 Frequencies --   3040.0818              3064.9704              3069.5748
 Red. masses --      1.0620                 1.0604                 1.0690
 Frc consts  --      5.7828                 5.8689                 5.9343
 IR Inten    --     20.5729                31.2625                15.4945

                     46                     47                     48
                      A                      A                      A
 Frequencies --   3082.6409              3087.9477              3090.0428
 Red. masses --      1.0931                 1.0954                 1.0996
 Frc consts  --      6.1200                 6.1541                 6.1858
 IR Inten    --     23.6683                31.5776                35.4440

                     49                     50                     51
                      A                      A                      A
 Frequencies --   3105.0848              3125.2220              3151.5963
 Red. masses --      1.1008                 1.0914                 1.0991
 Frc consts  --      6.2535                 6.2806                 6.4321
 IR Inten    --      9.8590                36.1428                14.5971

 - Thermochemistry -
 -------------------
 Temperature   298.150 Kelvin.  Pressure   1.00000 Atm.
 Atom     1 has atomic number  6 and mass  12.00000

 Molecular mass:   126.06808 amu.
 Principal axes and moments of inertia in atomic units:
                           1         2         3
     Eigenvalues --   754.32555 827.373961177.02810
           X            0.88506  -0.46461   0.02855
           Y            0.46417   0.88550   0.02077
           Z           -0.03493  -0.00513   0.99938
 This molecule is an asymmetric top.
 Rotational symmetry number  1.
 Warning -- assumption of classical behavior for rotation
           may cause significant error
 Rotational temperatures (Kelvin)      0.11482     0.10469     0.07359
 Rotational constants (GHZ):           2.39252     2.18129     1.53330
 Zero-point vibrational energy     426323.5 (Joules/Mol)
                                  101.89377 (Kcal/Mol)
 Warning -- explicit consideration of   9 degrees of freedom as
           vibrations may cause significant error
 Vibrational temperatures:    282.27   397.23   504.34   552.49   592.42
          (Kelvin)            697.91   720.79   773.17   816.51  1038.17
                             1108.39  1145.94  1201.69  1230.00  1298.83
                             1329.55  1344.64  1419.31  1422.82  1438.96
                             1485.84  1515.61  1566.47  1599.33  1626.43
                             1689.56  1698.08  1752.79  1769.99  1818.04
                             1869.63  1904.93  1927.66  1944.20  1959.59
                             1969.66  2118.43  2134.22  2149.97  2175.22
                             2201.80  4334.23  4373.99  4409.80  4416.43
                             4435.23  4442.86  4445.88  4467.52  4496.49
                             4534.44

 Zero-point correction=                           0.162378 (Hartree/Particle)
 Thermal correction to Energy=                    0.169012
 Thermal correction to Enthalpy=                  0.169956
 Thermal correction to Gibbs Free Energy=         0.131830
 Sum of electronic and zero-point Energies=           -422.995482
 Sum of electronic and thermal Energies=              -422.988848
 Sum of electronic and thermal Enthalpies=            -422.987904
 Sum of electronic and thermal Free Energies=         -423.026030

                     E (Thermal)             CV                S
                      KCal/Mol        Cal/Mol-Kelvin    Cal/Mol-Kelvin
 Total                  106.057             28.353             80.244
 Electronic               0.000              0.000              0.000
 Translational            0.889              2.981             40.409
 Rotational               0.889              2.981             28.087
 Vibrational            104.279             22.391             11.748
 Vibration     1          0.636              1.845              2.169
 Vibration     2          0.678              1.718              1.558
 Vibration     3          0.727              1.574              1.164
 Vibration     4          0.753              1.504              1.023
 Vibration     5          0.776              1.445              0.920
 Vibration     6          0.841              1.283              0.697
 Vibration     7          0.856              1.248              0.656
 Vibration     8          0.892              1.167              0.571
 Vibration     9          0.923              1.102              0.509

 Normal termination of Gaussian 09 at Mon Jan 27 12:10:57 2020.
