 Gaussian 09, Revision D.01,
 Gaussian 09:  ES64L-G09RevD.01 24-Apr-2013

 -----------------------------
 # b3lyp 6-31G(2df,p) opt Freq
 -----------------------------

 -----
 titel
 -----
 Symbolic Z-matrix:
 Charge =  0 Multiplicity = 1

 SCF Done:  E(RB3LYP) =  -423.144167228     A.U. after   13 cycles
 SCF Done:  E(RB3LYP) =  -423.144167356     A.U. after    6 cycles
 Optimization completed.
    -- Stationary point found.
 Normal termination of Gaussian 09 at Mon Jan 27 22:11:34 2020.

 ----------------------------------------------------------------------
 #N Geom=AllCheck Guess=TCheck SCRF=Check GenChk RB3LYP/6-31G(2df,p) Fr
 eq
 ----------------------------------------------------------------------

 Structure from the checkpoint file:  "/scratch/puck/g09_94055fc2-33c2-47d8-a4ef-3b4786be95b2/Gau-46847.chk"
 -----
 titel
 -----
 Charge =  0 Multiplicity = 1

                         Standard orientation:
 ---------------------------------------------------------------------
 Center     Atomic      Atomic             Coordinates (Angstroms)
 Number     Number       Type             X           Y           Z
 ---------------------------------------------------------------------
      1          6           0       -2.763509   -0.379382   -0.170965
      2          6           0       -1.365671   -0.478262    0.432003
      3          6           0       -0.670629    0.887291    0.624159
      4          6           0       -0.125664    0.836494   -0.821342
      5          8           0        1.177237    1.316027   -0.428313
      6          6           0        0.868656    0.653709    0.842632
      7          6           0        1.008729   -0.825120    0.396539
      8          8           0        2.253697   -1.099582   -0.184281
      9          6           0       -0.202505   -0.740111   -0.567997
     10          1           0       -2.790603    0.287579   -1.039247
     11          1           0       -3.116977   -1.362746   -0.497898
     12          1           0       -3.479851    0.005257    0.563250
     13          1           0       -1.382797   -1.146216    1.300948
     14          1           0       -1.134736    1.765274    1.072153
     15          1           0       -0.535891    1.299252   -1.715722
     16          1           0        1.447590    1.032130    1.683501
     17          1           0        0.850508   -1.550898    1.197981
     18          1           0        2.464321   -0.312296   -0.707323
     19          1           0       -0.265474   -1.476606   -1.367071
 ---------------------------------------------------------------------

 SCF Done:  E(RB3LYP) =  -423.144167356     A.U. after    1 cycles

 The electronic state is 1-A.
 Alpha  occ. eigenvalues --  -19.14739 -19.12735 -10.24310 -10.24055 -10.23100
 Alpha  occ. eigenvalues --  -10.19845 -10.19741 -10.18954 -10.18295  -1.06684
 Alpha  occ. eigenvalues --   -1.00786  -0.86440  -0.73993  -0.69941  -0.68716
 Alpha  occ. eigenvalues --   -0.61259  -0.58035  -0.53390  -0.52892  -0.48996
 Alpha  occ. eigenvalues --   -0.47942  -0.45787  -0.41543  -0.40504  -0.39857
 Alpha  occ. eigenvalues --   -0.38746  -0.36944  -0.35851  -0.33846  -0.32510
 Alpha  occ. eigenvalues --   -0.30773  -0.29369  -0.27010  -0.24111
 Alpha virt. eigenvalues --    0.06678   0.09547   0.11239   0.11856   0.12508
 Alpha virt. eigenvalues --    0.12955   0.14042   0.14971   0.16225   0.16654
 Alpha virt. eigenvalues --    0.16983   0.18051   0.18991   0.20740   0.22424

 Mulliken charges:
               1
     1  C   -0.416999
     2  C   -0.003249
     3  C   -0.071069
     4  C    0.097546
     5  O   -0.314577
     6  C    0.004475
     7  C    0.183711
     8  O   -0.458289
     9  C   -0.142886
    10  H    0.117589
    11  H    0.120081
    12  H    0.117379
    13  H    0.068955
    14  H    0.077797
    15  H    0.092282
    16  H    0.085990
    17  H    0.084640
    18  H    0.284199
    19  H    0.072427
 Sum of Mulliken charges =   0.00000

 Dipole moment (field-independent basis, Debye):
    X=             -2.2903    Y=              0.4753    Z=              0.4311  Tot=              2.3785
 Quadrupole moment (field-independent basis, Debye-Ang):
   XX=            -56.5320   YY=            -56.1491   ZZ=            -50.1518
   XY=              1.8408   XZ=              0.7241   YZ=              0.2875

  Exact polarizability:  83.476   0.536  69.521   0.976   0.358  67.450
 Approx polarizability: 112.746   1.337 107.845  -0.786  -1.641 106.937

                      1                      2                      3
                      A                      A                      A
 Frequencies --    204.0339               215.7851               234.9160
 Red. masses --      2.6632                 1.1906                 2.8586
 Frc consts  --      0.0653                 0.0327                 0.0929
 IR Inten    --      0.8483                 0.1267                 0.2521

                      4                      5                      6
                      A                      A                      A
 Frequencies --    255.5031               364.9509               464.5353
 Red. masses --      3.3740                 4.0815                 3.8346
 Frc consts  --      0.1298                 0.3203                 0.4875
 IR Inten    --      5.3500                 2.2240                 0.5537

                      7                      8                      9
                      A                      A                      A
 Frequencies --    490.2752               551.0360               609.8551
 Red. masses --      4.0587                 1.1453                 4.4351
 Frc consts  --      0.5748                 0.2049                 0.9719
 IR Inten    --      0.9268                55.8198                19.7404

                     10                     11                     12
                      A                      A                      A
 Frequencies --    702.1327               764.0378               820.3204
 Red. masses --      3.3027                 3.4608                 2.5084
 Frc consts  --      0.9593                 1.1903                 0.9945
 IR Inten    --      1.7655                 9.5978                 6.2488

                     13                     14                     15
                      A                      A                      A
 Frequencies --    841.9651               849.2863               853.1211
 Red. masses --      2.2090                 2.1504                 2.4592
 Frc consts  --      0.9226                 0.9139                 1.0545
 IR Inten    --      4.9475                16.3010                 6.5054

                     16                     17                     18
                      A                      A                      A
 Frequencies --    900.4564               913.5955               930.0553
 Red. masses --      2.9351                 2.0279                 2.7780
 Frc consts  --      1.4021                 0.9973                 1.4158
 IR Inten    --      1.5139                 3.4273                16.3686

                     19                     20                     21
                      A                      A                      A
 Frequencies --    944.7269               997.8305              1021.0345
 Red. masses --      4.2020                 2.1303                 2.3128
 Frc consts  --      2.2096                 1.2497                 1.4206
 IR Inten    --     27.8333                19.1122                24.1699

                     22                     23                     24
                      A                      A                      A
 Frequencies --   1040.8427              1074.6661              1090.3800
 Red. masses --      1.5972                 1.7828                 1.8248
 Frc consts  --      1.0195                 1.2131                 1.2783
 IR Inten    --     10.3166                 4.0558                10.5693

                     25                     26                     27
                      A                      A                      A
 Frequencies --   1103.1192              1132.8226              1170.6649
 Red. masses --      1.7158                 2.6306                 1.6819
 Frc consts  --      1.2301                 1.9890                 1.3581
 IR Inten    --      1.0498                89.1934                20.8172

                     28                     29                     30
                      A                      A                      A
 Frequencies --   1182.1796              1193.2412              1215.9423
 Red. masses --      2.0198                 1.4521                 1.4118
 Frc consts  --      1.6631                 1.2181                 1.2298
 IR Inten    --      4.9278                17.9643                 3.6882

                     31                     32                     33
                      A                      A                      A
 Frequencies --   1235.4346              1269.9211              1274.9778
 Red. masses --      1.3578                 1.6449                 1.6519
 Frc consts  --      1.2210                 1.5629                 1.5821
 IR Inten    --      0.9062                 4.4878                21.9325

                     34                     35                     36
                      A                      A                      A
 Frequencies --   1280.6200              1309.8444              1340.6332
 Red. masses --      1.5657                 1.7353                 1.5621
 Frc consts  --      1.5128                 1.7542                 1.6542
 IR Inten    --      2.2662                 5.6310                 8.4978

                     37                     38                     39
                      A                      A                      A
 Frequencies --   1384.8114              1414.6992              1451.7541
 Red. masses --      1.5498                 1.2358                 1.2401
 Frc consts  --      1.7511                 1.4572                 1.5399
 IR Inten    --      5.4380                 2.2399                94.7829

                     40                     41                     42
                      A                      A                      A
 Frequencies --   1494.7552              1500.0913              3029.8401
 Red. masses --      1.0482                 1.0472                 1.0390
 Frc consts  --      1.3799                 1.3884                 5.6193
 IR Inten    --      2.8221                 4.3724                28.2837

                     43                     44                     45
                      A                      A                      A
 Frequencies --   3032.1466              3086.4311              3095.3354
 Red. masses --      1.0802                 1.0867                 1.1010
 Frc consts  --      5.8514                 6.0991                 6.2153
 IR Inten    --     25.3086                25.1806                25.6198

                     46                     47                     48
                      A                      A                      A
 Frequencies --   3100.4041              3122.2117              3135.9281
 Red. masses --      1.1009                 1.0896                 1.0901
 Frc consts  --      6.2350                 6.2578                 6.3161
 IR Inten    --     32.7880                22.4908                25.4930

                     49                     50                     51
                      A                      A                      A
 Frequencies --   3140.0189              3152.1545              3730.9623
 Red. masses --      1.0908                 1.0952                 1.0641
 Frc consts  --      6.3367                 6.4113                 8.7272
 IR Inten    --     51.0531                19.3824                36.1617

 - Thermochemistry -
 -------------------
 Temperature   298.150 Kelvin.  Pressure   1.00000 Atm.
 Atom     1 has atomic number  6 and mass  12.00000

 Molecular mass:   126.06808 amu.
 Principal axes and moments of inertia in atomic units:
                           1         2         3
     Eigenvalues --   536.981671192.690911392.12536
           X            0.99988   0.01171   0.01021
           Y           -0.01183   0.99986   0.01224
           Z           -0.01006  -0.01236   0.99987
 This molecule is an asymmetric top.
 Rotational symmetry number  1.
 Warning -- assumption of classical behavior for rotation
           may cause significant error
 Rotational temperatures (Kelvin)      0.16130     0.07262     0.06222
 Rotational constants (GHZ):           3.36090     1.51317     1.29639
 Zero-point vibrational energy     422977.3 (Joules/Mol)
                                  101.09401 (Kcal/Mol)
 Warning -- explicit consideration of   9 degrees of freedom as
           vibrations may cause significant error
 Vibrational temperatures:    293.56   310.47   337.99   367.61   525.08
          (Kelvin)            668.36   705.40   792.82   877.44  1010.21
                             1099.28  1180.26  1211.40  1221.93  1227.45
                             1295.55  1314.46  1338.14  1359.25  1435.65
                             1469.04  1497.54  1546.20  1568.81  1587.14
                             1629.88  1684.32  1700.89  1716.81  1749.47
                             1777.51  1827.13  1834.41  1842.52  1884.57
                             1928.87  1992.43  2035.43  2088.75  2150.62
                             2158.29  4359.26  4362.58  4440.68  4453.49
                             4460.78  4492.16  4511.90  4517.78  4535.24
                             5368.02

 Zero-point correction=                           0.161104 (Hartree/Particle)
 Thermal correction to Energy=                    0.168230
 Thermal correction to Enthalpy=                  0.169175
 Thermal correction to Gibbs Free Energy=         0.129968
 Sum of electronic and zero-point Energies=           -422.983064
 Sum of electronic and thermal Energies=              -422.975937
 Sum of electronic and thermal Enthalpies=            -422.974993
 Sum of electronic and thermal Free Energies=         -423.014199

                     E (Thermal)             CV                S
                      KCal/Mol        Cal/Mol-Kelvin    Cal/Mol-Kelvin
 Total                  105.566             29.635             82.517
 Electronic               0.000              0.000              0.000
 Translational            0.889              2.981             40.409
 Rotational               0.889              2.981             28.280
 Vibrational            103.789             23.674             13.829
 Vibration     1          0.640              1.834              2.096
 Vibration     2          0.645              1.817              1.994
 Vibration     3          0.655              1.787              1.841
 Vibration     4          0.666              1.753              1.692
 Vibration     5          0.738              1.544              1.101
 Vibration     6          0.822              1.329              0.753
 Vibration     7          0.846              1.272              0.683
 Vibration     8          0.906              1.137              0.542
 Vibration     9          0.969              1.011              0.433

 Optimization completed.
    -- Stationary point found.
 Normal termination of Gaussian 09 at Mon Jan 27 23:02:43 2020.
