 Gaussian 09, Revision D.01,
 Gaussian 09:  ES64L-G09RevD.01 24-Apr-2013

 -----------------------------
 # b3lyp 6-31G(2df,p) opt Freq
 -----------------------------

 -----
 titel
 -----
 Symbolic Z-matrix:
 Charge =  0 Multiplicity = 1

 SCF Done:  E(RB3LYP) =  -423.201388137     A.U. after   14 cycles
 Optimization completed.
    -- Stationary point found.
 Normal termination of Gaussian 09 at Mon Jan 27 13:09:51 2020.

 ----------------------------------------------------------------------
 #N Geom=AllCheck Guess=TCheck SCRF=Check GenChk RB3LYP/6-31G(2df,p) Fr
 eq
 ----------------------------------------------------------------------

 Structure from the checkpoint file:  "/scratch/puck/g09_e86a5640-1c94-4c93-82ac-9f4ebce0be6a/Gau-38032.chk"
 -----
 titel
 -----
 Charge =  0 Multiplicity = 1

                         Standard orientation:
 ---------------------------------------------------------------------
 Center     Atomic      Atomic             Coordinates (Angstroms)
 Number     Number       Type             X           Y           Z
 ---------------------------------------------------------------------
      1          8           0        2.067486   -1.537080   -0.285431
      2          6           0        1.234728   -0.685414   -0.070389
      3          6           0        1.583010    0.662607    0.545956
      4          6           0        0.733253    1.782609   -0.074013
      5          8           0       -0.644973    1.507553    0.099276
      6          6           0       -1.086463    0.405485   -0.671149
      7          6           0       -2.259795   -0.271746    0.063987
      8          6           0       -1.243635   -1.249078    0.715010
      9          6           0       -0.224599   -0.874425   -0.416898
     10          1           0        1.364962    0.623544    1.620967
     11          1           0        2.655475    0.838067    0.426140
     12          1           0        0.925891    2.738246    0.421023
     13          1           0        0.975564    1.903431   -1.142528
     14          1           0       -1.222965    0.704678   -1.719652
     15          1           0       -2.839708    0.379786    0.719903
     16          1           0       -2.931842   -0.781073   -0.631339
     17          1           0       -0.913452   -0.901026    1.695930
     18          1           0       -1.514427   -2.303318    0.785812
     19          1           0       -0.298594   -1.586346   -1.242032
 ---------------------------------------------------------------------

 SCF Done:  E(RB3LYP) =  -423.201388137     A.U. after    1 cycles

 The electronic state is 1-A.
 Alpha  occ. eigenvalues --  -19.15071 -19.12540 -10.26573 -10.24119 -10.24075
 Alpha  occ. eigenvalues --  -10.19700 -10.19460 -10.19187 -10.18949  -1.04807
 Alpha  occ. eigenvalues --   -1.03424  -0.84840  -0.78273  -0.69232  -0.67498
 Alpha  occ. eigenvalues --   -0.63040  -0.57480  -0.53174  -0.50730  -0.49140
 Alpha  occ. eigenvalues --   -0.46959  -0.46753  -0.42477  -0.42248  -0.40879
 Alpha  occ. eigenvalues --   -0.38792  -0.37514  -0.36333  -0.35045  -0.33639
 Alpha  occ. eigenvalues --   -0.32887  -0.30514  -0.26033  -0.23666
 Alpha virt. eigenvalues --   -0.01898   0.07911   0.09145   0.11121   0.12235
 Alpha virt. eigenvalues --    0.13223   0.14884   0.15348   0.15428   0.16582
 Alpha virt. eigenvalues --    0.17525   0.18132   0.18917   0.20718   0.22007

 Mulliken charges:
               1
     1  O   -0.318794
     2  C    0.369962
     3  C   -0.307875
     4  C   -0.092249
     5  O   -0.261420
     6  C    0.099964
     7  C   -0.236856
     8  C   -0.236436
     9  C   -0.098667
    10  H    0.130978
    11  H    0.121338
    12  H    0.116259
    13  H    0.097514
    14  H    0.069588
    15  H    0.113902
    16  H    0.107717
    17  H    0.116378
    18  H    0.113654
    19  H    0.095045
 Sum of Mulliken charges =   0.00000

 Dipole moment (field-independent basis, Debye):
    X=             -1.4703    Y=              1.2468    Z=              0.0582  Tot=              1.9286
 Quadrupole moment (field-independent basis, Debye-Ang):
   XX=            -56.6500   YY=            -56.3205   ZZ=            -51.0821
   XY=              8.5827   XZ=              1.9691   YZ=             -0.8782

  Exact polarizability:  85.363   2.094  77.220   0.623   1.406  64.332
 Approx polarizability: 118.146  -5.737 112.389  -2.293   5.402  99.805

                      1                      2                      3
                      A                      A                      A
 Frequencies --     80.6596               140.8838               212.8136
 Red. masses --      4.0461                 2.3630                 3.0908
 Frc consts  --      0.0155                 0.0276                 0.0825
 IR Inten    --      5.5638                 1.5597                 0.4344

                      4                      5                      6
                      A                      A                      A
 Frequencies --    284.8780               349.3670               410.1295
 Red. masses --      1.9749                 3.8478                 6.5367
 Frc consts  --      0.0944                 0.2767                 0.6478
 IR Inten    --      1.4128                 5.1931                 2.8208

                      7                      8                      9
                      A                      A                      A
 Frequencies --    459.4883               466.0597               561.4010
 Red. masses --      3.4755                 3.1755                 2.5366
 Frc consts  --      0.4323                 0.4064                 0.4710
 IR Inten    --      6.4140                 2.7953                 4.4640

                     10                     11                     12
                      A                      A                      A
 Frequencies --    651.2331               730.9904               734.6039
 Red. masses --      2.5463                 1.6941                 2.4297
 Frc consts  --      0.6363                 0.5333                 0.7725
 IR Inten    --      3.2500                 0.9070                 9.5012

                     13                     14                     15
                      A                      A                      A
 Frequencies --    820.7257               857.7961               894.2405
 Red. masses --      2.4426                 2.3304                 2.2846
 Frc consts  --      0.9694                 1.0103                 1.0764
 IR Inten    --     12.8553                 3.3142                 1.5289

                     16                     17                     18
                      A                      A                      A
 Frequencies --    908.8380               939.2308               950.2833
 Red. masses --      2.1322                 2.6667                 1.9514
 Frc consts  --      1.0376                 1.3860                 1.0383
 IR Inten    --      2.8376                 1.0017                 4.9442

                     19                     20                     21
                      A                      A                      A
 Frequencies --    966.8460              1017.4137              1054.4770
 Red. masses --      2.0682                 2.1269                 2.0152
 Frc consts  --      1.1391                 1.2972                 1.3202
 IR Inten    --      4.4257                10.1802                 6.1643

                     22                     23                     24
                      A                      A                      A
 Frequencies --   1096.0846              1106.4215              1133.0715
 Red. masses --      2.6597                 2.2915                 2.5373
 Frc consts  --      1.8827                 1.6528                 1.9193
 IR Inten    --     42.7062                10.1745                13.3186

                     25                     26                     27
                      A                      A                      A
 Frequencies --   1205.1726              1210.1223              1242.4157
 Red. masses --      1.5934                 1.4054                 1.5202
 Frc consts  --      1.3635                 1.2125                 1.3825
 IR Inten    --     23.8082                16.6815                32.2043

                     28                     29                     30
                      A                      A                      A
 Frequencies --   1251.8464              1253.8884              1269.9349
 Red. masses --      1.3090                 1.5302                 1.4634
 Frc consts  --      1.2086                 1.4175                 1.3905
 IR Inten    --      5.1469                41.4992                16.0256

                     31                     32                     33
                      A                      A                      A
 Frequencies --   1282.0510              1295.4363              1314.0626
 Red. masses --      1.4264                 1.8287                 1.5296
 Frc consts  --      1.3814                 1.8082                 1.5561
 IR Inten    --      6.6443                29.0778                 7.5244

                     34                     35                     36
                      A                      A                      A
 Frequencies --   1332.9899              1369.6981              1406.7564
 Red. masses --      1.3684                 1.3490                 1.3204
 Frc consts  --      1.4326                 1.4912                 1.5396
 IR Inten    --      3.7439                35.0700                13.9371

                     37                     38                     39
                      A                      A                      A
 Frequencies --   1450.1261              1470.3880              1489.2401
 Red. masses --      1.0898                 1.0917                 1.1184
 Frc consts  --      1.3502                 1.3907                 1.4615
 IR Inten    --      6.8603                 2.5730                 2.4685

                     40                     41                     42
                      A                      A                      A
 Frequencies --   1506.4343              1805.8553              2976.0327
 Red. masses --      1.0903                11.6158                 1.0708
 Frc consts  --      1.4578                22.3186                 5.5876
 IR Inten    --      2.0706               197.9394                45.2013

                     43                     44                     45
                      A                      A                      A
 Frequencies --   3002.5792              3035.7255              3070.6773
 Red. masses --      1.0855                 1.0636                 1.0591
 Frc consts  --      5.7658                 5.7752                 5.8840
 IR Inten    --     73.7186                 7.9221                33.1640

                     46                     47                     48
                      A                      A                      A
 Frequencies --   3078.0067              3089.9295              3090.3840
 Red. masses --      1.0594                 1.0878                 1.0912
 Frc consts  --      5.9135                 6.1194                 6.1399
 IR Inten    --     22.4214                31.2288                12.1000

                     49                     50                     51
                      A                      A                      A
 Frequencies --   3106.0450              3125.2560              3139.7505
 Red. masses --      1.0981                 1.1074                 1.1080
 Frc consts  --      6.2417                 6.3725                 6.4356
 IR Inten    --     15.4590                 6.0414                32.7917

 - Thermochemistry -
 -------------------
 Temperature   298.150 Kelvin.  Pressure   1.00000 Atm.
 Atom     1 has atomic number  8 and mass  15.99491

 Molecular mass:   126.06808 amu.
 Principal axes and moments of inertia in atomic units:
                           1         2         3
     Eigenvalues --   737.145851038.077611545.93080
           X            0.98873   0.14948   0.00890
           Y           -0.14940   0.98873  -0.00923
           Z           -0.01018   0.00780   0.99992
 This molecule is an asymmetric top.
 Rotational symmetry number  1.
 Warning -- assumption of classical behavior for rotation
           may cause significant error
 Rotational temperatures (Kelvin)      0.11750     0.08344     0.05603
 Rotational constants (GHZ):           2.44828     1.73854     1.16741
 Zero-point vibrational energy     422872.4 (Joules/Mol)
                                  101.06892 (Kcal/Mol)
 Warning -- explicit consideration of   9 degrees of freedom as
           vibrations may cause significant error
 Vibrational temperatures:    116.05   202.70   306.19   409.88   502.66
          (Kelvin)            590.08   661.10   670.56   807.73   936.98
                             1051.73  1056.93  1180.84  1234.18  1286.61
                             1307.61  1351.34  1367.24  1391.07  1463.83
                             1517.16  1577.02  1591.89  1630.24  1733.97
                             1741.09  1787.56  1801.13  1804.06  1827.15
                             1844.58  1863.84  1890.64  1917.87  1970.69
                             2024.01  2086.41  2115.56  2142.68  2167.42
                             2598.22  4281.84  4320.04  4367.73  4418.01
                             4428.56  4445.71  4446.37  4468.90  4496.54
                             4517.40

 Zero-point correction=                           0.161064 (Hartree/Particle)
 Thermal correction to Energy=                    0.168674
 Thermal correction to Enthalpy=                  0.169618
 Thermal correction to Gibbs Free Energy=         0.128791
 Sum of electronic and zero-point Energies=           -423.040325
 Sum of electronic and thermal Energies=              -423.032715
 Sum of electronic and thermal Enthalpies=            -423.031770
 Sum of electronic and thermal Free Energies=         -423.072597

                     E (Thermal)             CV                S
                      KCal/Mol        Cal/Mol-Kelvin    Cal/Mol-Kelvin
 Total                  105.844             29.827             85.927
 Electronic               0.000              0.000              0.000
 Translational            0.889              2.981             40.409
 Rotational               0.889              2.981             28.561
 Vibrational            104.067             23.865             16.958
 Vibration     1          0.600              1.962              3.875
 Vibration     2          0.615              1.912              2.792
 Vibration     3          0.644              1.821              2.019
 Vibration     4          0.683              1.702              1.504
 Vibration     5          0.727              1.577              1.169
 Vibration     6          0.774              1.448              0.926
 Vibration     7          0.817              1.340              0.768
 Vibration     8          0.823              1.325              0.749
 Vibration     9          0.917              1.115              0.521

 Optimization completed.
    -- Stationary point found.
 Normal termination of Gaussian 09 at Mon Jan 27 13:54:45 2020.
