 Gaussian 09, Revision D.01,
 Gaussian 09:  ES64L-G09RevD.01 24-Apr-2013

 -----------------------------
 # b3lyp 6-31G(2df,p) opt Freq
 -----------------------------

 -----
 titel
 -----
 Symbolic Z-matrix:
 Charge =  0 Multiplicity = 1

 SCF Done:  E(RB3LYP) =  -423.171791737     A.U. after   14 cycles
 Optimization completed.
    -- Stationary point found.
 Normal termination of Gaussian 09 at Tue Jan 28 09:56:23 2020.

 ----------------------------------------------------------------------
 #N Geom=AllCheck Guess=TCheck SCRF=Check GenChk RB3LYP/6-31G(2df,p) Fr
 eq
 ----------------------------------------------------------------------

 Structure from the checkpoint file:  "/scratch/puck/g09_812c2d46-cb3a-41bb-ad18-a4dfc654fd77/Gau-64440.chk"
 -----
 titel
 -----
 Charge =  0 Multiplicity = 1

                         Standard orientation:
 ---------------------------------------------------------------------
 Center     Atomic      Atomic             Coordinates (Angstroms)
 Number     Number       Type             X           Y           Z
 ---------------------------------------------------------------------
      1          8           0       -2.489015   -0.083624    0.272908
      2          6           0       -1.501534   -0.643477   -0.603405
      3          6           0       -0.159237   -0.476768    0.050924
      4          6           0        0.488424   -1.596399    0.817021
      5          6           0        1.087216   -1.140930   -0.505445
      6          6           0        2.155604   -0.105946   -0.408495
      7          6           0        1.708367    1.027681    0.137133
      8          6           0        0.236760    0.956956    0.471627
      9          8           0       -0.480977    1.961259   -0.231377
     10          1           0       -3.343290   -0.136998   -0.167058
     11          1           0       -1.702827   -1.707608   -0.795094
     12          1           0       -1.509895   -0.113568   -1.565655
     13          1           0        1.037531   -1.362582    1.724120
     14          1           0       -0.030145   -2.550897    0.833717
     15          1           0        1.055974   -1.820366   -1.351479
     16          1           0        3.179626   -0.294360   -0.711698
     17          1           0        2.301094    1.906729    0.360226
     18          1           0        0.082882    1.085666    1.555343
     19          1           0       -1.404611    1.846203    0.029166
 ---------------------------------------------------------------------

 SCF Done:  E(RB3LYP) =  -423.171791737     A.U. after    1 cycles

 The electronic state is 1-A.
 Alpha  occ. eigenvalues --  -19.14714 -19.12020 -10.23310 -10.22596 -10.19170
 Alpha  occ. eigenvalues --  -10.19039 -10.18657 -10.18220 -10.17212  -1.02582
 Alpha  occ. eigenvalues --   -1.00262  -0.88429  -0.76469  -0.70938  -0.66854
 Alpha  occ. eigenvalues --   -0.60174  -0.55241  -0.53944  -0.50961  -0.49448
 Alpha  occ. eigenvalues --   -0.48378  -0.46639  -0.44212  -0.40881  -0.38558
 Alpha  occ. eigenvalues --   -0.38274  -0.35786  -0.35108  -0.32029  -0.31409
 Alpha  occ. eigenvalues --   -0.29228  -0.26795  -0.25402  -0.23545
 Alpha virt. eigenvalues --    0.01534   0.06131   0.10286   0.12624   0.13247
 Alpha virt. eigenvalues --    0.13571   0.14033   0.15960   0.16605   0.16849
 Alpha virt. eigenvalues --    0.18009   0.18956   0.20419   0.22735   0.23169

 Mulliken charges:
               1
     1  O   -0.430031
     2  C   -0.200386
     3  C    0.329487
     4  C   -0.323078
     5  C   -0.137108
     6  C   -0.071387
     7  C   -0.097304
     8  C    0.028795
     9  O   -0.447530
    10  H    0.290731
    11  H    0.090232
    12  H    0.107021
    13  H    0.112538
    14  H    0.106845
    15  H    0.084768
    16  H    0.098049
    17  H    0.099179
    18  H    0.075343
    19  H    0.283837
 Sum of Mulliken charges =   0.00000

 Dipole moment (field-independent basis, Debye):
    X=             -1.1716    Y=             -1.7604    Z=             -0.4782  Tot=              2.1680
 Quadrupole moment (field-independent basis, Debye-Ang):
   XX=            -44.5852   YY=            -55.1777   ZZ=            -53.5189
   XY=              0.4510   XZ=              2.9911   YZ=              3.0039

  Exact polarizability:  85.859  -0.672  81.243  -1.567   3.740  61.711
 Approx polarizability: 116.514  -6.344 126.169  -6.144   8.369  98.782

                      1                      2                      3
                      A                      A                      A
 Frequencies --    119.5865               134.4167               208.8632
 Red. masses --      4.3161                 3.9837                 4.2252
 Frc consts  --      0.0364                 0.0424                 0.1086
 IR Inten    --      3.8677                 3.7463                 1.7367

                      4                      5                      6
                      A                      A                      A
 Frequencies --    274.8143               329.7803               340.8917
 Red. masses --      2.6660                 1.1872                 2.6650
 Frc consts  --      0.1186                 0.0761                 0.1825
 IR Inten    --     22.8016                80.5777                 5.3318

                      7                      8                      9
                      A                      A                      A
 Frequencies --    379.6434               399.6126               449.3385
 Red. masses --      3.2973                 3.2054                 2.7455
 Frc consts  --      0.2800                 0.3016                 0.3266
 IR Inten    --     11.6750                 1.2057                 4.7058

                     10                     11                     12
                      A                      A                      A
 Frequencies --    536.2063               589.3108               657.1639
 Red. masses --      1.1356                 3.4247                 3.2126
 Frc consts  --      0.1924                 0.7007                 0.8174
 IR Inten    --    119.0099                11.7524                 2.1747

                     13                     14                     15
                      A                      A                      A
 Frequencies --    747.9267               770.1798               808.1850
 Red. masses --      1.7859                 5.0424                 2.0896
 Frc consts  --      0.5886                 1.7623                 0.8041
 IR Inten    --      8.3525                 0.2289                13.0003

                     16                     17                     18
                      A                      A                      A
 Frequencies --    860.4540               897.4427               915.8923
 Red. masses --      2.0316                 2.6617                 1.9466
 Frc consts  --      0.8862                 1.2631                 0.9621
 IR Inten    --     18.8552                 6.4730                 5.0917

                     19                     20                     21
                      A                      A                      A
 Frequencies --    960.1726               966.7424              1003.8811
 Red. masses --      1.3918                 1.4775                 3.2144
 Frc consts  --      0.7560                 0.8136                 1.9086
 IR Inten    --     10.1030                 0.9852                 5.8430

                     22                     23                     24
                      A                      A                      A
 Frequencies --   1016.9093              1052.2257              1063.8594
 Red. masses --      2.5211                 2.3682                 1.5502
 Frc consts  --      1.5360                 1.5449                 1.0338
 IR Inten    --     12.9233                34.4179                 4.9272

                     25                     26                     27
                      A                      A                      A
 Frequencies --   1074.5882              1088.8477              1096.0539
 Red. masses --      1.4429                 1.7730                 2.6182
 Frc consts  --      0.9817                 1.2385                 1.8532
 IR Inten    --      2.6692                 7.0720                78.3346

                     28                     29                     30
                      A                      A                      A
 Frequencies --   1147.2816              1210.2267              1232.5777
 Red. masses --      1.3972                 1.3160                 1.2908
 Frc consts  --      1.0835                 1.1357                 1.1554
 IR Inten    --     26.5743                33.1697                16.1954

                     31                     32                     33
                      A                      A                      A
 Frequencies --   1249.7415              1274.8486              1303.1867
 Red. masses --      1.2920                 1.4008                 1.5280
 Frc consts  --      1.1889                 1.3414                 1.5290
 IR Inten    --     54.4178                17.1785                 6.0208

                     34                     35                     36
                      A                      A                      A
 Frequencies --   1345.8635              1360.3710              1393.7259
 Red. masses --      1.3660                 1.6320                 2.0884
 Frc consts  --      1.4578                 1.7795                 2.3901
 IR Inten    --     29.4147                23.9578                 4.2229

                     37                     38                     39
                      A                      A                      A
 Frequencies --   1432.1706              1466.1194              1483.4287
 Red. masses --      1.4501                 1.3877                 1.5800
 Frc consts  --      1.7524                 1.7574                 2.0486
 IR Inten    --     15.9873                15.4393                 4.6286

                     40                     41                     42
                      A                      A                      A
 Frequencies --   1511.9620              1667.3631              2964.6520
 Red. masses --      1.0815                 6.4032                 1.0820
 Frc consts  --      1.4567                10.4884                 5.6032
 IR Inten    --      3.5139                 3.9982                47.7573

                     43                     44                     45
                      A                      A                      A
 Frequencies --   2990.1907              3029.8194              3113.7215
 Red. masses --      1.0571                 1.1055                 1.0535
 Frc consts  --      5.5689                 5.9794                 6.0180
 IR Inten    --     46.0281                37.3455                21.0573

                     46                     47                     48
                      A                      A                      A
 Frequencies --   3157.0840              3187.9551              3202.5564
 Red. masses --      1.0897                 1.0863                 1.1165
 Frc consts  --      6.3993                 6.5044                 6.7472
 IR Inten    --     16.1950                11.1571                13.4942

                     49                     50                     51
                      A                      A                      A
 Frequencies --   3215.4085              3759.9042              3821.2080
 Red. masses --      1.1031                 1.0653                 1.0663
 Frc consts  --      6.7194                 8.8728                 9.1732
 IR Inten    --     17.9064                55.0486                19.7161

 - Thermochemistry -
 -------------------
 Temperature   298.150 Kelvin.  Pressure   1.00000 Atm.
 Atom     1 has atomic number  8 and mass  15.99491

 Molecular mass:   126.06808 amu.
 Principal axes and moments of inertia in atomic units:
                           1         2         3
     Eigenvalues --   701.671581103.520171561.69213
           X            0.99985   0.01037   0.01353
           Y           -0.01060   0.99980   0.01700
           Z           -0.01336  -0.01714   0.99976
 This molecule is an asymmetric top.
 Rotational symmetry number  1.
 Warning -- assumption of classical behavior for rotation
           may cause significant error
 Rotational temperatures (Kelvin)      0.12344     0.07849     0.05546
 Rotational constants (GHZ):           2.57206     1.63544     1.15563
 Zero-point vibrational energy     420274.2 (Joules/Mol)
                                  100.44794 (Kcal/Mol)
 Warning -- explicit consideration of  11 degrees of freedom as
           vibrations may cause significant error
 Vibrational temperatures:    172.06   193.40   300.51   395.40   474.48
          (Kelvin)            490.47   546.22   574.95   646.50   771.48
                              847.89   945.51  1076.10  1108.12  1162.80
                             1238.00  1291.22  1317.76  1381.47  1390.92
                             1444.36  1463.10  1513.92  1530.65  1546.09
                             1566.61  1576.98  1650.68  1741.24  1773.40
                             1798.10  1834.22  1874.99  1936.39  1957.27
                             2005.26  2060.57  2109.42  2134.32  2175.37
                             2398.96  4265.47  4302.21  4359.23  4479.95
                             4542.33  4586.75  4607.76  4626.25  5409.66
                             5497.86

 Zero-point correction=                           0.160074 (Hartree/Particle)
 Thermal correction to Energy=                    0.168289
 Thermal correction to Enthalpy=                  0.169233
 Thermal correction to Gibbs Free Energy=         0.127669
 Sum of electronic and zero-point Energies=           -423.011718
 Sum of electronic and thermal Energies=              -423.003503
 Sum of electronic and thermal Enthalpies=            -423.002559
 Sum of electronic and thermal Free Energies=         -423.044123

                     E (Thermal)             CV                S
                      KCal/Mol        Cal/Mol-Kelvin    Cal/Mol-Kelvin
 Total                  105.603             32.589             87.478
 Electronic               0.000              0.000              0.000
 Translational            0.889              2.981             40.409
 Rotational               0.889              2.981             28.582
 Vibrational            103.825             26.628             18.487
 Vibration     1          0.609              1.933              3.107
 Vibration     2          0.613              1.919              2.882
 Vibration     3          0.642              1.827              2.054
 Vibration     4          0.677              1.720              1.566
 Vibration     5          0.713              1.616              1.261
 Vibration     6          0.720              1.594              1.208
 Vibration     7          0.750              1.514              1.041
 Vibration     8          0.766              1.471              0.964
 Vibration     9          0.808              1.362              0.798
 Vibration    10          0.891              1.170              0.574
 Vibration    11          0.947              1.055              0.468

 Optimization completed.
    -- Stationary point found.
 Normal termination of Gaussian 09 at Tue Jan 28 11:48:31 2020.
