 Gaussian 09, Revision D.01,
 Gaussian 09:  ES64L-G09RevD.01 24-Apr-2013

 -----------------------------
 # b3lyp 6-31G(2df,p) opt Freq
 -----------------------------

 -----
 titel
 -----
 Symbolic Z-matrix:
 Charge =  0 Multiplicity = 1

 SCF Done:  E(RB3LYP) =  -423.111604162     A.U. after   14 cycles
 Optimization completed.
    -- Stationary point found.
 Normal termination of Gaussian 09 at Tue Jan 28 08:21:22 2020.

 ----------------------------------------------------------------------
 #N Geom=AllCheck Guess=TCheck SCRF=Check GenChk RB3LYP/6-31G(2df,p) Fr
 eq
 ----------------------------------------------------------------------

 Structure from the checkpoint file:  "/scratch/puck/g09_5f980fe9-28f2-4b6b-895c-260c99ecbe3f/Gau-59940.chk"
 -----
 titel
 -----
 Charge =  0 Multiplicity = 1

                         Standard orientation:
 ---------------------------------------------------------------------
 Center     Atomic      Atomic             Coordinates (Angstroms)
 Number     Number       Type             X           Y           Z
 ---------------------------------------------------------------------
      1          6           0       -2.342071   -1.409804   -0.017226
      2          8           0       -1.032228   -1.099557    0.415592
      3          6           0       -0.379183   -0.116737   -0.371252
      4          6           0       -1.035348    1.196347   -0.289611
      5          6           0       -1.577579    2.266714   -0.217774
      6          6           0        1.070247   -0.059274    0.115645
      7          6           0        1.279155    0.371154    1.546314
      8          6           0        2.044652   -0.915346   -0.571469
      9          8           0        1.966868    0.486707   -0.854365
     10          1           0       -2.343744   -1.789114   -1.050695
     11          1           0       -2.717444   -2.190020    0.648342
     12          1           0       -3.006240   -0.537418    0.036513
     13          1           0       -0.362125   -0.426803   -1.428782
     14          1           0       -2.050581    3.216230   -0.161070
     15          1           0        0.743290   -0.301724    2.221037
     16          1           0        2.342671    0.359116    1.795284
     17          1           0        0.896298    1.384534    1.698844
     18          1           0        2.939852   -1.235663   -0.040912
     19          1           0        1.721665   -1.574674   -1.376137
 ---------------------------------------------------------------------

 SCF Done:  E(RB3LYP) =  -423.111604162     A.U. after    1 cycles

 The electronic state is 1-A.
 Alpha  occ. eigenvalues --  -19.15200 -19.15083 -10.26152 -10.24695 -10.23254
 Alpha  occ. eigenvalues --  -10.22792 -10.18620 -10.18231 -10.17665  -1.07386
 Alpha  occ. eigenvalues --   -1.04310  -0.79278  -0.74245  -0.71333  -0.66248
 Alpha  occ. eigenvalues --   -0.66080  -0.58018  -0.53568  -0.50578  -0.50180
 Alpha  occ. eigenvalues --   -0.49576  -0.46297  -0.43766  -0.41983  -0.41135
 Alpha  occ. eigenvalues --   -0.39511  -0.37345  -0.36433  -0.33546  -0.30086
 Alpha  occ. eigenvalues --   -0.28248  -0.27804  -0.26991  -0.26300
 Alpha virt. eigenvalues --    0.02891   0.04314   0.09925   0.10791   0.11844
 Alpha virt. eigenvalues --    0.12290   0.12805   0.13703   0.14988   0.15852
 Alpha virt. eigenvalues --    0.16517   0.16978   0.17294   0.19221   0.21221

 Mulliken charges:
               1
     1  C   -0.236239
     2  O   -0.236516
     3  C   -0.124695
     4  C    0.345567
     5  C   -0.467156
     6  C    0.411481
     7  C   -0.470503
     8  C   -0.230133
     9  O   -0.278445
    10  H    0.106089
    11  H    0.130177
    12  H    0.123946
    13  H    0.096827
    14  H    0.202123
    15  H    0.140221
    16  H    0.122176
    17  H    0.137645
    18  H    0.115032
    19  H    0.112405
 Sum of Mulliken charges =   0.00000

 Dipole moment (field-independent basis, Debye):
    X=             -1.1724    Y=             -0.9785    Z=              0.2462  Tot=              1.5468
 Quadrupole moment (field-independent basis, Debye-Ang):
   XX=            -50.2814   YY=            -49.4710   ZZ=            -54.0666
   XY=             -3.9615   XZ=              2.7214   YZ=              2.8421

  Exact polarizability:  83.644 -10.013  85.545  -0.754   3.802  63.752
 Approx polarizability: 109.579 -19.065 133.270  -4.329   2.733  93.868

                      1                      2                      3
                      A                      A                      A
 Frequencies --     57.2907               102.7100               135.5245
 Red. masses --      3.7308                 2.5330                 3.9909
 Frc consts  --      0.0072                 0.0157                 0.0432
 IR Inten    --      1.0303                 3.1282                 1.1203

                      4                      5                      6
                      A                      A                      A
 Frequencies --    171.8086               176.3401               189.9596
 Red. masses --      2.1079                 1.4987                 1.3056
 Frc consts  --      0.0367                 0.0275                 0.0278
 IR Inten    --      2.5094                 0.1906                 1.1149

                      7                      8                      9
                      A                      A                      A
 Frequencies --    242.0219               321.6822               339.2275
 Red. masses --      2.1637                 3.1496                 3.6574
 Frc consts  --      0.0747                 0.1920                 0.2480
 IR Inten    --      4.3209                 0.4434                 1.6423

                     10                     11                     12
                      A                      A                      A
 Frequencies --    362.8258               390.1030               480.8588
 Red. masses --      3.0193                 3.8891                 3.6922
 Frc consts  --      0.2342                 0.3487                 0.5030
 IR Inten    --      8.0261                 1.1506                 2.0831

                     13                     14                     15
                      A                      A                      A
 Frequencies --    538.7810               594.3803               636.2777
 Red. masses --      4.3815                 6.5268                 1.2389
 Frc consts  --      0.7494                 1.3586                 0.2955
 IR Inten    --      9.1855                 7.8684                40.7231

                     16                     17                     18
                      A                      A                      A
 Frequencies --    675.1291               781.0378               857.2422
 Red. masses --      1.2583                 3.5452                 3.4179
 Frc consts  --      0.3379                 1.2742                 1.4799
 IR Inten    --     33.0744                 5.2755                19.9611

                     19                     20                     21
                      A                      A                      A
 Frequencies --    900.1742               926.1579               973.5051
 Red. masses --      2.4206                 1.9402                 4.0517
 Frc consts  --      1.1556                 0.9805                 2.2624
 IR Inten    --     14.0524                 6.2687                23.6794

                     22                     23                     24
                      A                      A                      A
 Frequencies --   1010.6017              1044.2876              1113.1825
 Red. masses --      2.4129                 1.9016                 1.7523
 Frc consts  --      1.4519                 1.2218                 1.2794
 IR Inten    --     15.0987                26.5287                 3.2441

                     25                     26                     27
                      A                      A                      A
 Frequencies --   1132.7485              1139.2006              1164.4716
 Red. masses --      2.1494                 2.4694                 1.4206
 Frc consts  --      1.6249                 1.8881                 1.1350
 IR Inten    --     58.3800               123.7137                 8.0839

                     28                     29                     30
                      A                      A                      A
 Frequencies --   1184.4411              1213.4937              1282.9202
 Red. masses --      1.2805                 1.5206                 1.8194
 Frc consts  --      1.0584                 1.3193                 1.7643
 IR Inten    --      2.2540                21.8328                12.2234

                     31                     32                     33
                      A                      A                      A
 Frequencies --   1302.0736              1344.1709              1401.4355
 Red. masses --      2.3652                 1.2174                 1.4035
 Frc consts  --      2.3626                 1.2960                 1.6241
 IR Inten    --      8.0523                21.0724                10.5662

                     34                     35                     36
                      A                      A                      A
 Frequencies --   1430.0898              1476.5711              1480.6944
 Red. masses --      1.9213                 1.1199                 1.0680
 Frc consts  --      2.3151                 1.4386                 1.3796
 IR Inten    --     13.7817                 1.4618                 2.1225

                     37                     38                     39
                      A                      A                      A
 Frequencies --   1484.8987              1500.7085              1510.7312
 Red. masses --      1.0475                 1.0710                 1.0543
 Frc consts  --      1.3608                 1.4212                 1.4177
 IR Inten    --      4.2778                 3.5081                 8.2128

                     40                     41                     42
                      A                      A                      A
 Frequencies --   1534.2427              2229.6752              2971.9797
 Red. masses --      1.4113                 5.8870                 1.0805
 Frc consts  --      1.9573                17.2436                 5.6230
 IR Inten    --      4.7081                 3.5078                25.6132

                     43                     44                     45
                      A                      A                      A
 Frequencies --   2986.3999              3050.2007              3050.6888
 Red. masses --      1.0417                 1.0421                 1.0883
 Frc consts  --      5.4740                 5.7126                 5.9675
 IR Inten    --     60.1093                 6.3718                40.1425

                     46                     47                     48
                      A                      A                      A
 Frequencies --   3083.5821              3122.0867              3124.1020
 Red. masses --      1.0508                 1.1008                 1.0987
 Frc consts  --      5.8870                 6.3217                 6.3180
 IR Inten    --     24.5349                11.1407                23.8406

                     49                     50                     51
                      A                      A                      A
 Frequencies --   3134.1822              3170.3555              3500.6129
 Red. masses --      1.1027                 1.1193                 1.1627
 Frc consts  --      6.3818                 6.6282                 8.3947
 IR Inten    --     13.2757                23.6964                61.3704

 - Thermochemistry -
 -------------------
 Temperature   298.150 Kelvin.  Pressure   1.00000 Atm.
 Atom     1 has atomic number  6 and mass  12.00000

 Molecular mass:   126.06808 amu.
 Principal axes and moments of inertia in atomic units:
                           1         2         3
     Eigenvalues --   820.272061373.341431717.61849
           X            0.99968   0.00360   0.02497
           Y           -0.00489   0.99864   0.05189
           Z           -0.02475  -0.05200   0.99834
 This molecule is an asymmetric top.
 Rotational symmetry number  1.
 Warning -- assumption of classical behavior for rotation
           may cause significant error
 Rotational temperatures (Kelvin)      0.10559     0.06307     0.05043
 Rotational constants (GHZ):           2.20017     1.31412     1.05072
 Zero-point vibrational energy     406897.0 (Joules/Mol)
                                   97.25072 (Kcal/Mol)
 Warning -- explicit consideration of  14 degrees of freedom as
           vibrations may cause significant error
 Vibrational temperatures:     82.43   147.78   194.99   247.19   253.71
          (Kelvin)            273.31   348.22   462.83   488.07   522.02
                              561.27   691.85   775.18   855.18   915.46
                              971.36  1123.74  1233.38  1295.15  1332.53
                             1400.66  1454.03  1502.50  1601.62  1629.77
                             1639.05  1675.41  1704.14  1745.94  1845.83
                             1873.39  1933.96  2016.35  2057.58  2124.45
                             2130.39  2136.44  2159.18  2173.60  2207.43
                             3208.00  4276.01  4296.76  4388.55  4389.26
                             4436.58  4491.98  4494.88  4509.38  4561.43
                             5036.59

 Zero-point correction=                           0.154979 (Hartree/Particle)
 Thermal correction to Energy=                    0.165159
 Thermal correction to Enthalpy=                  0.166103
 Thermal correction to Gibbs Free Energy=         0.119744
 Sum of electronic and zero-point Energies=           -422.956625
 Sum of electronic and thermal Energies=              -422.946445
 Sum of electronic and thermal Enthalpies=            -422.945501
 Sum of electronic and thermal Free Energies=         -422.991861

                     E (Thermal)             CV                S
                      KCal/Mol        Cal/Mol-Kelvin    Cal/Mol-Kelvin
 Total                  103.639             36.599             97.572
 Electronic               0.000              0.000              0.000
 Translational            0.889              2.981             40.409
 Rotational               0.889              2.981             29.049
 Vibrational            101.861             30.637             28.114
 Vibration     1          0.596              1.975              4.548
 Vibration     2          0.605              1.947              3.402
 Vibration     3          0.613              1.918              2.866
 Vibration     4          0.626              1.877              2.416
 Vibration     5          0.628              1.872              2.367
 Vibration     6          0.633              1.854              2.228
 Vibration     7          0.658              1.776              1.788
 Vibration     8          0.707              1.632              1.302
 Vibration     9          0.719              1.597              1.216
 Vibration    10          0.737              1.549              1.110
 Vibration    11          0.758              1.491              1.000
 Vibration    12          0.837              1.293              0.708
 Vibration    13          0.894              1.164              0.568
 Vibration    14          0.952              1.044              0.459

 Optimization completed.
    -- Stationary point found.
 Normal termination of Gaussian 09 at Tue Jan 28 10:15:43 2020.
