 Gaussian 09, Revision D.01,
 Gaussian 09:  ES64L-G09RevD.01 24-Apr-2013

 -----------------------------
 # b3lyp 6-31G(2df,p) opt Freq
 -----------------------------

 -----
 titel
 -----
 Symbolic Z-matrix:
 Charge =  0 Multiplicity = 1

 SCF Done:  E(RB3LYP) =  -423.154782664     A.U. after   14 cycles
 Optimization completed.
    -- Stationary point found.
 Normal termination of Gaussian 09 at Mon Jan 27 15:53:21 2020.

 ----------------------------------------------------------------------
 #N Geom=AllCheck Guess=TCheck SCRF=Check GenChk RB3LYP/6-31G(2df,p) Fr
 eq
 ----------------------------------------------------------------------

 Structure from the checkpoint file:  "/scratch/puck/g09_c9393157-6773-4c2e-aaf5-09a58c26203b/Gau-10118.chk"
 -----
 titel
 -----
 Charge =  0 Multiplicity = 1

                         Standard orientation:
 ---------------------------------------------------------------------
 Center     Atomic      Atomic             Coordinates (Angstroms)
 Number     Number       Type             X           Y           Z
 ---------------------------------------------------------------------
      1          6           0        2.235084    1.701783    0.212388
      2          6           0        1.334570    0.466800    0.402886
      3          6           0       -0.129286    0.775948    0.011801
      4          6           0       -1.035293   -0.460672    0.024038
      5          8           0       -0.942301   -1.218798    1.221347
      6          6           0       -2.502563   -0.098305   -0.155022
      7          8           0       -2.896477    0.846282   -0.787906
      8          6           0        1.858758   -0.693847   -0.319564
      9          6           0        2.270362   -1.660407   -0.906948
     10          1           0        1.840672    2.546428    0.785374
     11          1           0        3.254228    1.498997    0.551165
     12          1           0        2.277275    1.991374   -0.841667
     13          1           0        1.331583    0.209373    1.469990
     14          1           0       -0.518144    1.521389    0.713703
     15          1           0       -0.172342    1.223349   -0.986106
     16          1           0       -0.777209   -1.092085   -0.842642
     17          1           0       -0.174917   -1.794536    1.141504
     18          1           0       -3.192800   -0.808286    0.351767
     19          1           0        2.652087   -2.503670   -1.428089
 ---------------------------------------------------------------------

 SCF Done:  E(RB3LYP) =  -423.154782664     A.U. after    1 cycles

 The electronic state is 1-A.
 Alpha  occ. eigenvalues --  -19.14985 -19.14381 -10.27048 -10.24449 -10.22255
 Alpha  occ. eigenvalues --  -10.19434 -10.19279 -10.18889 -10.18426  -1.05258
 Alpha  occ. eigenvalues --   -1.03092  -0.83063  -0.75731  -0.73470  -0.67642
 Alpha  occ. eigenvalues --   -0.62541  -0.56546  -0.53553  -0.52556  -0.48923
 Alpha  occ. eigenvalues --   -0.48112  -0.46176  -0.43722  -0.41235  -0.39840
 Alpha  occ. eigenvalues --   -0.38882  -0.38168  -0.36652  -0.36142  -0.34676
 Alpha  occ. eigenvalues --   -0.28798  -0.27733  -0.27464  -0.25287
 Alpha virt. eigenvalues --   -0.02724   0.04045   0.04436   0.07440   0.10415
 Alpha virt. eigenvalues --    0.11846   0.12102   0.13014   0.14499   0.15723
 Alpha virt. eigenvalues --    0.17166   0.17731   0.18859   0.20739   0.21475

 Mulliken charges:
               1
     1  C   -0.393713
     2  C   -0.160394
     3  C   -0.190104
     4  C    0.004994
     5  O   -0.440060
     6  C    0.154812
     7  O   -0.248348
     8  C    0.330448
     9  C   -0.495967
    10  H    0.121361
    11  H    0.127189
    12  H    0.130050
    13  H    0.116789
    14  H    0.113471
    15  H    0.123176
    16  H    0.111979
    17  H    0.298311
    18  H    0.092729
    19  H    0.203279
 Sum of Mulliken charges =   0.00000

 Dipole moment (field-independent basis, Debye):
    X=              2.3500    Y=             -1.2932    Z=              0.2704  Tot=              2.6960
 Quadrupole moment (field-independent basis, Debye-Ang):
   XX=            -59.1112   YY=            -49.8064   ZZ=            -54.5652
   XY=              2.5305   XZ=             -1.7276   YZ=              3.9550

  Exact polarizability:  85.984  -5.915  83.924  -3.435   4.720  64.021
 Approx polarizability: 107.648 -17.040 130.652  -6.351   8.704 104.501

                      1                      2                      3
                      A                      A                      A
 Frequencies --     30.1980                81.6030               106.3379
 Red. masses --      5.6383                 3.8072                 2.7537
 Frc consts  --      0.0030                 0.0149                 0.0183
 IR Inten    --      3.1376                 6.7708                 1.7703

                      4                      5                      6
                      A                      A                      A
 Frequencies --    123.8173               174.6949               215.6973
 Red. masses --      3.5916                 3.6354                 1.5660
 Frc consts  --      0.0324                 0.0654                 0.0429
 IR Inten    --      2.3971                 3.6263                 0.5175

                      7                      8                      9
                      A                      A                      A
 Frequencies --    254.2385               265.3812               310.2984
 Red. masses --      2.0079                 2.8414                 3.5868
 Frc consts  --      0.0765                 0.1179                 0.2035
 IR Inten    --      2.2369                 4.1718                 4.2849

                     10                     11                     12
                      A                      A                      A
 Frequencies --    363.9838               422.3505               464.9812
 Red. masses --      1.1299                 2.6937                 2.8756
 Frc consts  --      0.0882                 0.2831                 0.3663
 IR Inten    --     83.2103                 9.6565                13.0112

                     13                     14                     15
                      A                      A                      A
 Frequencies --    527.2421               563.9822               622.9203
 Red. masses --      3.5988                 5.5484                 2.0837
 Frc consts  --      0.5894                 1.0398                 0.4764
 IR Inten    --      1.3693                10.7416                28.3764

                     16                     17                     18
                      A                      A                      A
 Frequencies --    633.8616               648.5008               775.0748
 Red. masses --      1.7639                 1.2231                 2.6440
 Frc consts  --      0.4175                 0.3031                 0.9358
 IR Inten    --     26.9596                46.1032                 0.5668

                     19                     20                     21
                      A                      A                      A
 Frequencies --    833.3785               884.9777               956.2791
 Red. masses --      2.7426                 1.4562                 1.8719
 Frc consts  --      1.1222                 0.6720                 1.0086
 IR Inten    --      8.3900                 2.0786                 0.4795

                     22                     23                     24
                      A                      A                      A
 Frequencies --   1001.6608              1023.5780              1073.8502
 Red. masses --      1.6497                 2.3284                 2.8730
 Frc consts  --      0.9752                 1.4373                 1.9520
 IR Inten    --      3.7386                53.2344                 4.9784

                     25                     26                     27
                      A                      A                      A
 Frequencies --   1115.1118              1138.4123              1160.8125
 Red. masses --      2.0142                 3.7216                 2.1995
 Frc consts  --      1.4757                 2.8417                 1.7462
 IR Inten    --      5.9472                33.3484                19.4478

                     28                     29                     30
                      A                      A                      A
 Frequencies --   1225.3205              1237.3548              1292.0812
 Red. masses --      1.2595                 1.2112                 1.2899
 Frc consts  --      1.1141                 1.0926                 1.2688
 IR Inten    --      3.7557                41.9953                10.9075

                     31                     32                     33
                      A                      A                      A
 Frequencies --   1331.7757              1355.9040              1371.5528
 Red. masses --      1.3147                 1.3427                 1.2966
 Frc consts  --      1.3739                 1.4544                 1.4371
 IR Inten    --      6.3726                 1.7892                20.2835

                     34                     35                     36
                      A                      A                      A
 Frequencies --   1391.7212              1410.2023              1425.0314
 Red. masses --      1.3358                 1.2166                 1.4078
 Frc consts  --      1.5244                 1.4254                 1.6843
 IR Inten    --     23.6080                 0.6081                 2.6753

                     37                     38                     39
                      A                      A                      A
 Frequencies --   1475.5231              1493.0149              1499.7318
 Red. masses --      1.0965                 1.0448                 1.0523
 Frc consts  --      1.4066                 1.3722                 1.3945
 IR Inten    --      1.8555                 5.8827                 2.2140

                     40                     41                     42
                      A                      A                      A
 Frequencies --   1836.0567              2224.6337              2899.0907
 Red. masses --     10.8739                 5.9383                 1.0848
 Frc consts  --     21.5977                17.3153                 5.3718
 IR Inten    --    133.4233                 1.6406               107.4996

                     43                     44                     45
                      A                      A                      A
 Frequencies --   2973.7016              3024.6607              3041.8207
 Red. masses --      1.0799                 1.0812                 1.0354
 Frc consts  --      5.6261                 5.8280                 5.6443
 IR Inten    --     20.3998                 5.4009                16.3589

                     46                     47                     48
                      A                      A                      A
 Frequencies --   3050.6928              3099.7068              3116.4858
 Red. masses --      1.0590                 1.1033                 1.1023
 Frc consts  --      5.8068                 6.2456                 6.3077
 IR Inten    --     19.9497                 9.7633                24.7462

                     49                     50                     51
                      A                      A                      A
 Frequencies --   3122.9833              3500.5809              3820.1007
 Red. masses --      1.1025                 1.1612                 1.0666
 Frc consts  --      6.3353                 8.3836                 9.1706
 IR Inten    --     21.3362                69.1554                37.9060

 - Thermochemistry -
 -------------------
 Temperature   298.150 Kelvin.  Pressure   1.00000 Atm.
 Atom     1 has atomic number  6 and mass  12.00000

 Molecular mass:   126.06808 amu.
 Principal axes and moments of inertia in atomic units:
                           1         2         3
     Eigenvalues --   736.353681848.854802177.72800
           X            0.99942   0.03397  -0.00227
           Y           -0.03387   0.99873   0.03743
           Z            0.00354  -0.03733   0.99930
 This molecule is an asymmetric top.
 Rotational symmetry number  1.
 Warning -- assumption of classical behavior for rotation
           may cause significant error
 Rotational temperatures (Kelvin)      0.11763     0.04685     0.03977
 Rotational constants (GHZ):           2.45092     0.97614     0.82873
 Zero-point vibrational energy     406688.2 (Joules/Mol)
                                   97.20081 (Kcal/Mol)
 Warning -- explicit consideration of  14 degrees of freedom as
           vibrations may cause significant error
 Vibrational temperatures:     43.45   117.41   153.00   178.15   251.35
          (Kelvin)            310.34   365.79   381.82   446.45   523.69
                              607.67   669.00   758.58   811.44   896.24
                              911.98   933.05  1115.16  1199.04  1273.28
                             1375.87  1441.16  1472.70  1545.03  1604.40
                             1637.92  1670.15  1762.96  1780.28  1859.01
                             1916.13  1950.84  1973.36  2002.37  2028.96
                             2050.30  2122.95  2148.11  2157.78  2641.67
                             3200.75  4171.14  4278.49  4351.81  4376.50
                             4389.26  4459.78  4483.92  4493.27  5036.55
                             5496.27

 Zero-point correction=                           0.154899 (Hartree/Particle)
 Thermal correction to Energy=                    0.165505
 Thermal correction to Enthalpy=                  0.166449
 Thermal correction to Gibbs Free Energy=         0.118290
 Sum of electronic and zero-point Energies=           -422.999883
 Sum of electronic and thermal Energies=              -422.989278
 Sum of electronic and thermal Enthalpies=            -422.988334
 Sum of electronic and thermal Free Energies=         -423.036493

                     E (Thermal)             CV                S
                      KCal/Mol        Cal/Mol-Kelvin    Cal/Mol-Kelvin
 Total                  103.856             37.570            101.359
 Electronic               0.000              0.000              0.000
 Translational            0.889              2.981             40.409
 Rotational               0.889              2.981             29.473
 Vibrational            102.078             31.608             31.477
 Vibration     1          0.594              1.984              5.816
 Vibration     2          0.600              1.962              3.852
 Vibration     3          0.605              1.944              3.335
 Vibration     4          0.610              1.929              3.040
 Vibration     5          0.627              1.874              2.384
 Vibration     6          0.645              1.817              1.995
 Vibration     7          0.665              1.756              1.701
 Vibration     8          0.671              1.737              1.626
 Vibration     9          0.699              1.654              1.361
 Vibration    10          0.738              1.546              1.105
 Vibration    11          0.785              1.422              0.884
 Vibration    12          0.822              1.328              0.752
 Vibration    13          0.882              1.190              0.593
 Vibration    14          0.920              1.109              0.516

 Optimization completed.
    -- Stationary point found.
 Normal termination of Gaussian 09 at Mon Jan 27 17:33:03 2020.
