 Gaussian 09, Revision D.01,
 Gaussian 09:  ES64L-G09RevD.01 24-Apr-2013

 -----------------------------
 # b3lyp 6-31G(2df,p) opt Freq
 -----------------------------

 -----
 titel
 -----
 Symbolic Z-matrix:
 Charge =  0 Multiplicity = 1

 SCF Done:  E(RB3LYP) =  -423.163417646     A.U. after   14 cycles
 SCF Done:  E(RB3LYP) =  -423.163417419     A.U. after    9 cycles
 SCF Done:  E(RB3LYP) =  -423.163417644     A.U. after    7 cycles
 SCF Done:  E(RB3LYP) =  -423.163417518     A.U. after    8 cycles
 SCF Done:  E(RB3LYP) =  -423.163417811     A.U. after    8 cycles
 Optimization completed.
    -- Stationary point found.
 Normal termination of Gaussian 09 at Mon Jan 27 14:14:07 2020.

 ----------------------------------------------------------------------
 #N Geom=AllCheck Guess=TCheck SCRF=Check GenChk RB3LYP/6-31G(2df,p) Fr
 eq
 ----------------------------------------------------------------------

 Structure from the checkpoint file:  "/scratch/puck/g09_e9b287a1-2293-4b13-8fda-a8e64d647211/Gau-49800.chk"
 -----
 titel
 -----
 Charge =  0 Multiplicity = 1

                         Standard orientation:
 ---------------------------------------------------------------------
 Center     Atomic      Atomic             Coordinates (Angstroms)
 Number     Number       Type             X           Y           Z
 ---------------------------------------------------------------------
      1          6           0        3.629279    0.387936   -0.126277
      2          6           0        2.265800   -0.084662    0.060401
      3          6           0        1.138509   -0.474980    0.229215
      4          6           0       -0.243278   -0.934508    0.374532
      5          8           0       -0.425855   -2.251131   -0.138461
      6          6           0       -1.239908    0.069114   -0.270729
      7          6           0       -2.689804   -0.406355   -0.079388
      8          6           0       -1.078878    1.442671    0.351051
      9          8           0       -0.938295    2.469386   -0.260074
     10          1           0        3.649200    1.330085   -0.684181
     11          1           0        4.124557    0.556718    0.835905
     12          1           0        4.225814   -0.343132   -0.682694
     13          1           0       -0.489662   -1.018244    1.441625
     14          1           0        0.004809   -2.283615   -1.000040
     15          1           0       -1.005658    0.162252   -1.336510
     16          1           0       -3.384127    0.226137   -0.638691
     17          1           0       -2.786290   -1.437753   -0.424529
     18          1           0       -2.978324   -0.376617    0.978024
     19          1           0       -1.137438    1.442837    1.466535
 ---------------------------------------------------------------------

 SCF Done:  E(RB3LYP) =  -423.163417811     A.U. after    1 cycles

 The electronic state is 1-A.
 Alpha  occ. eigenvalues --  -19.15035 -19.13763 -10.26910 -10.26515 -10.21149
 Alpha  occ. eigenvalues --  -10.20125 -10.19007 -10.18651 -10.17725  -1.04489
 Alpha  occ. eigenvalues --   -1.03335  -0.81451  -0.78316  -0.73023  -0.67658
 Alpha  occ. eigenvalues --   -0.64239  -0.57573  -0.54160  -0.48788  -0.47319
 Alpha  occ. eigenvalues --   -0.46295  -0.43897  -0.43488  -0.43315  -0.42328
 Alpha  occ. eigenvalues --   -0.41096  -0.38362  -0.36947  -0.36427  -0.35019
 Alpha  occ. eigenvalues --   -0.29604  -0.26618  -0.26150  -0.24472
 Alpha virt. eigenvalues --   -0.02336   0.03436   0.04746   0.09083   0.10503
 Alpha virt. eigenvalues --    0.10604   0.13097   0.14912   0.15397   0.16025
 Alpha virt. eigenvalues --    0.17492   0.17573   0.17926   0.20731   0.21310

 Mulliken charges:
               1
     1  C   -0.501214
     2  C    0.115265
     3  C    0.010937
     4  C   -0.055327
     5  O   -0.418001
     6  C   -0.071074
     7  C   -0.418642
     8  C    0.166275
     9  O   -0.250505
    10  H    0.158535
    11  H    0.154965
    12  H    0.153250
    13  H    0.115636
    14  H    0.285699
    15  H    0.093111
    16  H    0.127998
    17  H    0.143633
    18  H    0.119364
    19  H    0.070095
 Sum of Mulliken charges =   0.00000

 Dipole moment (field-independent basis, Debye):
    X=              1.1927    Y=             -1.2727    Z=             -0.1351  Tot=              1.7495
 Quadrupole moment (field-independent basis, Debye-Ang):
   XX=            -44.1240   YY=            -64.0910   ZZ=            -50.4487
   XY=              2.0177   XZ=             -1.9301   YZ=              4.2209

  Exact polarizability: 105.034   9.122  75.879  -3.281  -0.354  63.544
 Approx polarizability: 140.878  19.072 114.958  -8.469  -6.099  99.216

                      1                      2                      3
                      A                      A                      A
 Frequencies --     20.2962                50.1353                58.0383
 Red. masses --      1.0193                 4.9408                 4.1194
 Frc consts  --      0.0002                 0.0073                 0.0082
 IR Inten    --      0.0125                 2.9324                 3.7826

                      4                      5                      6
                      A                      A                      A
 Frequencies --     93.6818               141.1657               209.7398
 Red. masses --      3.4113                 4.0601                 1.0941
 Frc consts  --      0.0176                 0.0477                 0.0284
 IR Inten    --      2.5112                 0.4962                 0.6343

                      7                      8                      9
                      A                      A                      A
 Frequencies --    220.7010               273.3176               292.7553
 Red. masses --      3.0432                 1.3892                 2.3888
 Frc consts  --      0.0873                 0.0611                 0.1206
 IR Inten    --      2.1447                47.5382                12.1099

                     10                     11                     12
                      A                      A                      A
 Frequencies --    301.5518               339.8652               352.1712
 Red. masses --      2.6488                 2.9839                 3.1718
 Frc consts  --      0.1419                 0.2031                 0.2318
 IR Inten    --     35.4856                 8.8606                31.3140

                     13                     14                     15
                      A                      A                      A
 Frequencies --    409.3833               475.2465               565.6148
 Red. masses --      5.4325                 5.2786                 6.8756
 Frc consts  --      0.5364                 0.7024                 1.2960
 IR Inten    --      2.7692                 1.6264                 6.0582

                     16                     17                     18
                      A                      A                      A
 Frequencies --    572.4638               789.1387               895.4074
 Red. masses --      3.3973                 3.2050                 1.6025
 Frc consts  --      0.6560                 1.1760                 0.7570
 IR Inten    --      6.6911                11.7221                18.8184

                     19                     20                     21
                      A                      A                      A
 Frequencies --    911.5881               949.1306              1039.7277
 Red. masses --      2.4621                 2.0658                 4.3919
 Frc consts  --      1.2055                 1.0964                 2.7973
 IR Inten    --     23.7829                 4.3707               126.6391

                     22                     23                     24
                      A                      A                      A
 Frequencies --   1051.9450              1053.1384              1090.7981
 Red. masses --      1.4300                 1.4046                 2.5510
 Frc consts  --      0.9324                 0.9178                 1.7883
 IR Inten    --      1.8993                 0.6377                11.8840

                     25                     26                     27
                      A                      A                      A
 Frequencies --   1110.9764              1150.8500              1173.8326
 Red. masses --      2.1493                 2.0343                 3.1257
 Frc consts  --      1.5630                 1.5874                 2.5375
 IR Inten    --      1.9946                 5.9192                19.4257

                     28                     29                     30
                      A                      A                      A
 Frequencies --   1234.1428              1287.0217              1307.2869
 Red. masses --      1.3177                 1.4239                 1.4070
 Frc consts  --      1.1825                 1.3896                 1.4168
 IR Inten    --     11.6350                15.4817                 3.1183

                     31                     32                     33
                      A                      A                      A
 Frequencies --   1360.4885              1396.9996              1412.5958
 Red. masses --      1.2967                 1.2022                 1.2620
 Frc consts  --      1.4141                 1.3823                 1.4836
 IR Inten    --      3.2332                 3.3364                17.7415

                     34                     35                     36
                      A                      A                      A
 Frequencies --   1420.3003              1432.2901              1474.8293
 Red. masses --      1.2295                 1.1906                 1.0389
 Frc consts  --      1.4613                 1.4391                 1.3314
 IR Inten    --     58.5073                 7.0822                 6.6655

                     37                     38                     39
                      A                      A                      A
 Frequencies --   1477.3358              1492.9268              1501.9068
 Red. masses --      1.0398                 1.0514                 1.0468
 Frc consts  --      1.3370                 1.3807                 1.3912
 IR Inten    --      6.2123                 6.2885                 6.0876

                     40                     41                     42
                      A                      A                      A
 Frequencies --   1835.3675              2365.2914              2838.9167
 Red. masses --     10.3783                11.8708                 1.0808
 Frc consts  --     20.5979                39.1292                 5.1324
 IR Inten    --    154.4685                22.5608                97.5238

                     43                     44                     45
                      A                      A                      A
 Frequencies --   3019.6252              3031.4191              3035.7475
 Red. masses --      1.0818                 1.0347                 1.0397
 Frc consts  --      5.8120                 5.6021                 5.6455
 IR Inten    --     13.6525                24.0414                21.0353

                     46                     47                     48
                      A                      A                      A
 Frequencies --   3063.0950              3093.8292              3096.1130
 Red. masses --      1.0840                 1.1000                 1.1006
 Frc consts  --      5.9925                 6.2035                 6.2160
 IR Inten    --     16.7923                 7.1442                 6.6893

                     49                     50                     51
                      A                      A                      A
 Frequencies --   3107.4926              3136.8341              3806.2840
 Red. masses --      1.0967                 1.1020                 1.0662
 Frc consts  --      6.2396                 6.3885                 9.1007
 IR Inten    --     23.6213                 5.8243                25.6579

 - Thermochemistry -
 -------------------
 Temperature   298.150 Kelvin.  Pressure   1.00000 Atm.
 Atom     1 has atomic number  6 and mass  12.00000

 Molecular mass:   126.06808 amu.
 Principal axes and moments of inertia in atomic units:
                           1         2         3
     Eigenvalues --   892.271911673.199292446.91173
           X            0.99919   0.03980  -0.00555
           Y           -0.03973   0.99914   0.01167
           Z            0.00601  -0.01144   0.99992
 This molecule is an asymmetric top.
 Rotational symmetry number  1.
 Warning -- assumption of classical behavior for rotation
           may cause significant error
 Rotational temperatures (Kelvin)      0.09707     0.05177     0.03540
 Rotational constants (GHZ):           2.02264     1.07862     0.73756
 Zero-point vibrational energy     405658.5 (Joules/Mol)
                                   96.95470 (Kcal/Mol)
 Warning -- explicit consideration of  16 degrees of freedom as
           vibrations may cause significant error
 Vibrational temperatures:     29.20    72.13    83.50   134.79   203.11
          (Kelvin)            301.77   317.54   393.24   421.21   433.87
                              488.99   506.70   589.01   683.77   813.79
                              823.65  1135.39  1288.29  1311.57  1365.59
                             1495.93  1513.51  1515.23  1569.41  1598.45
                             1655.81  1688.88  1775.65  1851.73  1880.89
                             1957.44  2009.97  2032.41  2043.49  2060.74
                             2121.95  2125.55  2147.99  2160.91  2640.68
                             3403.12  4084.56  4344.56  4361.53  4367.76
                             4407.11  4451.32  4454.61  4470.98  4513.20
                             5476.39

 Zero-point correction=                           0.154507 (Hartree/Particle)
 Thermal correction to Energy=                    0.165814
 Thermal correction to Enthalpy=                  0.166758
 Thermal correction to Gibbs Free Energy=         0.115840
 Sum of electronic and zero-point Energies=           -423.008911
 Sum of electronic and thermal Energies=              -422.997604
 Sum of electronic and thermal Enthalpies=            -422.996660
 Sum of electronic and thermal Free Energies=         -423.047577

                     E (Thermal)             CV                S
                      KCal/Mol        Cal/Mol-Kelvin    Cal/Mol-Kelvin
 Total                  104.050             38.043            107.164
 Electronic               0.000              0.000              0.000
 Translational            0.889              2.981             40.409
 Rotational               0.889              2.981             29.681
 Vibrational            102.272             32.082             37.075
 Vibration     1          0.593              1.986              6.605
 Vibration     2          0.595              1.978              4.812
 Vibration     3          0.596              1.974              4.523
 Vibration     4          0.603              1.954              3.582
 Vibration     5          0.615              1.912              2.788
 Vibration     6          0.642              1.826              2.046
 Vibration     7          0.647              1.810              1.953
 Vibration     8          0.676              1.723              1.575
 Vibration     9          0.688              1.687              1.458
 Vibration    10          0.694              1.671              1.408
 Vibration    11          0.720              1.596              1.213
 Vibration    12          0.729              1.571              1.156
 Vibration    13          0.774              1.450              0.929
 Vibration    14          0.832              1.305              0.723
 Vibration    15          0.921              1.106              0.513
 Vibration    16          0.929              1.091              0.500

 Normal termination of Gaussian 09 at Mon Jan 27 14:49:13 2020.
