 Gaussian 09, Revision D.01,
 Gaussian 09:  ES64L-G09RevD.01 24-Apr-2013

 -----------------------------
 # b3lyp 6-31G(2df,p) opt Freq
 -----------------------------

 -----
 titel
 -----
 Symbolic Z-matrix:
 Charge =  0 Multiplicity = 1

 SCF Done:  E(RB3LYP) =  -423.122467233     A.U. after   14 cycles
 Optimization completed.
    -- Stationary point found.
 Normal termination of Gaussian 09 at Mon Jan 27 14:11:40 2020.

 ----------------------------------------------------------------------
 #N Geom=AllCheck Guess=TCheck SCRF=Check GenChk RB3LYP/6-31G(2df,p) Fr
 eq
 ----------------------------------------------------------------------

 Structure from the checkpoint file:  "/scratch/puck/g09_78be0deb-8964-4055-90b7-c2cf493b2e85/Gau-64266.chk"
 -----
 titel
 -----
 Charge =  0 Multiplicity = 1

                         Standard orientation:
 ---------------------------------------------------------------------
 Center     Atomic      Atomic             Coordinates (Angstroms)
 Number     Number       Type             X           Y           Z
 ---------------------------------------------------------------------
      1          6           0        1.211377    1.848760   -0.349845
      2          6           0        0.744091    0.391960   -0.537259
      3          6           0        1.826802   -0.554211   -0.267626
      4          6           0        2.721852   -1.327995   -0.055974
      5          6           0       -0.493287    0.071283    0.323066
      6          8           0       -0.165985    0.347591    1.657693
      7          6           0       -1.816514    0.652958   -0.246109
      8          8           0       -2.198665   -0.639359   -0.752365
      9          6           0       -1.148947   -1.293005   -0.009497
     10          1           0        1.513711    2.018459    0.684597
     11          1           0        2.059707    2.062450   -1.004075
     12          1           0        0.403805    2.545576   -0.594978
     13          1           0        0.430449    0.255527   -1.581087
     14          1           0        3.512868   -2.010335    0.134207
     15          1           0       -0.916650    0.114683    2.213767
     16          1           0       -2.497381    1.011573    0.540670
     17          1           0       -1.754144    1.408886   -1.036980
     18          1           0       -1.532731   -1.814188    0.880545
     19          1           0       -0.574678   -1.996989   -0.619828
 ---------------------------------------------------------------------

 SCF Done:  E(RB3LYP) =  -423.122467233     A.U. after    1 cycles

 The electronic state is 1-A.
 Alpha  occ. eigenvalues --  -19.15180 -19.13979 -10.25179 -10.23303 -10.23050
 Alpha  occ. eigenvalues --  -10.21707 -10.18103 -10.17909 -10.17003  -1.05543
 Alpha  occ. eigenvalues --   -1.02655  -0.81724  -0.73080  -0.71293  -0.69749
 Alpha  occ. eigenvalues --   -0.63894  -0.58289  -0.53592  -0.52221  -0.49745
 Alpha  occ. eigenvalues --   -0.47173  -0.45038  -0.43209  -0.41450  -0.40180
 Alpha  occ. eigenvalues --   -0.39473  -0.37483  -0.37227  -0.35781  -0.30573
 Alpha  occ. eigenvalues --   -0.27388  -0.26561  -0.26372  -0.25410
 Alpha virt. eigenvalues --    0.04724   0.05394   0.06409   0.08184   0.11313
 Alpha virt. eigenvalues --    0.12471   0.12946   0.14134   0.15387   0.15571
 Alpha virt. eigenvalues --    0.16947   0.17134   0.18986   0.19931   0.21882

 Mulliken charges:
               1
     1  C   -0.403953
     2  C   -0.186254
     3  C    0.344125
     4  C   -0.473427
     5  C    0.347041
     6  O   -0.471927
     7  C   -0.136866
     8  O   -0.272015
     9  C   -0.134866
    10  H    0.148568
    11  H    0.125017
    12  H    0.113398
    13  H    0.116772
    14  H    0.195251
    15  H    0.283427
    16  H    0.088107
    17  H    0.108265
    18  H    0.088709
    19  H    0.120629
 Sum of Mulliken charges =   0.00000

 Dipole moment (field-independent basis, Debye):
    X=             -0.2138    Y=              0.4208    Z=              0.7642  Tot=              0.8982
 Quadrupole moment (field-independent basis, Debye-Ang):
   XX=            -54.8941   YY=            -50.7913   ZZ=            -52.6745
   XY=             -3.7887   XZ=             -5.0547   YZ=             -2.7853

  Exact polarizability:  86.784 -11.492  80.111  -0.154  -3.661  62.811
 Approx polarizability: 121.259 -22.575 116.281   5.490  -5.599  96.798

                      1                      2                      3
                      A                      A                      A
 Frequencies --     77.6611               100.4922               130.8207
 Red. masses --      4.6639                 3.9798                 3.6987
 Frc consts  --      0.0166                 0.0237                 0.0373
 IR Inten    --      0.2322                 5.5480                 0.3256

                      4                      5                      6
                      A                      A                      A
 Frequencies --    206.9827               225.4433               238.1376
 Red. masses --      1.9251                 1.6386                 1.8862
 Frc consts  --      0.0486                 0.0491                 0.0630
 IR Inten    --      1.6329                 0.0805                 3.9722

                      7                      8                      9
                      A                      A                      A
 Frequencies --    279.5056               321.0169               351.7495
 Red. masses --      1.1191                 3.0180                 3.1369
 Frc consts  --      0.0515                 0.1832                 0.2287
 IR Inten    --     56.5789                14.6573                 7.3550

                     10                     11                     12
                      A                      A                      A
 Frequencies --    386.5061               467.4135               517.8782
 Red. masses --      3.5867                 3.5888                 4.1861
 Frc consts  --      0.3157                 0.4620                 0.6615
 IR Inten    --      5.6094                10.2602                 6.2260

                     13                     14                     15
                      A                      A                      A
 Frequencies --    553.1532               621.3535               646.6412
 Red. masses --      4.1106                 1.2275                 1.2446
 Frc consts  --      0.7410                 0.2792                 0.3066
 IR Inten    --      3.2190                40.1761                40.8415

                     16                     17                     18
                      A                      A                      A
 Frequencies --    738.5464               783.0351               864.2368
 Red. masses --      3.6965                 2.9492                 2.7535
 Frc consts  --      1.1879                 1.0654                 1.2117
 IR Inten    --     13.1904                 3.9735                13.5117

                     19                     20                     21
                      A                      A                      A
 Frequencies --    917.1305               945.7478              1001.2354
 Red. masses --      1.9525                 1.3503                 3.0036
 Frc consts  --      0.9676                 0.7116                 1.7740
 IR Inten    --     18.0982                 0.1835                12.0440

                     22                     23                     24
                      A                      A                      A
 Frequencies --   1017.8078              1026.1455              1051.2701
 Red. masses --      2.2152                 6.4035                 3.6724
 Frc consts  --      1.3521                 3.9727                 2.3913
 IR Inten    --      8.7726                75.8226                19.0898

                     25                     26                     27
                      A                      A                      A
 Frequencies --   1097.5181              1122.6217              1135.5393
 Red. masses --      2.2143                 2.3683                 1.8214
 Frc consts  --      1.5715                 1.7586                 1.3838
 IR Inten    --     11.3978                16.3955                 1.7819

                     28                     29                     30
                      A                      A                      A
 Frequencies --   1144.3200              1164.0257              1220.4579
 Red. masses --      1.0995                 1.2534                 2.5601
 Frc consts  --      0.8483                 1.0006                 2.2468
 IR Inten    --      0.6043                 3.4698               102.9794

                     31                     32                     33
                      A                      A                      A
 Frequencies --   1292.7003              1324.3098              1339.1829
 Red. masses --      1.3094                 1.4014                 1.4506
 Frc consts  --      1.2892                 1.4480                 1.5328
 IR Inten    --      1.5689                 3.2528                 7.8472

                     34                     35                     36
                      A                      A                      A
 Frequencies --   1366.6183              1398.1190              1409.5723
 Red. masses --      1.5651                 1.5795                 1.4276
 Frc consts  --      1.7223                 1.8191                 1.6712
 IR Inten    --      0.5684                22.4787                26.8673

                     37                     38                     39
                      A                      A                      A
 Frequencies --   1491.2028              1499.6468              1504.3655
 Red. masses --      1.0405                 1.0629                 1.0745
 Frc consts  --      1.3632                 1.4083                 1.4327
 IR Inten    --      4.1101                 2.3524                 0.4992

                     40                     41                     42
                      A                      A                      A
 Frequencies --   1530.1097              2236.1099              2983.5221
 Red. masses --      1.1147                 5.9259                 1.0619
 Frc consts  --      1.5377                17.4578                 5.5692
 IR Inten    --      2.7700                 0.9181                72.7138

                     43                     44                     45
                      A                      A                      A
 Frequencies --   2995.3301              3019.1156              3049.3357
 Red. masses --      1.0682                 1.0820                 1.0388
 Frc consts  --      5.6468                 5.8110                 5.6910
 IR Inten    --     53.4574                 9.1947                15.9653

                     46                     47                     48
                      A                      A                      A
 Frequencies --   3060.8204              3079.2768              3119.8368
 Red. masses --      1.0983                 1.0990                 1.1000
 Frc consts  --      6.0627                 6.1397                 6.3081
 IR Inten    --     42.9628                27.4597                23.1862

                     49                     50                     51
                      A                      A                      A
 Frequencies --   3148.2991              3504.5212              3813.3665
 Red. masses --      1.1018                 1.1621                 1.0660
 Frc consts  --      6.4342                 8.4090                 9.1334
 IR Inten    --     10.1768                64.8631                18.6929

 - Thermochemistry -
 -------------------
 Temperature   298.150 Kelvin.  Pressure   1.00000 Atm.
 Atom     1 has atomic number  6 and mass  12.00000

 Molecular mass:   126.06808 amu.
 Principal axes and moments of inertia in atomic units:
                           1         2         3
     Eigenvalues --   726.286771407.187671616.64566
           X            0.99987  -0.00020  -0.01606
           Y           -0.00087   0.99781  -0.06621
           Z            0.01604   0.06622   0.99768
 This molecule is an asymmetric top.
 Rotational symmetry number  1.
 Warning -- assumption of classical behavior for rotation
           may cause significant error
 Rotational temperatures (Kelvin)      0.11926     0.06155     0.05358
 Rotational constants (GHZ):           2.48489     1.28252     1.11635
 Zero-point vibrational energy     409839.1 (Joules/Mol)
                                   97.95391 (Kcal/Mol)
 Warning -- explicit consideration of  13 degrees of freedom as
           vibrations may cause significant error
 Vibrational temperatures:    111.74   144.59   188.22   297.80   324.36
          (Kelvin)            342.63   402.15   461.87   506.09   556.10
                              672.50   745.11   795.86   893.99   930.37
                             1062.60  1126.61  1243.44  1319.54  1360.72
                             1440.55  1464.40  1476.39  1512.54  1579.08
                             1615.20  1633.79  1646.42  1674.77  1755.96
                             1859.91  1905.38  1926.78  1966.26  2011.58
                             2028.06  2145.51  2157.65  2164.44  2201.48
                             3217.26  4292.62  4309.61  4343.83  4387.31
                             4403.83  4430.39  4488.74  4529.69  5042.22
                             5486.58

 Zero-point correction=                           0.156099 (Hartree/Particle)
 Thermal correction to Energy=                    0.165825
 Thermal correction to Enthalpy=                  0.166770
 Thermal correction to Gibbs Free Energy=         0.121701
 Sum of electronic and zero-point Energies=           -422.966368
 Sum of electronic and thermal Energies=              -422.956642
 Sum of electronic and thermal Enthalpies=            -422.955698
 Sum of electronic and thermal Free Energies=         -423.000767

                     E (Thermal)             CV                S
                      KCal/Mol        Cal/Mol-Kelvin    Cal/Mol-Kelvin
 Total                  104.057             36.031             94.855
 Electronic               0.000              0.000              0.000
 Translational            0.889              2.981             40.409
 Rotational               0.889              2.981             28.893
 Vibrational            102.280             30.070             25.554
 Vibration     1          0.599              1.964              3.949
 Vibration     2          0.604              1.949              3.445
 Vibration     3          0.612              1.923              2.934
 Vibration     4          0.641              1.830              2.070
 Vibration     5          0.650              1.802              1.915
 Vibration     6          0.656              1.782              1.817
 Vibration     7          0.680              1.711              1.537
 Vibration     8          0.706              1.633              1.305
 Vibration     9          0.728              1.572              1.158
 Vibration    10          0.755              1.499              1.014
 Vibration    11          0.825              1.322              0.745
 Vibration    12          0.873              1.210              0.615
 Vibration    13          0.909              1.133              0.538

 Optimization completed.
    -- Stationary point found.
 Normal termination of Gaussian 09 at Mon Jan 27 15:04:43 2020.
