 Gaussian 09, Revision D.01,
 Gaussian 09:  ES64L-G09RevD.01 24-Apr-2013

 -----------------------------
 # b3lyp 6-31G(2df,p) opt Freq
 -----------------------------

 -----
 titel
 -----
 Symbolic Z-matrix:
 Charge =  0 Multiplicity = 1

 SCF Done:  E(RB3LYP) =  -423.093207046     A.U. after   14 cycles
 Optimization completed.
    -- Stationary point found.
 Normal termination of Gaussian 09 at Tue Jan 28 10:13:40 2020.

 ----------------------------------------------------------------------
 #N Geom=AllCheck Guess=TCheck SCRF=Check GenChk RB3LYP/6-31G(2df,p) Fr
 eq
 ----------------------------------------------------------------------

 Structure from the checkpoint file:  "/scratch/puck/g09_83693f26-b7e6-4610-8a01-4cff4dc3d453/Gau-64884.chk"
 -----
 titel
 -----
 Charge =  0 Multiplicity = 1

                         Standard orientation:
 ---------------------------------------------------------------------
 Center     Atomic      Atomic             Coordinates (Angstroms)
 Number     Number       Type             X           Y           Z
 ---------------------------------------------------------------------
      1          6           0        0.677125    2.001786    0.498560
      2          6           0        0.766932    0.584478    0.036260
      3          8           0        1.305163    0.298002   -1.299797
      4          6           0        0.968746   -1.008246   -0.754410
      5          6           0        1.419403   -0.676882    0.697225
      6          6           0        0.075408   -1.144394    1.296620
      7          6           0       -0.344969   -0.525342   -0.059784
      8          6           0       -1.701029   -0.362679   -0.683411
      9          8           0       -2.546095    0.496718    0.074579
     10          1           0        0.265134    2.043373    1.511464
     11          1           0        1.667649    2.467099    0.504905
     12          1           0        0.021997    2.578577   -0.160298
     13          1           0        1.154520   -1.894766   -1.360720
     14          1           0        2.429225   -0.754083    1.100485
     15          1           0       -0.061453   -2.224562    1.405064
     16          1           0       -0.259379   -0.626901    2.201004
     17          1           0       -1.583711    0.113554   -1.662839
     18          1           0       -2.171892   -1.345090   -0.847802
     19          1           0       -2.704336    0.072714    0.924110
 ---------------------------------------------------------------------

 SCF Done:  E(RB3LYP) =  -423.093207046     A.U. after    1 cycles

 The electronic state is 1-A.
 Alpha  occ. eigenvalues --  -19.13779 -19.12465 -10.24785 -10.24484 -10.22884
 Alpha  occ. eigenvalues --  -10.20096 -10.20000 -10.19302 -10.18270  -1.05744
 Alpha  occ. eigenvalues --   -1.01694  -0.86583  -0.74477  -0.71682  -0.65285
 Alpha  occ. eigenvalues --   -0.61562  -0.61036  -0.51631  -0.48888  -0.47911
 Alpha  occ. eigenvalues --   -0.46800  -0.45700  -0.44389  -0.41724  -0.40517
 Alpha  occ. eigenvalues --   -0.39235  -0.36628  -0.36127  -0.31978  -0.30436
 Alpha  occ. eigenvalues --   -0.30035  -0.28940  -0.27465  -0.22765
 Alpha virt. eigenvalues --    0.06151   0.09580   0.10853   0.11994   0.12083
 Alpha virt. eigenvalues --    0.12726   0.13877   0.14435   0.14897   0.15947
 Alpha virt. eigenvalues --    0.16556   0.17227   0.18307   0.20018   0.21301

 Mulliken charges:
               1
     1  C   -0.521221
     2  C    0.438561
     3  O   -0.362324
     4  C    0.034397
     5  C   -0.137533
     6  C   -0.345275
     7  C    0.250705
     8  C   -0.214699
     9  O   -0.413100
    10  H    0.127794
    11  H    0.131512
    12  H    0.144277
    13  H    0.091895
    14  H    0.081430
    15  H    0.097467
    16  H    0.096518
    17  H    0.126072
    18  H    0.089296
    19  H    0.284228
 Sum of Mulliken charges =   0.00000

 Dipole moment (field-independent basis, Debye):
    X=             -0.2203    Y=             -1.5533    Z=              2.0196  Tot=              2.5574
 Quadrupole moment (field-independent basis, Debye-Ang):
   XX=            -56.3235   YY=            -50.9746   ZZ=            -53.2324
   XY=              2.2025   XZ=              0.3026   YZ=              2.1284

  Exact polarizability:  76.298   0.279  77.372  -0.151   0.805  71.949
 Approx polarizability: 108.401  -0.402 112.360  -3.622  -0.406 112.205

                      1                      2                      3
                      A                      A                      A
 Frequencies --     75.5156               126.3485               171.7074
 Red. masses --      3.6758                 3.4159                 1.0752
 Frc consts  --      0.0124                 0.0321                 0.0187
 IR Inten    --      1.3735                 2.8111                 0.1735

                      4                      5                      6
                      A                      A                      A
 Frequencies --    215.4474               247.3971               296.4635
 Red. masses --      1.8557                 2.3904                 3.5142
 Frc consts  --      0.0507                 0.0862                 0.1820
 IR Inten    --      9.7920                 1.2464                 6.5480

                      7                      8                      9
                      A                      A                      A
 Frequencies --    308.5413               400.7441               458.3907
 Red. masses --      1.2713                 2.7770                 2.5764
 Frc consts  --      0.0713                 0.2628                 0.3190
 IR Inten    --    107.5172                 9.1000                 3.5134

                     10                     11                     12
                      A                      A                      A
 Frequencies --    569.8781               646.6616               696.5541
 Red. masses --      3.9471                 3.5188                 3.4989
 Frc consts  --      0.7553                 0.8670                 1.0002
 IR Inten    --      5.8851                 2.7069                 5.5652

                     13                     14                     15
                      A                      A                      A
 Frequencies --    732.3549               765.0601               802.8564
 Red. masses --      3.2994                 3.0297                 4.0149
 Frc consts  --      1.0426                 1.0448                 1.5247
 IR Inten    --      3.6904                 5.4138                 9.5655

                     16                     17                     18
                      A                      A                      A
 Frequencies --    849.9822               901.5967               905.4661
 Red. masses --      2.1974                 2.5047                 2.4999
 Frc consts  --      0.9354                 1.1996                 1.2076
 IR Inten    --      6.1928                17.1707                 9.7996

                     19                     20                     21
                      A                      A                      A
 Frequencies --    933.1389               961.3756              1010.7970
 Red. masses --      1.9299                 2.0187                 1.2997
 Frc consts  --      0.9901                 1.0993                 0.7824
 IR Inten    --      7.4696                10.4259                 2.2316

                     22                     23                     24
                      A                      A                      A
 Frequencies --   1046.5353              1073.4614              1085.4075
 Red. masses --      3.7237                 1.8847                 1.6677
 Frc consts  --      2.4029                 1.2796                 1.1576
 IR Inten    --     92.3764                 6.2184                 3.2210

                     25                     26                     27
                      A                      A                      A
 Frequencies --   1115.7634              1125.8061              1132.7554
 Red. masses --      1.6699                 1.8856                 1.7078
 Frc consts  --      1.2249                 1.4081                 1.2911
 IR Inten    --      3.2517                12.2485                 6.9440

                     28                     29                     30
                      A                      A                      A
 Frequencies --   1160.6488              1202.7698              1206.3963
 Red. masses --      1.7544                 1.5669                 1.8247
 Frc consts  --      1.3924                 1.3355                 1.5647
 IR Inten    --      5.3816                 6.0249                11.6564

                     31                     32                     33
                      A                      A                      A
 Frequencies --   1250.9450              1276.2093              1328.9553
 Red. masses --      1.6747                 1.9798                 2.6863
 Frc consts  --      1.5440                 1.8998                 2.7953
 IR Inten    --     18.4807                13.9553                 5.0751

                     34                     35                     36
                      A                      A                      A
 Frequencies --   1369.9477              1377.4386              1411.1770
 Red. masses --      1.9149                 1.4015                 1.4347
 Frc consts  --      2.1175                 1.5667                 1.6834
 IR Inten    --      8.7251                 2.6713                54.7030

                     37                     38                     39
                      A                      A                      A
 Frequencies --   1421.7127              1469.2936              1486.5261
 Red. masses --      1.9123                 1.0475                 1.0536
 Frc consts  --      2.2773                 1.3323                 1.3717
 IR Inten    --      8.9038                 4.0327                 3.6276

                     40                     41                     42
                      A                      A                      A
 Frequencies --   1495.0214              1515.0086              2976.6245
 Red. masses --      1.0779                 1.1566                 1.0698
 Frc consts  --      1.4194                 1.5641                 5.5847
 IR Inten    --      2.7505                 1.4549                61.2302

                     43                     44                     45
                      A                      A                      A
 Frequencies --   3040.4906              3042.7949              3073.6850
 Red. masses --      1.0385                 1.0509                 1.0919
 Frc consts  --      5.6567                 5.7327                 6.0776
 IR Inten    --     24.5269                33.1871                14.9083

                     46                     47                     48
                      A                      A                      A
 Frequencies --   3096.9924              3113.5401              3114.1252
 Red. masses --      1.1093                 1.0973                 1.0922
 Frc consts  --      6.2688                 6.2675                 6.2406
 IR Inten    --     30.3153                15.2829                42.7479

                     49                     50                     51
                      A                      A                      A
 Frequencies --   3119.3239              3126.1111              3816.0431
 Red. masses --      1.1012                 1.0964                 1.0662
 Frc consts  --      6.3130                 6.3128                 9.1477
 IR Inten    --      8.7520                48.3111                16.0440

 - Thermochemistry -
 -------------------
 Temperature   298.150 Kelvin.  Pressure   1.00000 Atm.
 Atom     1 has atomic number  6 and mass  12.00000

 Molecular mass:   126.06808 amu.
 Principal axes and moments of inertia in atomic units:
                           1         2         3
     Eigenvalues --   748.268991162.061151301.84968
           X            0.99930   0.02839   0.02442
           Y           -0.02976   0.99789   0.05770
           Z           -0.02273  -0.05839   0.99804
 This molecule is an asymmetric top.
 Rotational symmetry number  1.
 Warning -- assumption of classical behavior for rotation
           may cause significant error
 Rotational temperatures (Kelvin)      0.11575     0.07453     0.06653
 Rotational constants (GHZ):           2.41189     1.55305     1.38629
 Zero-point vibrational energy     413595.6 (Joules/Mol)
                                   98.85172 (Kcal/Mol)
 Warning -- explicit consideration of  10 degrees of freedom as
           vibrations may cause significant error
 Vibrational temperatures:    108.65   181.79   247.05   309.98   355.95
          (Kelvin)            426.54   443.92   576.58   659.52   819.93
                              930.40  1002.18  1053.69  1100.75  1155.13
                             1222.93  1297.19  1302.76  1342.58  1383.20
                             1454.31  1505.73  1544.47  1561.66  1605.33
                             1619.78  1629.78  1669.91  1730.52  1735.73
                             1799.83  1836.18  1912.07  1971.05  1981.82
                             2030.37  2045.52  2113.98  2138.78  2151.00
                             2179.76  4282.69  4374.58  4377.90  4422.34
                             4455.88  4479.68  4480.53  4488.01  4497.77
                             5490.43

 Zero-point correction=                           0.157530 (Hartree/Particle)
 Thermal correction to Energy=                    0.166148
 Thermal correction to Enthalpy=                  0.167092
 Thermal correction to Gibbs Free Energy=         0.124319
 Sum of electronic and zero-point Energies=           -422.935677
 Sum of electronic and thermal Energies=              -422.927059
 Sum of electronic and thermal Enthalpies=            -422.926115
 Sum of electronic and thermal Free Energies=         -422.968888

                     E (Thermal)             CV                S
                      KCal/Mol        Cal/Mol-Kelvin    Cal/Mol-Kelvin
 Total                  104.259             32.812             90.024
 Electronic               0.000              0.000              0.000
 Translational            0.889              2.981             40.409
 Rotational               0.889              2.981             28.517
 Vibrational            102.482             26.850             21.098
 Vibration     1          0.599              1.965              4.004
 Vibration     2          0.611              1.927              3.001
 Vibration     3          0.626              1.877              2.417
 Vibration     4          0.645              1.817              1.997
 Vibration     5          0.661              1.767              1.749
 Vibration     6          0.690              1.680              1.437
 Vibration     7          0.698              1.657              1.370
 Vibration     8          0.767              1.469              0.960
 Vibration     9          0.816              1.342              0.771
 Vibration    10          0.926              1.096              0.504

 Normal termination of Gaussian 09 at Tue Jan 28 12:09:45 2020.
