 Gaussian 09, Revision D.01,
 Gaussian 09:  ES64L-G09RevD.01 24-Apr-2013

 -----------------------------
 # b3lyp 6-31G(2df,p) opt Freq
 -----------------------------

 -----
 titel
 -----
 Symbolic Z-matrix:
 Charge =  0 Multiplicity = 1

 SCF Done:  E(RB3LYP) =  -423.126470904     A.U. after   14 cycles
 Optimization completed.
    -- Stationary point found.
 Normal termination of Gaussian 09 at Mon Jan 27 15:42:30 2020.

 ----------------------------------------------------------------------
 #N Geom=AllCheck Guess=TCheck SCRF=Check GenChk RB3LYP/6-31G(2df,p) Fr
 eq
 ----------------------------------------------------------------------

 Structure from the checkpoint file:  "/scratch/puck/g09_2095e507-9b12-4bd9-9c3e-8d004522d52d/Gau-9272.chk"
 -----
 titel
 -----
 Charge =  0 Multiplicity = 1

                         Standard orientation:
 ---------------------------------------------------------------------
 Center     Atomic      Atomic             Coordinates (Angstroms)
 Number     Number       Type             X           Y           Z
 ---------------------------------------------------------------------
      1          6           0        1.873704   -1.555639   -0.230756
      2          6           0        1.612580   -0.087059    0.102727
      3          8           0        2.677132    0.753156   -0.339370
      4          6           0        0.282460    0.389209   -0.456673
      5          6           0       -0.424030    1.573313    0.147699
      6          6           0       -0.997686    0.174879    0.324146
      7          8           0       -0.826836   -0.453920    1.569546
      8          6           0       -2.206630   -0.179059   -0.374811
      9          6           0       -3.233998   -0.468960   -0.929792
     10          1           0        1.863555   -1.718225   -1.316286
     11          1           0        2.851257   -1.861545    0.151740
     12          1           0        1.103598   -2.193056    0.213193
     13          1           0        1.596238    0.033606    1.188896
     14          1           0        2.771181    0.630512   -1.290568
     15          1           0        0.181792    0.264362   -1.532723
     16          1           0        0.023431    2.009857    1.034464
     17          1           0       -0.948022    2.266610   -0.499701
     18          1           0       -1.549711   -0.172310    2.141397
     19          1           0       -4.134081   -0.733800   -1.427054
 ---------------------------------------------------------------------

 SCF Done:  E(RB3LYP) =  -423.126470904     A.U. after    1 cycles

 The electronic state is 1-A.
 Alpha  occ. eigenvalues --  -19.15397 -19.12955 -10.26518 -10.23056 -10.19693
 Alpha  occ. eigenvalues --  -10.19124 -10.18499 -10.17846 -10.17095  -1.04085
 Alpha  occ. eigenvalues --   -1.01162  -0.86300  -0.75557  -0.73909  -0.64492
 Alpha  occ. eigenvalues --   -0.62792  -0.58546  -0.56277  -0.51293  -0.50065
 Alpha  occ. eigenvalues --   -0.46846  -0.45043  -0.43513  -0.40159  -0.39678
 Alpha  occ. eigenvalues --   -0.38057  -0.36389  -0.35289  -0.32478  -0.31197
 Alpha  occ. eigenvalues --   -0.28063  -0.27563  -0.26990  -0.24101
 Alpha virt. eigenvalues --    0.03148   0.04513   0.07783   0.09284   0.10813
 Alpha virt. eigenvalues --    0.12399   0.12639   0.13262   0.16320   0.16351
 Alpha virt. eigenvalues --    0.17972   0.18688   0.19812   0.21730   0.22651

 Mulliken charges:
               1
     1  C   -0.407262
     2  C    0.120458
     3  O   -0.432013
     4  C   -0.066430
     5  C   -0.353735
     6  C    0.193822
     7  O   -0.451513
     8  C    0.298642
     9  C   -0.464236
    10  H    0.101393
    11  H    0.121142
    12  H    0.137118
    13  H    0.101982
    14  H    0.274225
    15  H    0.091838
    16  H    0.126159
    17  H    0.121943
    18  H    0.289531
    19  H    0.196938
 Sum of Mulliken charges =   0.00000

 Dipole moment (field-independent basis, Debye):
    X=             -1.3695    Y=              0.1176    Z=             -0.7508  Tot=              1.5662
 Quadrupole moment (field-independent basis, Debye-Ang):
   XX=            -52.0542   YY=            -54.9754   ZZ=            -47.4907
   XY=             -2.3537   XZ=             -3.2632   YZ=              1.1068

  Exact polarizability: 100.071   4.906  68.220   7.003   2.552  69.388
 Approx polarizability: 138.929  13.431  97.852  15.273   4.713 108.715

                      1                      2                      3
                      A                      A                      A
 Frequencies --     52.7803                97.3374               123.9974
 Red. masses --      3.4784                 3.9882                 4.1688
 Frc consts  --      0.0057                 0.0223                 0.0378
 IR Inten    --      2.2641                 0.4893                 1.4135

                      4                      5                      6
                      A                      A                      A
 Frequencies --    197.4971               248.0398               255.1480
 Red. masses --      3.7050                 2.0047                 1.3940
 Frc consts  --      0.0851                 0.0727                 0.0535
 IR Inten    --      1.1507                 2.9680                 6.5763

                      7                      8                      9
                      A                      A                      A
 Frequencies --    277.8905               294.7502               340.9578
 Red. masses --      1.0911                 1.1420                 3.4029
 Frc consts  --      0.0496                 0.0585                 0.2331
 IR Inten    --     72.1488               103.5639                13.5922

                     10                     11                     12
                      A                      A                      A
 Frequencies --    377.0131               413.8626               441.9750
 Red. masses --      4.6736                 2.4826                 4.3509
 Frc consts  --      0.3914                 0.2505                 0.5008
 IR Inten    --     13.1843                 9.3967                 4.2603

                     13                     14                     15
                      A                      A                      A
 Frequencies --    506.8454               555.6727               577.7177
 Red. masses --      2.6808                 6.2776                 1.4435
 Frc consts  --      0.4058                 1.1420                 0.2839
 IR Inten    --     10.7827                16.9953                33.4919

                     16                     17                     18
                      A                      A                      A
 Frequencies --    610.0556               675.1287               712.6448
 Red. masses --      2.6092                 1.2595                 4.5989
 Frc consts  --      0.5721                 0.3382                 1.3761
 IR Inten    --     17.5837                35.2552                10.4595

                     19                     20                     21
                      A                      A                      A
 Frequencies --    808.9013               897.7439               906.8958
 Red. masses --      1.9154                 3.4706                 1.8807
 Frc consts  --      0.7384                 1.6480                 0.9113
 IR Inten    --      0.5678                16.1105                 4.7792

                     22                     23                     24
                      A                      A                      A
 Frequencies --    925.8684               963.1249              1030.4222
 Red. masses --      1.7831                 1.4148                 2.2355
 Frc consts  --      0.9006                 0.7732                 1.3985
 IR Inten    --     16.7423                11.1881                 4.6104

                     25                     26                     27
                      A                      A                      A
 Frequencies --   1051.3857              1064.9438              1100.5596
 Red. masses --      2.0005                 1.6009                 1.6237
 Frc consts  --      1.3029                 1.0697                 1.1588
 IR Inten    --     36.4917                32.1733                32.9064

                     28                     29                     30
                      A                      A                      A
 Frequencies --   1116.8347              1188.1169              1228.8883
 Red. masses --      2.3445                 1.9580                 1.7626
 Frc consts  --      1.7230                 1.6285                 1.5683
 IR Inten    --     60.9841                34.3280                 4.4415

                     31                     32                     33
                      A                      A                      A
 Frequencies --   1242.3177              1289.1730              1329.1891
 Red. masses --      2.1537                 1.8856                 1.3320
 Frc consts  --      1.9584                 1.8464                 1.3865
 IR Inten    --    118.3920                18.8790                13.0601

                     34                     35                     36
                      A                      A                      A
 Frequencies --   1357.7331              1399.5286              1417.8140
 Red. masses --      1.3913                 1.2406                 1.2433
 Frc consts  --      1.5111                 1.4317                 1.4726
 IR Inten    --      9.4282                 6.1404                39.2695

                     37                     38                     39
                      A                      A                      A
 Frequencies --   1427.7399              1476.5430              1493.3587
 Red. masses --      1.4561                 1.4704                 1.0856
 Frc consts  --      1.7488                 1.8888                 1.4264
 IR Inten    --     22.2969                 4.3808                 2.4637

                     40                     41                     42
                      A                      A                      A
 Frequencies --   1496.4719              2230.1799              3024.2886
 Red. masses --      1.0596                 6.0083                 1.0405
 Frc consts  --      1.3981                17.6070                 5.6070
 IR Inten    --      6.8917                 6.6131                17.8117

                     43                     44                     45
                      A                      A                      A
 Frequencies --   3081.7998              3102.3956              3124.4862
 Red. masses --      1.0850                 1.0936                 1.1027
 Frc consts  --      6.0713                 6.2016                 6.3426
 IR Inten    --      2.4479                26.0972                20.6506

                     46                     47                     48
                      A                      A                      A
 Frequencies --   3133.5699              3135.8917              3230.0247
 Red. masses --      1.0801                 1.0614                 1.1178
 Frc consts  --      6.2490                 6.1495                 6.8713
 IR Inten    --     18.6362                 4.1704                 4.4763

                     49                     50                     51
                      A                      A                      A
 Frequencies --   3502.1090              3797.5290              3799.4566
 Red. masses --      1.1603                 1.0659                 1.0663
 Frc consts  --      8.3848                 9.0571                 9.0690
 IR Inten    --     78.9323                12.5685                29.9886

 - Thermochemistry -
 -------------------
 Temperature   298.150 Kelvin.  Pressure   1.00000 Atm.
 Atom     1 has atomic number  6 and mass  12.00000

 Molecular mass:   126.06808 amu.
 Principal axes and moments of inertia in atomic units:
                           1         2         3
     Eigenvalues --   611.350411839.084931927.53437
           X            0.99974  -0.02261  -0.00361
           Y            0.02282   0.99656   0.07965
           Z            0.00180  -0.07971   0.99682
 This molecule is an asymmetric top.
 Rotational symmetry number  1.
 Warning -- assumption of classical behavior for rotation
           may cause significant error
 Rotational temperatures (Kelvin)      0.14168     0.04710     0.04494
 Rotational constants (GHZ):           2.95206     0.98133     0.93630
 Zero-point vibrational energy     407535.4 (Joules/Mol)
                                   97.40330 (Kcal/Mol)
 Warning -- explicit consideration of  16 degrees of freedom as
           vibrations may cause significant error
 Vibrational temperatures:     75.94   140.05   178.40   284.15   356.87
          (Kelvin)            367.10   399.82   424.08   490.56   542.44
                              595.46   635.90   729.24   799.49   831.21
                              877.73   971.36  1025.34  1163.83  1291.65
                             1304.82  1332.12  1385.72  1482.55  1512.71
                             1532.21  1583.46  1606.87  1709.43  1768.09
                             1787.42  1854.83  1912.40  1953.47  2013.61
                             2039.92  2054.20  2124.41  2148.61  2153.09
                             3208.73  4351.27  4434.02  4463.65  4495.43
                             4508.50  4511.84  4647.28  5038.75  5463.79
                             5466.56

 Zero-point correction=                           0.155222 (Hartree/Particle)
 Thermal correction to Energy=                    0.165483
 Thermal correction to Enthalpy=                  0.166427
 Thermal correction to Gibbs Free Energy=         0.120116
 Sum of electronic and zero-point Energies=           -422.971249
 Sum of electronic and thermal Energies=              -422.960988
 Sum of electronic and thermal Enthalpies=            -422.960044
 Sum of electronic and thermal Free Energies=         -423.006355

                     E (Thermal)             CV                S
                      KCal/Mol        Cal/Mol-Kelvin    Cal/Mol-Kelvin
 Total                  103.842             38.217             97.470
 Electronic               0.000              0.000              0.000
 Translational            0.889              2.981             40.409
 Rotational               0.889              2.981             29.162
 Vibrational            102.065             32.255             27.900
 Vibration     1          0.596              1.976              4.710
 Vibration     2          0.603              1.951              3.507
 Vibration     3          0.610              1.929              3.037
 Vibration     4          0.637              1.843              2.156
 Vibration     5          0.662              1.766              1.744
 Vibration     6          0.666              1.754              1.695
 Vibration     7          0.679              1.714              1.547
 Vibration     8          0.689              1.684              1.447
 Vibration     9          0.720              1.594              1.208
 Vibration    10          0.748              1.519              1.051
 Vibration    11          0.777              1.440              0.913
 Vibration    12          0.802              1.379              0.820
 Vibration    13          0.862              1.235              0.641
 Vibration    14          0.911              1.127              0.533
 Vibration    15          0.934              1.079              0.490
 Vibration    16          0.969              1.011              0.433

 Optimization completed.
    -- Stationary point found.
 Normal termination of Gaussian 09 at Mon Jan 27 17:25:16 2020.
