 Gaussian 09, Revision D.01,
 Gaussian 09:  ES64L-G09RevD.01 24-Apr-2013

 -----------------------------
 # b3lyp 6-31G(2df,p) opt Freq
 -----------------------------

 -----
 titel
 -----
 Symbolic Z-matrix:
 Charge =  0 Multiplicity = 1

 SCF Done:  E(RB3LYP) =  -423.138988535     A.U. after   14 cycles
 Optimization completed.
    -- Stationary point found.
 Normal termination of Gaussian 09 at Mon Jan 27 14:13:40 2020.

 ----------------------------------------------------------------------
 #N Geom=AllCheck Guess=TCheck SCRF=Check GenChk RB3LYP/6-31G(2df,p) Fr
 eq
 ----------------------------------------------------------------------

 Structure from the checkpoint file:  "/scratch/puck/g09_28a61bb4-6a61-4d40-aea9-a9675265d7d8/Gau-171069.chk"
 -----
 titel
 -----
 Charge =  0 Multiplicity = 1

                         Standard orientation:
 ---------------------------------------------------------------------
 Center     Atomic      Atomic             Coordinates (Angstroms)
 Number     Number       Type             X           Y           Z
 ---------------------------------------------------------------------
      1          6           0       -2.241112    1.231076   -0.107394
      2          6           0       -1.808830   -0.202816    0.109784
      3          8           0       -2.340842   -1.140391   -0.436908
      4          6           0       -0.611166   -0.418117    1.042749
      5          6           0        0.691705   -0.195570    0.318571
      6          6           0        2.147221   -0.242130    0.858453
      7          6           0        2.152946    0.340826   -0.572847
      8          6           0        1.190693   -0.775088   -1.033871
      9          8           0        0.979473    1.172091   -0.207789
     10          1           0       -3.061983    1.270843   -0.824268
     11          1           0       -2.556262    1.679105    0.842260
     12          1           0       -1.385430    1.813047   -0.466706
     13          1           0       -0.654255    0.261652    1.901147
     14          1           0       -0.641751   -1.451097    1.400390
     15          1           0        2.367643    0.472845    1.652175
     16          1           0        2.603123   -1.222014    1.020521
     17          1           0        2.959141    0.831002   -1.116813
     18          1           0        0.574123   -0.534060   -1.900088
     19          1           0        1.557864   -1.804007   -1.043705
 ---------------------------------------------------------------------

 SCF Done:  E(RB3LYP) =  -423.138988535     A.U. after    1 cycles

 The electronic state is 1-A.
 Alpha  occ. eigenvalues --  -19.13645 -19.12712 -10.27054 -10.26339 -10.25414
 Alpha  occ. eigenvalues --  -10.19814 -10.19754 -10.19565 -10.18126  -1.05997
 Alpha  occ. eigenvalues --   -1.03787  -0.80146  -0.77945  -0.72279  -0.68578
 Alpha  occ. eigenvalues --   -0.62614  -0.54763  -0.53718  -0.49594  -0.47002
 Alpha  occ. eigenvalues --   -0.45954  -0.45412  -0.44511  -0.42357  -0.41165
 Alpha  occ. eigenvalues --   -0.39019  -0.37326  -0.35667  -0.35277  -0.33736
 Alpha  occ. eigenvalues --   -0.33160  -0.31855  -0.24674  -0.24029
 Alpha virt. eigenvalues --   -0.01246   0.08842   0.09672   0.11130   0.11840
 Alpha virt. eigenvalues --    0.13555   0.14057   0.14211   0.14970   0.15281
 Alpha virt. eigenvalues --    0.16013   0.16893   0.18310   0.19691   0.20141

 Mulliken charges:
               1
     1  C   -0.484165
     2  C    0.383085
     3  O   -0.302375
     4  C   -0.424631
     5  C    0.419476
     6  C   -0.265256
     7  C    0.050026
     8  C   -0.247754
     9  O   -0.342999
    10  H    0.136164
    11  H    0.134679
    12  H    0.172421
    13  H    0.117356
    14  H    0.129947
    15  H    0.107827
    16  H    0.099317
    17  H    0.100263
    18  H    0.115504
    19  H    0.101114
 Sum of Mulliken charges =   0.00000

 Dipole moment (field-independent basis, Debye):
    X=              1.9800    Y=              0.3486    Z=              1.2387  Tot=              2.3614
 Quadrupole moment (field-independent basis, Debye-Ang):
   XX=            -53.6575   YY=            -56.3615   ZZ=            -51.1956
   XY=             -6.5351   XZ=             -3.1948   YZ=             -1.0705

  Exact polarizability:  86.343  -0.793  72.691   2.767   1.405  69.868
 Approx polarizability: 113.794   4.056 118.433   4.312   4.894 105.542

                      1                      2                      3
                      A                      A                      A
 Frequencies --     34.6204                75.9928               133.5721
 Red. masses --      4.5517                 3.6850                 3.9475
 Frc consts  --      0.0032                 0.0125                 0.0415
 IR Inten    --      4.9556                 5.2727                 1.2226

                      4                      5                      6
                      A                      A                      A
 Frequencies --    174.7643               280.9336               297.2404
 Red. masses --      1.0561                 3.4733                 3.5551
 Frc consts  --      0.0190                 0.1615                 0.1851
 IR Inten    --      0.1013                 2.6948                 1.0479

                      7                      8                      9
                      A                      A                      A
 Frequencies --    392.2304               493.3616               517.5198
 Red. masses --      1.9043                 3.5625                 1.7631
 Frc consts  --      0.1726                 0.5109                 0.2782
 IR Inten    --      2.7053                 6.2661                 0.8636

                     10                     11                     12
                      A                      A                      A
 Frequencies --    556.8818               597.5865               687.2838
 Red. masses --      2.9955                 2.6394                 3.4336
 Frc consts  --      0.5473                 0.5553                 0.9556
 IR Inten    --     13.3461                 4.8486                13.5338

                     13                     14                     15
                      A                      A                      A
 Frequencies --    714.3475               788.2864               804.2634
 Red. masses --      3.7702                 3.2039                 2.7174
 Frc consts  --      1.1335                 1.1730                 1.0356
 IR Inten    --     16.1843                 0.7784                 2.8218

                     16                     17                     18
                      A                      A                      A
 Frequencies --    865.5135               906.5141               912.3512
 Red. masses --      2.1587                 3.8768                 2.1575
 Frc consts  --      0.9528                 1.8770                 1.0581
 IR Inten    --     15.7220                 9.3066                 2.5175

                     19                     20                     21
                      A                      A                      A
 Frequencies --    944.6415               982.3426               985.1590
 Red. masses --      1.8440                 3.1022                 1.3775
 Frc consts  --      0.9695                 1.7638                 0.7877
 IR Inten    --      2.0865                 7.1084                 3.7122

                     22                     23                     24
                      A                      A                      A
 Frequencies --   1024.5664              1038.7232              1090.8129
 Red. masses --      1.4305                 1.5284                 1.3860
 Frc consts  --      0.8847                 0.9716                 0.9717
 IR Inten    --     16.1008                 3.5003                 4.5048

                     25                     26                     27
                      A                      A                      A
 Frequencies --   1104.9407              1118.7019              1158.2931
 Red. masses --      1.7213                 1.5917                 1.4856
 Frc consts  --      1.2382                 1.1737                 1.1743
 IR Inten    --      1.3986                 4.7673                 0.5147

                     28                     29                     30
                      A                      A                      A
 Frequencies --   1188.9702              1215.9000              1232.4738
 Red. masses --      1.6675                 1.6812                 1.5330
 Frc consts  --      1.3889                 1.4644                 1.3719
 IR Inten    --     32.5630                17.2543                16.1809

                     31                     32                     33
                      A                      A                      A
 Frequencies --   1236.2014              1254.0311              1307.7515
 Red. masses --      1.8960                 1.6296                 1.8301
 Frc consts  --      1.7072                 1.5099                 1.8441
 IR Inten    --     29.4599                19.8845                15.7336

                     34                     35                     36
                      A                      A                      A
 Frequencies --   1336.9703              1382.9003              1452.1257
 Red. masses --      3.0380                 1.3316                 1.0934
 Frc consts  --      3.1994                 1.5003                 1.3584
 IR Inten    --     57.4428                50.3749                 5.6689

                     37                     38                     39
                      A                      A                      A
 Frequencies --   1467.8986              1470.7016              1477.6512
 Red. masses --      1.1138                 1.0754                 1.0502
 Frc consts  --      1.4140                 1.3705                 1.3511
 IR Inten    --      4.7505                 7.5293                 8.2212

                     40                     41                     42
                      A                      A                      A
 Frequencies --   1512.6522              1815.5578              3035.4196
 Red. masses --      1.2432                10.4957                 1.0377
 Frc consts  --      1.6760                20.3837                 5.6332
 IR Inten    --      2.9464               155.7733                 2.9171

                     43                     44                     45
                      A                      A                      A
 Frequencies --   3045.9884              3062.1933              3072.2401
 Red. masses --      1.0583                 1.0565                 1.0560
 Frc consts  --      5.7849                 5.8368                 5.8723
 IR Inten    --     10.7886                30.8885                24.5149

                     46                     47                     48
                      A                      A                      A
 Frequencies --   3101.1843              3109.2163              3130.9288
 Red. masses --      1.0970                 1.1026                 1.0943
 Frc consts  --      6.2163                 6.2804                 6.3205
 IR Inten    --      3.2083                 6.5511                51.9291

                     49                     50                     51
                      A                      A                      A
 Frequencies --   3146.8640              3154.0228              3154.1715
 Red. masses --      1.1099                 1.1106                 1.1032
 Frc consts  --      6.4758                 6.5096                 6.4664
 IR Inten    --     16.8459                25.6850                 8.4440

 - Thermochemistry -
 -------------------
 Temperature   298.150 Kelvin.  Pressure   1.00000 Atm.
 Atom     1 has atomic number  6 and mass  12.00000

 Molecular mass:   126.06808 amu.
 Principal axes and moments of inertia in atomic units:
                           1         2         3
     Eigenvalues --   534.429771589.202921688.62456
           X            0.99910  -0.04245  -0.00105
           Y            0.04242   0.99896  -0.01681
           Z            0.00176   0.01675   0.99986
 This molecule is an asymmetric top.
 Rotational symmetry number  1.
 Warning -- assumption of classical behavior for rotation
           may cause significant error
 Rotational temperatures (Kelvin)      0.16207     0.05450     0.05129
 Rotational constants (GHZ):           3.37695     1.13563     1.06876
 Zero-point vibrational energy     412983.6 (Joules/Mol)
                                   98.70544 (Kcal/Mol)
 Warning -- explicit consideration of  11 degrees of freedom as
           vibrations may cause significant error
 Vibrational temperatures:     49.81   109.34   192.18   251.45   404.20
          (Kelvin)            427.66   564.33   709.84   744.59   801.23
                              859.79   988.85  1027.79  1134.17  1157.15
                             1245.28  1304.27  1312.67  1359.13  1413.37
                             1417.42  1474.12  1494.49  1569.43  1589.76
                             1609.56  1666.52  1710.66  1749.41  1773.25
                             1778.62  1804.27  1881.56  1923.60  1989.68
                             2089.28  2111.98  2116.01  2126.01  2176.37
                             2612.18  4367.29  4382.49  4405.81  4420.26
                             4461.91  4473.46  4504.70  4527.63  4537.93
                             4538.14

 Zero-point correction=                           0.157297 (Hartree/Particle)
 Thermal correction to Energy=                    0.165990
 Thermal correction to Enthalpy=                  0.166934
 Thermal correction to Gibbs Free Energy=         0.122889
 Sum of electronic and zero-point Energies=           -422.981691
 Sum of electronic and thermal Energies=              -422.972999
 Sum of electronic and thermal Enthalpies=            -422.972055
 Sum of electronic and thermal Free Energies=         -423.016100

                     E (Thermal)             CV                S
                      KCal/Mol        Cal/Mol-Kelvin    Cal/Mol-Kelvin
 Total                  104.160             32.457             92.701
 Electronic               0.000              0.000              0.000
 Translational            0.889              2.981             40.409
 Rotational               0.889              2.981             28.752
 Vibrational            102.383             26.495             23.541
 Vibration     1          0.594              1.983              5.545
 Vibration     2          0.599              1.965              3.992
 Vibration     3          0.613              1.920              2.894
 Vibration     4          0.627              1.873              2.384
 Vibration     5          0.681              1.709              1.528
 Vibration     6          0.691              1.679              1.432
 Vibration     7          0.760              1.487              0.992
 Vibration     8          0.849              1.265              0.675
 Vibration     9          0.873              1.211              0.616
 Vibration    10          0.912              1.125              0.530
 Vibration    11          0.956              1.037              0.454

 Optimization completed.
    -- Stationary point found.
 Normal termination of Gaussian 09 at Mon Jan 27 14:58:59 2020.
