 Gaussian 09, Revision D.01,
 Gaussian 09:  ES64L-G09RevD.01 24-Apr-2013

 -----------------------------
 # b3lyp 6-31G(2df,p) opt Freq
 -----------------------------

 -----
 titel
 -----
 Symbolic Z-matrix:
 Charge =  0 Multiplicity = 1

 SCF Done:  E(RB3LYP) =  -423.168250765     A.U. after   14 cycles
 Optimization completed.
    -- Stationary point found.
 Normal termination of Gaussian 09 at Tue Jan 28 02:51:22 2020.

 ----------------------------------------------------------------------
 #N Geom=AllCheck Guess=TCheck SCRF=Check GenChk RB3LYP/6-31G(2df,p) Fr
 eq
 ----------------------------------------------------------------------

 Structure from the checkpoint file:  "/scratch/puck/g09_bb7d5f14-e53a-4885-b0f5-3e40d0d23fab/Gau-193432.chk"
 -----
 titel
 -----
 Charge =  0 Multiplicity = 1

                         Standard orientation:
 ---------------------------------------------------------------------
 Center     Atomic      Atomic             Coordinates (Angstroms)
 Number     Number       Type             X           Y           Z
 ---------------------------------------------------------------------
      1          6           0       -2.541842   -0.926714   -0.353102
      2          6           0       -1.580344    0.120056    0.171853
      3          8           0       -0.625532   -0.451482    1.113477
      4          6           0        0.494654   -0.105003    0.284818
      5          6           0        1.131792    1.271409    0.591098
      6          6           0        0.182843    1.948786   -0.444216
      7          6           0       -0.449687    0.574228   -0.775895
      8          6           0        1.380427   -1.273927   -0.028850
      9          8           0        2.500948   -1.172280   -0.463430
     10          1           0       -3.115625   -1.360638    0.471440
     11          1           0       -3.244248   -0.477705   -1.063914
     12          1           0       -2.003718   -1.735216   -0.858214
     13          1           0       -2.131578    0.948224    0.637537
     14          1           0        1.022761    1.576738    1.633207
     15          1           0        2.185010    1.299033    0.305000
     16          1           0       -0.517999    2.686965   -0.045070
     17          1           0        0.712122    2.397510   -1.286913
     18          1           0       -0.516665    0.263571   -1.818296
     19          1           0        0.899554   -2.261396    0.150609
 ---------------------------------------------------------------------

 SCF Done:  E(RB3LYP) =  -423.168250765     A.U. after    1 cycles

 The electronic state is 1-A.
 Alpha  occ. eigenvalues --  -19.14368 -19.14341 -10.26935 -10.24566 -10.24480
 Alpha  occ. eigenvalues --  -10.20577 -10.19454 -10.18817 -10.18594  -1.05643
 Alpha  occ. eigenvalues --   -1.04399  -0.83368  -0.77067  -0.69593  -0.67980
 Alpha  occ. eigenvalues --   -0.61832  -0.58464  -0.52270  -0.51020  -0.49435
 Alpha  occ. eigenvalues --   -0.47998  -0.44750  -0.42838  -0.41208  -0.40461
 Alpha  occ. eigenvalues --   -0.40270  -0.38244  -0.37409  -0.35150  -0.34179
 Alpha  occ. eigenvalues --   -0.31104  -0.29693  -0.26698  -0.24433
 Alpha virt. eigenvalues --   -0.03742   0.07581   0.09548   0.09698   0.10258
 Alpha virt. eigenvalues --    0.12074   0.13298   0.15274   0.15826   0.16820
 Alpha virt. eigenvalues --    0.17283   0.17507   0.18660   0.21077   0.21476

 Mulliken charges:
               1
     1  C   -0.404702
     2  C    0.143642
     3  O   -0.346315
     4  C    0.352692
     5  C   -0.282460
     6  C   -0.238736
     7  C   -0.140533
     8  C    0.086337
     9  O   -0.257373
    10  H    0.131920
    11  H    0.119282
    12  H    0.119715
    13  H    0.078591
    14  H    0.114610
    15  H    0.131366
    16  H    0.105295
    17  H    0.113856
    18  H    0.087449
    19  H    0.085364
 Sum of Mulliken charges =   0.00000

 Dipole moment (field-independent basis, Debye):
    X=             -2.4546    Y=              1.2872    Z=             -0.7214  Tot=              2.8640
 Quadrupole moment (field-independent basis, Debye-Ang):
   XX=            -57.9243   YY=            -52.0932   ZZ=            -54.3111
   XY=              2.6460   XZ=              3.0407   YZ=              0.0962

  Exact polarizability:  87.995   0.825  78.716  -0.398   0.040  62.240
 Approx polarizability: 125.298  -2.743 108.042  -4.371  -2.004  98.242

                      1                      2                      3
                      A                      A                      A
 Frequencies --     67.3607               100.1537               189.7222
 Red. masses --      3.5070                 3.4406                 2.0911
 Frc consts  --      0.0094                 0.0203                 0.0443
 IR Inten    --      0.5212                 6.1211                 1.7397

                      4                      5                      6
                      A                      A                      A
 Frequencies --    224.5224               239.5346               263.1470
 Red. masses --      1.3994                 1.9634                 2.4642
 Frc consts  --      0.0416                 0.0664                 0.1005
 IR Inten    --      3.5042                 5.7269                 1.1457

                      7                      8                      9
                      A                      A                      A
 Frequencies --    308.7634               386.6126               443.3777
 Red. masses --      2.1675                 4.0099                 3.6541
 Frc consts  --      0.1217                 0.3531                 0.4232
 IR Inten    --      1.3454                 5.6841                 0.9391

                     10                     11                     12
                      A                      A                      A
 Frequencies --    513.0330               682.4338               709.3397
 Red. masses --      4.5269                 4.2954                 2.7140
 Frc consts  --      0.7020                 1.1786                 0.8046
 IR Inten    --      3.0531                11.2253                 5.6641

                     13                     14                     15
                      A                      A                      A
 Frequencies --    740.8089               812.5740               834.7568
 Red. masses --      1.4133                 1.9148                 2.3124
 Frc consts  --      0.4570                 0.7449                 0.9494
 IR Inten    --      3.2704                 3.8233                 4.8076

                     16                     17                     18
                      A                      A                      A
 Frequencies --    890.6887               909.7781               950.3720
 Red. masses --      2.7410                 3.5036                 2.2845
 Frc consts  --      1.2812                 1.7086                 1.2157
 IR Inten    --     23.2248                 9.3832                 4.1991

                     19                     20                     21
                      A                      A                      A
 Frequencies --    966.7868              1000.5326              1026.5121
 Red. masses --      2.2923                 1.8447                 1.9581
 Frc consts  --      1.2624                 1.0880                 1.2157
 IR Inten    --     16.4294                 2.8494                30.3953

                     22                     23                     24
                      A                      A                      A
 Frequencies --   1069.0219              1090.6404              1112.2697
 Red. masses --      1.9634                 1.6778                 2.1954
 Frc consts  --      1.3220                 1.1758                 1.6002
 IR Inten    --     32.3679                16.8891                18.2788

                     25                     26                     27
                      A                      A                      A
 Frequencies --   1147.1684              1151.7570              1181.3585
 Red. masses --      3.1454                 1.9608                 2.1019
 Frc consts  --      2.4388                 1.5326                 1.7283
 IR Inten    --     18.6653                16.6360                10.5147

                     28                     29                     30
                      A                      A                      A
 Frequencies --   1220.7432              1238.4140              1263.6188
 Red. masses --      1.7492                 1.3205                 1.5834
 Frc consts  --      1.5358                 1.1932                 1.4896
 IR Inten    --      9.0391                 3.9515                 0.6242

                     31                     32                     33
                      A                      A                      A
 Frequencies --   1278.5561              1290.9719              1316.0258
 Red. masses --      1.3892                 1.9302                 1.4644
 Frc consts  --      1.3380                 1.8953                 1.4943
 IR Inten    --      5.4111                 2.3216                 2.3715

                     34                     35                     36
                      A                      A                      A
 Frequencies --   1387.7773              1399.3272              1407.7520
 Red. masses --      1.3387                 1.2654                 1.4169
 Frc consts  --      1.5191                 1.4599                 1.6544
 IR Inten    --     14.8103                10.2076                11.6886

                     37                     38                     39
                      A                      A                      A
 Frequencies --   1460.7542              1481.9336              1488.2426
 Red. masses --      1.0926                 1.0603                 1.1018
 Frc consts  --      1.3737                 1.3719                 1.4377
 IR Inten    --      2.6871                 2.7803                 2.9158

                     40                     41                     42
                      A                      A                      A
 Frequencies --   1491.4607              1815.7649              2889.7250
 Red. masses --      1.0492                10.7640                 1.0840
 Frc consts  --      1.3752                20.9095                 5.3332
 IR Inten    --      2.8807               146.6040               100.7586

                     43                     44                     45
                      A                      A                      A
 Frequencies --   3011.7600              3032.8066              3062.7219
 Red. masses --      1.0848                 1.0350                 1.0596
 Frc consts  --      5.7974                 5.6087                 5.8559
 IR Inten    --     41.5077                13.8343                36.1905

                     46                     47                     48
                      A                      A                      A
 Frequencies --   3077.2402              3106.1717              3109.1372
 Red. masses --      1.0583                 1.1013                 1.0990
 Frc consts  --      5.9046                 6.2604                 6.2595
 IR Inten    --     19.9666                23.7306                10.8021

                     49                     50                     51
                      A                      A                      A
 Frequencies --   3113.4030              3119.5756              3141.9512
 Red. masses --      1.1023                 1.0970                 1.1084
 Frc consts  --      6.2956                 6.2900                 6.4465
 IR Inten    --     11.9333                24.7731                15.1376

 - Thermochemistry -
 -------------------
 Temperature   298.150 Kelvin.  Pressure   1.00000 Atm.
 Atom     1 has atomic number  6 and mass  12.00000

 Molecular mass:   126.06808 amu.
 Principal axes and moments of inertia in atomic units:
                           1         2         3
     Eigenvalues --   721.874721232.081121596.32802
           X            0.99755   0.06682   0.02052
           Y           -0.06704   0.99770   0.01019
           Z           -0.01979  -0.01154   0.99974
 This molecule is an asymmetric top.
 Rotational symmetry number  1.
 Warning -- assumption of classical behavior for rotation
           may cause significant error
 Rotational temperatures (Kelvin)      0.11998     0.07030     0.05426
 Rotational constants (GHZ):           2.50008     1.46479     1.13056
 Zero-point vibrational energy     414020.7 (Joules/Mol)
                                   98.95333 (Kcal/Mol)
 Warning -- explicit consideration of  10 degrees of freedom as
           vibrations may cause significant error
 Vibrational temperatures:     96.92   144.10   272.97   323.04   344.64
          (Kelvin)            378.61   444.24   556.25   637.92   738.14
                              981.87  1020.58  1065.86  1169.11  1201.03
                             1281.50  1308.97  1367.37  1390.99  1439.54
                             1476.92  1538.08  1569.19  1600.31  1650.52
                             1657.12  1699.71  1756.37  1781.80  1818.06
                             1839.55  1857.42  1893.47  1996.70  2013.32
                             2025.44  2101.70  2132.17  2141.25  2145.88
                             2612.48  4157.66  4333.25  4363.53  4406.57
                             4427.46  4469.08  4473.35  4479.49  4488.37
                             4520.56

 Zero-point correction=                           0.157692 (Hartree/Particle)
 Thermal correction to Energy=                    0.166338
 Thermal correction to Enthalpy=                  0.167282
 Thermal correction to Gibbs Free Energy=         0.124124
 Sum of electronic and zero-point Energies=           -423.010559
 Sum of electronic and thermal Energies=              -423.001913
 Sum of electronic and thermal Enthalpies=            -423.000969
 Sum of electronic and thermal Free Energies=         -423.044127

                     E (Thermal)             CV                S
                      KCal/Mol        Cal/Mol-Kelvin    Cal/Mol-Kelvin
 Total                  104.378             32.260             90.834
 Electronic               0.000              0.000              0.000
 Translational            0.889              2.981             40.409
 Rotational               0.889              2.981             28.742
 Vibrational            102.601             26.298             21.683
 Vibration     1          0.598              1.970              4.229
 Vibration     2          0.604              1.949              3.451
 Vibration     3          0.633              1.854              2.231
 Vibration     4          0.649              1.804              1.922
 Vibration     5          0.657              1.780              1.806
 Vibration     6          0.670              1.740              1.641
 Vibration     7          0.698              1.657              1.369
 Vibration     8          0.755              1.499              1.013
 Vibration     9          0.803              1.376              0.816
 Vibration    10          0.868              1.221              0.626

 Normal termination of Gaussian 09 at Tue Jan 28 03:37:02 2020.
