 Gaussian 09, Revision D.01,
 Gaussian 09:  ES64L-G09RevD.01 24-Apr-2013

 -----------------------------
 # b3lyp 6-31G(2df,p) opt Freq
 -----------------------------

 -----
 titel
 -----
 Symbolic Z-matrix:
 Charge =  0 Multiplicity = 1

 SCF Done:  E(RB3LYP) =  -423.151731958     A.U. after   14 cycles
 SCF Done:  E(RB3LYP) =  -423.151730467     A.U. after    8 cycles
 SCF Done:  E(RB3LYP) =  -423.151732682     A.U. after    8 cycles
 SCF Done:  E(RB3LYP) =  -423.151731468     A.U. after    8 cycles
 SCF Done:  E(RB3LYP) =  -423.151733273     A.U. after    8 cycles
 SCF Done:  E(RB3LYP) =  -423.151735366     A.U. after    9 cycles
 SCF Done:  E(RB3LYP) =  -423.151739513     A.U. after   10 cycles
 SCF Done:  E(RB3LYP) =  -423.151739694     A.U. after    6 cycles
 SCF Done:  E(RB3LYP) =  -423.151739892     A.U. after    7 cycles
 Optimization completed.
    -- Stationary point found.
 Normal termination of Gaussian 09 at Tue Jan 28 08:44:35 2020.

 ----------------------------------------------------------------------
 #N Geom=AllCheck Guess=TCheck SCRF=Check GenChk RB3LYP/6-31G(2df,p) Fr
 eq
 ----------------------------------------------------------------------

 Structure from the checkpoint file:  "/scratch/puck/g09_677f77a7-b210-444a-a172-6143013615d4/Gau-102149.chk"
 -----
 titel
 -----
 Charge =  0 Multiplicity = 1

                         Standard orientation:
 ---------------------------------------------------------------------
 Center     Atomic      Atomic             Coordinates (Angstroms)
 Number     Number       Type             X           Y           Z
 ---------------------------------------------------------------------
      1          8           0       -3.911964   -0.360946   -0.133720
      2          6           0       -2.944682    0.418744    0.555331
      3          6           0       -1.586809    0.258299    0.036787
      4          6           0       -0.478413    0.066586   -0.397074
      5          6           0        0.874185   -0.155744   -0.922995
      6          6           0        1.806863    1.048222   -0.681996
      7          6           0        2.295622    0.770938    0.746976
      8          6           0        2.356465   -0.767323    0.787226
      9          8           0        1.526343   -1.250784   -0.276806
     10          1           0       -3.581321   -1.264831   -0.165719
     11          1           0       -3.269809    1.459656    0.447133
     12          1           0       -2.946817    0.198059    1.635157
     13          1           0        0.805047   -0.412595   -1.985907
     14          1           0        2.635488    1.000806   -1.395408
     15          1           0        1.300900    2.008138   -0.795503
     16          1           0        3.259752    1.233724    0.968506
     17          1           0        1.566300    1.145682    1.470776
     18          1           0        3.373267   -1.142398    0.616317
     19          1           0        2.002773   -1.170731    1.743330
 ---------------------------------------------------------------------

 SCF Done:  E(RB3LYP) =  -423.151739892     A.U. after    1 cycles

 The electronic state is 1-A.
 Alpha  occ. eigenvalues --  -19.13957 -19.13673 -10.25358 -10.25172 -10.22714
 Alpha  occ. eigenvalues --  -10.19286 -10.18990 -10.17855 -10.17596  -1.03336
 Alpha  occ. eigenvalues --   -1.02146  -0.79457  -0.77310  -0.74291  -0.68497
 Alpha  occ. eigenvalues --   -0.61160  -0.59755  -0.53187  -0.51180  -0.49532
 Alpha  occ. eigenvalues --   -0.47135  -0.45201  -0.44383  -0.43709  -0.41100
 Alpha  occ. eigenvalues --   -0.36733  -0.35794  -0.35419  -0.34406  -0.32155
 Alpha  occ. eigenvalues --   -0.28606  -0.26651  -0.26183  -0.24819
 Alpha virt. eigenvalues --    0.02913   0.04107   0.09157   0.10016   0.11697
 Alpha virt. eigenvalues --    0.13022   0.13566   0.14332   0.15380   0.16177
 Alpha virt. eigenvalues --    0.17484   0.18220   0.19708   0.21461   0.21790

 Mulliken charges:
               1
     1  O   -0.401878
     2  C   -0.189880
     3  C    0.016365
     4  C    0.107554
     5  C   -0.072946
     6  C   -0.220923
     7  C   -0.234754
     8  C   -0.058890
     9  O   -0.254834
    10  H    0.289067
    11  H    0.139254
    12  H    0.117989
    13  H    0.109057
    14  H    0.108180
    15  H    0.115461
    16  H    0.106803
    17  H    0.118193
    18  H    0.102621
    19  H    0.103561
 Sum of Mulliken charges =   0.00000

 Dipole moment (field-independent basis, Debye):
    X=              1.7116    Y=              0.9387    Z=              0.9192  Tot=              2.1577
 Quadrupole moment (field-independent basis, Debye-Ang):
   XX=            -56.1434   YY=            -52.6176   ZZ=            -51.0165
   XY=              3.4506   XZ=             -2.1596   YZ=             -0.3351

  Exact polarizability: 108.093  -2.542  65.425  -4.852   0.291  67.377
 Approx polarizability: 145.872  -7.742  96.429 -13.257   3.292  99.713

                      1                      2                      3
                      A                      A                      A
 Frequencies --     20.5698                44.8299                82.6050
 Red. masses --      3.1961                 2.5079                 3.5574
 Frc consts  --      0.0008                 0.0030                 0.0143
 IR Inten    --      1.9704                 1.6396                 0.5130

                      4                      5                      6
                      A                      A                      A
 Frequencies --    121.0110               153.4415               242.4475
 Red. masses --      3.0058                 4.2330                 2.0876
 Frc consts  --      0.0259                 0.0587                 0.0723
 IR Inten    --      5.2986                 1.0126                13.6711

                      7                      8                      9
                      A                      A                      A
 Frequencies --    290.0992               341.8446               447.4592
 Red. masses --      2.3379                 1.6910                 5.0571
 Frc consts  --      0.1159                 0.1164                 0.5966
 IR Inten    --     28.4853                86.8343                 2.5525

                     10                     11                     12
                      A                      A                      A
 Frequencies --    502.8376               572.6117               626.8065
 Red. masses --      4.2631                 7.8124                 2.1113
 Frc consts  --      0.6351                 1.5092                 0.4887
 IR Inten    --      3.9240                10.8014                 1.7050

                     13                     14                     15
                      A                      A                      A
 Frequencies --    711.3254               795.8383               861.9003
 Red. masses --      4.6006                 3.7437                 1.8391
 Frc consts  --      1.3715                 1.3970                 0.8050
 IR Inten    --     10.1260                 2.8917                 4.7957

                     16                     17                     18
                      A                      A                      A
 Frequencies --    887.8659               917.7803               925.6845
 Red. masses --      1.8468                 3.5787                 2.7995
 Frc consts  --      0.8577                 1.7760                 1.4134
 IR Inten    --      8.8440                11.5383                 8.3419

                     19                     20                     21
                      A                      A                      A
 Frequencies --    950.6531               987.0917              1028.3302
 Red. masses --      1.9508                 1.6176                 2.2930
 Frc consts  --      1.0387                 0.9286                 1.4286
 IR Inten    --     13.0174                34.5773                16.9791

                     22                     23                     24
                      A                      A                      A
 Frequencies --   1046.3560              1081.7313              1090.3646
 Red. masses --      3.4810                 4.4485                 2.5237
 Frc consts  --      2.2455                 3.0669                 1.7678
 IR Inten    --     53.7792               153.4749                20.8692

                     25                     26                     27
                      A                      A                      A
 Frequencies --   1149.6041              1196.6907              1204.5132
 Red. masses --      2.1445                 1.2949                 1.6274
 Frc consts  --      1.6698                 1.0926                 1.3911
 IR Inten    --     16.1262                19.7852                 7.3020

                     28                     29                     30
                      A                      A                      A
 Frequencies --   1216.7021              1251.4280              1286.7100
 Red. masses --      1.0949                 1.1914                 1.3897
 Frc consts  --      0.9550                 1.0993                 1.3556
 IR Inten    --     22.1910                 5.1664                 6.7979

                     31                     32                     33
                      A                      A                      A
 Frequencies --   1319.9728              1340.9753              1356.6498
 Red. masses --      1.3951                 1.2662                 1.2292
 Frc consts  --      1.4322                 1.3415                 1.3329
 IR Inten    --      0.3144                 0.6841                 9.8048

                     34                     35                     36
                      A                      A                      A
 Frequencies --   1363.3089              1391.2291              1419.5318
 Red. masses --      1.2874                 1.3347                 1.2305
 Frc consts  --      1.4097                 1.5220                 1.4609
 IR Inten    --     45.3502                 2.7979               101.1100

                     37                     38                     39
                      A                      A                      A
 Frequencies --   1482.5403              1491.2208              1496.4793
 Red. masses --      1.0885                 1.0785                 1.0989
 Frc consts  --      1.4096                 1.4131                 1.4499
 IR Inten    --      2.6939                 0.9830                 4.0313

                     40                     41                     42
                      A                      A                      A
 Frequencies --   1531.2596              2350.8359              2973.0338
 Red. masses --      1.0909                11.8946                 1.0715
 Frc consts  --      1.5070                38.7299                 5.5803
 IR Inten    --      0.5342                 0.8387                46.0290

                     43                     44                     45
                      A                      A                      A
 Frequencies --   3019.3604              3044.6035              3050.3853
 Red. masses --      1.0575                 1.0810                 1.1031
 Frc consts  --      5.6800                 5.9041                 6.0477
 IR Inten    --     77.3959                11.2653                23.8308

                     46                     47                     48
                      A                      A                      A
 Frequencies --   3060.3194              3061.9426              3067.4005
 Red. masses --      1.0878                 1.0681                 1.0660
 Frc consts  --      6.0027                 5.8998                 5.9096
 IR Inten    --     17.7023                29.3960                29.0251

                     49                     50                     51
                      A                      A                      A
 Frequencies --   3114.4811              3128.8084              3816.0695
 Red. masses --      1.1022                 1.1035                 1.0663
 Frc consts  --      6.2994                 6.3645                 9.1485
 IR Inten    --     23.8450                27.3423                21.9527

 - Thermochemistry -
 -------------------
 Temperature   298.150 Kelvin.  Pressure   1.00000 Atm.
 Atom     1 has atomic number  8 and mass  15.99491

 Molecular mass:   126.06808 amu.
 Principal axes and moments of inertia in atomic units:
                           1         2         3
     Eigenvalues --   447.511742573.471892642.14092
           X            0.99998   0.00632  -0.00165
           Y           -0.00638   0.99913  -0.04111
           Z            0.00139   0.04112   0.99915
 This molecule is an asymmetric top.
 Rotational symmetry number  1.
 Warning -- assumption of classical behavior for rotation
           may cause significant error
 Rotational temperatures (Kelvin)      0.19355     0.03366     0.03278
 Rotational constants (GHZ):           4.03284     0.70129     0.68306
 Zero-point vibrational energy     418199.8 (Joules/Mol)
                                   99.95214 (Kcal/Mol)
 Warning -- explicit consideration of  11 degrees of freedom as
           vibrations may cause significant error
 Vibrational temperatures:     29.60    64.50   118.85   174.11   220.77
          (Kelvin)            348.83   417.39   491.84   643.79   723.47
                              823.86   901.83  1023.44  1145.03  1240.08
                             1277.44  1320.48  1331.85  1367.78  1420.20
                             1479.54  1505.47  1556.37  1568.79  1654.02
                             1721.77  1733.02  1750.56  1800.52  1851.29
                             1899.14  1929.36  1951.91  1961.49  2001.67
                             2042.39  2133.04  2145.53  2153.10  2203.14
                             3382.32  4277.53  4344.18  4380.50  4388.82
                             4403.11  4405.45  4413.30  4481.04  4501.65
                             5490.47

 Zero-point correction=                           0.159284 (Hartree/Particle)
 Thermal correction to Energy=                    0.168844
 Thermal correction to Enthalpy=                  0.169788
 Thermal correction to Gibbs Free Energy=         0.122339
 Sum of electronic and zero-point Energies=           -422.992456
 Sum of electronic and thermal Energies=              -422.982896
 Sum of electronic and thermal Enthalpies=            -422.981952
 Sum of electronic and thermal Free Energies=         -423.029401

                     E (Thermal)             CV                S
                      KCal/Mol        Cal/Mol-Kelvin    Cal/Mol-Kelvin
 Total                  105.951             33.213             99.864
 Electronic               0.000              0.000              0.000
 Translational            0.889              2.981             40.409
 Rotational               0.889              2.981             29.499
 Vibrational            104.174             27.251             29.956
 Vibration     1          0.593              1.986              6.578
 Vibration     2          0.595              1.979              5.033
 Vibration     3          0.600              1.961              3.828
 Vibration     4          0.609              1.932              3.084
 Vibration     5          0.619              1.899              2.629
 Vibration     6          0.659              1.775              1.785
 Vibration     7          0.686              1.692              1.473
 Vibration     8          0.721              1.592              1.204
 Vibration     9          0.807              1.367              0.803
 Vibration    10          0.858              1.244              0.651
 Vibration    11          0.929              1.090              0.499

 Normal termination of Gaussian 09 at Tue Jan 28 09:18:52 2020.
