 Gaussian 09, Revision D.01,
 Gaussian 09:  ES64L-G09RevD.01 24-Apr-2013

 -----------------------------
 # b3lyp 6-31G(2df,p) opt Freq
 -----------------------------

 -----
 titel
 -----
 Symbolic Z-matrix:
 Charge =  0 Multiplicity = 1

 SCF Done:  E(RB3LYP) =  -423.144110179     A.U. after   12 cycles
 Optimization completed.
    -- Stationary point found.
 Normal termination of Gaussian 09 at Mon Jan 27 23:46:14 2020.

 ----------------------------------------------------------------------
 #N Geom=AllCheck Guess=TCheck SCRF=Check GenChk RB3LYP/6-31G(2df,p) Fr
 eq
 ----------------------------------------------------------------------

 Structure from the checkpoint file:  "/scratch/puck/g09_590bdcbc-baff-459a-afe4-81758a9ddf15/Gau-104091.chk"
 -----
 titel
 -----
 Charge =  0 Multiplicity = 1

                         Standard orientation:
 ---------------------------------------------------------------------
 Center     Atomic      Atomic             Coordinates (Angstroms)
 Number     Number       Type             X           Y           Z
 ---------------------------------------------------------------------
      1          6           0       -2.912362   -0.590722    0.269845
      2          6           0       -1.504664   -0.060912    0.438270
      3          6           0       -0.881903    0.720649   -0.689638
      4          8           0        0.141462    1.649621   -0.402072
      5          6           0        1.327511    0.971814   -0.072044
      6          6           0        1.427381    0.255973    1.264229
      7          6           0        1.070841   -0.503776    0.001531
      8          8           0        1.981208   -1.404210   -0.549443
      9          6           0       -0.388755   -0.673603   -0.391464
     10          1           0       -3.070376   -1.498263    0.862740
     11          1           0       -3.653708    0.151616    0.584683
     12          1           0       -3.117867   -0.842178   -0.776287
     13          1           0       -1.258668    0.262248    1.444747
     14          1           0       -1.471403    0.995466   -1.558933
     15          1           0        2.217548    1.403069   -0.516742
     16          1           0        2.439622    0.103528    1.625869
     17          1           0        0.689375    0.437976    2.035940
     18          1           0        2.017596   -2.177055    0.024820
     19          1           0       -0.601784   -1.516233   -1.039094
 ---------------------------------------------------------------------

 SCF Done:  E(RB3LYP) =  -423.144110179     A.U. after    1 cycles

 The electronic state is 1-A.
 Alpha  occ. eigenvalues --  -19.14818 -19.14575 -10.24256 -10.23024 -10.23006
 Alpha  occ. eigenvalues --  -10.19202 -10.19032 -10.18412 -10.18239  -1.05280
 Alpha  occ. eigenvalues --   -1.02894  -0.85537  -0.83326  -0.71627  -0.64141
 Alpha  occ. eigenvalues --   -0.61127  -0.57904  -0.56010  -0.53313  -0.47854
 Alpha  occ. eigenvalues --   -0.46184  -0.45448  -0.43299  -0.41517  -0.40854
 Alpha  occ. eigenvalues --   -0.39377  -0.37082  -0.36506  -0.35997  -0.30396
 Alpha  occ. eigenvalues --   -0.29650  -0.28543  -0.24961  -0.22458
 Alpha virt. eigenvalues --    0.07486   0.08748   0.09989   0.11490   0.11785
 Alpha virt. eigenvalues --    0.13346   0.15434   0.15637   0.16316   0.17747
 Alpha virt. eigenvalues --    0.18792   0.19053   0.20067   0.20908   0.23177

 Mulliken charges:
               1
     1  C   -0.418808
     2  C   -0.065274
     3  C    0.092980
     4  O   -0.262159
     5  C    0.057888
     6  C   -0.394129
     7  C    0.359854
     8  O   -0.468890
     9  C   -0.168329
    10  H    0.119700
    11  H    0.122294
    12  H    0.116747
    13  H    0.088649
    14  H    0.097091
    15  H    0.110110
    16  H    0.114656
    17  H    0.120319
    18  H    0.284810
    19  H    0.092492
 Sum of Mulliken charges =   0.00000

 Dipole moment (field-independent basis, Debye):
    X=             -0.5867    Y=             -1.7817    Z=              1.1184  Tot=              2.1839
 Quadrupole moment (field-independent basis, Debye-Ang):
   XX=            -51.0229   YY=            -53.5816   ZZ=            -52.7448
   XY=             -0.2570   XZ=              3.2238   YZ=             -1.3850

  Exact polarizability:  88.387   1.172  68.657   2.272  -0.840  66.717
 Approx polarizability: 112.190  -1.255 108.504   1.050  -2.044 103.460

                      1                      2                      3
                      A                      A                      A
 Frequencies --    170.0760               187.5543               212.7313
 Red. masses --      1.9745                 1.8179                 2.4767
 Frc consts  --      0.0337                 0.0377                 0.0660
 IR Inten    --      0.6495                 0.6445                 0.3908

                      4                      5                      6
                      A                      A                      A
 Frequencies --    234.8991               281.6302               310.1090
 Red. masses --      2.2164                 2.3673                 1.2610
 Frc consts  --      0.0721                 0.1106                 0.0714
 IR Inten    --      0.9524                 7.9964                77.5414

                      7                      8                      9
                      A                      A                      A
 Frequencies --    370.3481               414.7771               462.7832
 Red. masses --      3.7489                 3.5299                 2.9108
 Frc consts  --      0.3030                 0.3578                 0.3673
 IR Inten    --      5.3811                16.9126                 4.4054

                     10                     11                     12
                      A                      A                      A
 Frequencies --    475.7635               607.4946               706.4173
 Red. masses --      2.8214                 3.6579                 5.1638
 Frc consts  --      0.3763                 0.7954                 1.5183
 IR Inten    --      0.7007                 3.3277                11.5049

                     13                     14                     15
                      A                      A                      A
 Frequencies --    758.7100               813.4910               839.3413
 Red. masses --      3.0939                 1.7591                 2.3926
 Frc consts  --      1.0493                 0.6859                 0.9931
 IR Inten    --      3.6098                17.7265                 5.9722

                     16                     17                     18
                      A                      A                      A
 Frequencies --    858.0866               892.9725               919.8936
 Red. masses --      2.1309                 1.8706                 1.8495
 Frc consts  --      0.9244                 0.8788                 0.9221
 IR Inten    --      4.4752                11.0624                 3.5747

                     19                     20                     21
                      A                      A                      A
 Frequencies --    961.2646               992.6398              1006.9615
 Red. masses --      2.1189                 1.9470                 1.7765
 Frc consts  --      1.1536                 1.1303                 1.0613
 IR Inten    --     19.4193                 7.9805                 3.2409

                     22                     23                     24
                      A                      A                      A
 Frequencies --   1013.1685              1035.8730              1058.2868
 Red. masses --      1.4635                 1.9151                 1.8972
 Frc consts  --      0.8851                 1.2108                 1.2519
 IR Inten    --      9.1465                14.6266                 8.8411

                     25                     26                     27
                      A                      A                      A
 Frequencies --   1072.7883              1093.8564              1126.3297
 Red. masses --      1.6425                 1.6751                 1.7520
 Frc consts  --      1.1137                 1.1809                 1.3095
 IR Inten    --     20.3651                 1.4606                 1.2280

                     28                     29                     30
                      A                      A                      A
 Frequencies --   1133.0906              1169.4892              1200.3320
 Red. masses --      1.9759                 3.4494                 1.8876
 Frc consts  --      1.4947                 2.7796                 1.6024
 IR Inten    --     21.4133                80.6137                30.8091

                     31                     32                     33
                      A                      A                      A
 Frequencies --   1220.2547              1257.4430              1292.2971
 Red. masses --      2.0387                 1.6184                 1.5528
 Frc consts  --      1.7886                 1.5077                 1.5279
 IR Inten    --     59.4972                32.7340                53.7039

                     34                     35                     36
                      A                      A                      A
 Frequencies --   1310.0757              1341.1517              1401.1306
 Red. masses --      1.7626                 1.3540                 1.7247
 Frc consts  --      1.7824                 1.4349                 1.9949
 IR Inten    --     20.3857                20.6001                 0.8622

                     37                     38                     39
                      A                      A                      A
 Frequencies --   1415.4977              1431.7764              1479.4169
 Red. masses --      1.2446                 2.1447                 1.5745
 Frc consts  --      1.4692                 2.5904                 2.0304
 IR Inten    --      1.5612                 7.1296                14.1401

                     40                     41                     42
                      A                      A                      A
 Frequencies --   1494.4083              1500.6270              3027.0194
 Red. masses --      1.0467                 1.0623                 1.0349
 Frc consts  --      1.3773                 1.4094                 5.5870
 IR Inten    --      2.7116                 6.1633                36.1208

                     43                     44                     45
                      A                      A                      A
 Frequencies --   3091.6264              3094.6129              3132.1627
 Red. masses --      1.1012                 1.1008                 1.0551
 Frc consts  --      6.2013                 6.2109                 6.0987
 IR Inten    --     22.8015                20.4827                 4.7053

                     46                     47                     48
                      A                      A                      A
 Frequencies --   3153.2024              3159.7611              3175.0679
 Red. masses --      1.0908                 1.0865                 1.0920
 Frc consts  --      6.3902                 6.3915                 6.4862
 IR Inten    --     17.6347                20.4929                16.4284

                     49                     50                     51
                      A                      A                      A
 Frequencies --   3180.3880              3226.2304              3794.5489
 Red. masses --      1.0914                 1.1154                 1.0662
 Frc consts  --      6.5041                 6.8403                 9.0450
 IR Inten    --      8.6032                 8.2761                20.3632

 - Thermochemistry -
 -------------------
 Temperature   298.150 Kelvin.  Pressure   1.00000 Atm.
 Atom     1 has atomic number  6 and mass  12.00000

 Molecular mass:   126.06808 amu.
 Principal axes and moments of inertia in atomic units:
                           1         2         3
     Eigenvalues --   610.816941309.293611550.52091
           X            0.99960   0.02622   0.01091
           Y           -0.02624   0.99965   0.00196
           Z           -0.01085  -0.00225   0.99994
 This molecule is an asymmetric top.
 Rotational symmetry number  1.
 Warning -- assumption of classical behavior for rotation
           may cause significant error
 Rotational temperatures (Kelvin)      0.14180     0.06615     0.05586
 Rotational constants (GHZ):           2.95464     1.37841     1.16396
 Zero-point vibrational energy     416060.3 (Joules/Mol)
                                   99.44081 (Kcal/Mol)
 Warning -- explicit consideration of  11 degrees of freedom as
           vibrations may cause significant error
 Vibrational temperatures:    244.70   269.85   306.07   337.97   405.20
          (Kelvin)            446.18   532.85   596.77   665.84   684.52
                              874.05  1016.38  1091.61  1170.43  1207.62
                             1234.59  1284.79  1323.52  1383.04  1428.19
                             1448.79  1457.72  1490.39  1522.64  1543.50
                             1573.81  1620.54  1630.26  1682.63  1727.01
                             1755.67  1809.18  1859.32  1884.90  1929.62
                             2015.91  2036.58  2060.00  2128.55  2150.12
                             2159.06  4355.20  4448.16  4452.45  4506.48
                             4536.75  4546.19  4568.21  4575.86  4641.82
                             5459.50

 Zero-point correction=                           0.158469 (Hartree/Particle)
 Thermal correction to Energy=                    0.166633
 Thermal correction to Enthalpy=                  0.167577
 Thermal correction to Gibbs Free Energy=         0.126329
 Sum of electronic and zero-point Energies=           -422.985641
 Sum of electronic and thermal Energies=              -422.977477
 Sum of electronic and thermal Enthalpies=            -422.976533
 Sum of electronic and thermal Free Energies=         -423.017782

                     E (Thermal)             CV                S
                      KCal/Mol        Cal/Mol-Kelvin    Cal/Mol-Kelvin
 Total                  104.564             32.638             86.815
 Electronic               0.000              0.000              0.000
 Translational            0.889              2.981             40.409
 Rotational               0.889              2.981             28.607
 Vibrational            102.786             26.676             17.800
 Vibration     1          0.625              1.879              2.435
 Vibration     2          0.632              1.857              2.252
 Vibration     3          0.644              1.822              2.020
 Vibration     4          0.655              1.787              1.841
 Vibration     5          0.681              1.708              1.524
 Vibration     6          0.699              1.654              1.362
 Vibration     7          0.742              1.533              1.078
 Vibration     8          0.778              1.438              0.910
 Vibration     9          0.820              1.333              0.758
 Vibration    10          0.832              1.304              0.722
 Vibration    11          0.966              1.016              0.437

 Normal termination of Gaussian 09 at Tue Jan 28 00:29:26 2020.
