 Gaussian 09, Revision D.01,
 Gaussian 09:  ES64L-G09RevD.01 24-Apr-2013

 -----------------------------
 # b3lyp 6-31G(2df,p) opt Freq
 -----------------------------

 -----
 titel
 -----
 Symbolic Z-matrix:
 Charge =  0 Multiplicity = 1

 SCF Done:  E(RB3LYP) =  -423.145470818     A.U. after   14 cycles
 Optimization completed.
    -- Stationary point found.
 Normal termination of Gaussian 09 at Tue Jan 28 09:14:53 2020.

 ----------------------------------------------------------------------
 #N Geom=AllCheck Guess=TCheck SCRF=Check GenChk RB3LYP/6-31G(2df,p) Fr
 eq
 ----------------------------------------------------------------------

 Structure from the checkpoint file:  "/scratch/puck/g09_a7457632-227f-4615-a234-900b23ff6582/Gau-130453.chk"
 -----
 titel
 -----
 Charge =  0 Multiplicity = 1

                         Standard orientation:
 ---------------------------------------------------------------------
 Center     Atomic      Atomic             Coordinates (Angstroms)
 Number     Number       Type             X           Y           Z
 ---------------------------------------------------------------------
      1          6           0       -2.733290   -0.133224    0.354643
      2          6           0       -1.632122    0.511432   -0.496143
      3          6           0       -0.271876   -0.075872   -0.238616
      4          8           0        0.167863   -0.057370    1.180097
      5          6           0        1.493783   -0.312185    0.602141
      6          6           0        1.306761   -1.651826   -0.094706
      7          6           0        0.107219   -1.492052   -0.665320
      8          6           0        1.089629    0.685648   -0.545937
      9          8           0        1.104734    2.034155   -0.218461
     10          1           0       -2.832662   -1.201175    0.135339
     11          1           0       -2.503511   -0.034124    1.418804
     12          1           0       -3.699902    0.341896    0.164236
     13          1           0       -1.855877    0.396619   -1.564303
     14          1           0       -1.587138    1.589647   -0.304057
     15          1           0        2.325385   -0.137794    1.283466
     16          1           0        2.009982   -2.470039   -0.142609
     17          1           0       -0.457702   -2.144400   -1.315666
     18          1           0        1.543522    0.561208   -1.530951
     19          1           0        0.716506    2.092364    0.666279
 ---------------------------------------------------------------------

 SCF Done:  E(RB3LYP) =  -423.145470818     A.U. after    1 cycles

 The electronic state is 1-A.
 Alpha  occ. eigenvalues --  -19.14535 -19.13565 -10.24130 -10.24101 -10.23923
 Alpha  occ. eigenvalues --  -10.18875 -10.18752 -10.18703 -10.17533  -1.06181
 Alpha  occ. eigenvalues --   -1.01484  -0.80952  -0.78098  -0.69201  -0.68550
 Alpha  occ. eigenvalues --   -0.61892  -0.57186  -0.54773  -0.50391  -0.50042
 Alpha  occ. eigenvalues --   -0.45638  -0.44865  -0.42905  -0.40729  -0.39340
 Alpha  occ. eigenvalues --   -0.37722  -0.37002  -0.36370  -0.34337  -0.33892
 Alpha  occ. eigenvalues --   -0.32981  -0.26037  -0.25567  -0.24539
 Alpha virt. eigenvalues --   -0.00138   0.08365   0.10234   0.11583   0.12714
 Alpha virt. eigenvalues --    0.13635   0.14944   0.15615   0.15656   0.16087
 Alpha virt. eigenvalues --    0.17148   0.18183   0.19228   0.20136   0.21647

 Mulliken charges:
               1
     1  C   -0.380360
     2  C   -0.312762
     3  C    0.337002
     4  O   -0.350198
     5  C   -0.047871
     6  C   -0.085418
     7  C   -0.127438
     8  C    0.148422
     9  O   -0.443705
    10  H    0.118106
    11  H    0.139412
    12  H    0.112844
    13  H    0.103699
    14  H    0.104694
    15  H    0.082739
    16  H    0.113318
    17  H    0.111184
    18  H    0.089842
    19  H    0.286488
 Sum of Mulliken charges =   0.00000

 Dipole moment (field-independent basis, Debye):
    X=             -0.0809    Y=             -1.0007    Z=             -0.7179  Tot=              1.2343
 Quadrupole moment (field-independent basis, Debye-Ang):
   XX=            -50.2225   YY=            -54.4558   ZZ=            -53.8845
   XY=             -3.2116   XZ=              2.2870   YZ=              3.6285

  Exact polarizability:  85.839  -3.354  77.031   5.073   2.894  63.544
 Approx polarizability: 123.062  -3.435 114.538  11.058   3.996 104.431

                      1                      2                      3
                      A                      A                      A
 Frequencies --     81.8790               155.1001               201.8451
 Red. masses --      2.4540                 3.3810                 1.2136
 Frc consts  --      0.0097                 0.0479                 0.0291
 IR Inten    --      0.3118                 0.2406                 0.8149

                      4                      5                      6
                      A                      A                      A
 Frequencies --    252.1033               274.3747               359.3434
 Red. masses --      3.8107                 2.6134                 2.6156
 Frc consts  --      0.1427                 0.1159                 0.1990
 IR Inten    --     10.6892                 0.8386                 1.4694

                      7                      8                      9
                      A                      A                      A
 Frequencies --    437.6393               487.8473               535.1390
 Red. masses --      3.0035                 3.8001                 1.9009
 Frc consts  --      0.3389                 0.5329                 0.3207
 IR Inten    --      5.2148                 4.1438                13.2191

                     10                     11                     12
                      A                      A                      A
 Frequencies --    582.9018               621.1944               672.0350
 Red. masses --      1.5434                 3.4661                 2.3852
 Frc consts  --      0.3090                 0.7880                 0.6347
 IR Inten    --     71.1483                 3.0394                 4.9729

                     13                     14                     15
                      A                      A                      A
 Frequencies --    707.9242               736.4848               781.5795
 Red. masses --      2.3591                 3.7556                 1.3333
 Frc consts  --      0.6966                 1.2002                 0.4799
 IR Inten    --     25.9588                10.1943                 1.9649

                     16                     17                     18
                      A                      A                      A
 Frequencies --    849.8662               879.3856               907.5286
 Red. masses --      3.4676                 2.1629                 1.9973
 Frc consts  --      1.4756                 0.9855                 0.9692
 IR Inten    --     22.9688                12.4992                 8.6857

                     19                     20                     21
                      A                      A                      A
 Frequencies --    911.6588               922.1940               941.3941
 Red. masses --      2.6578                 2.1607                 2.4240
 Frc consts  --      1.3015                 1.0827                 1.2657
 IR Inten    --     30.2670                18.0523                13.2529

                     22                     23                     24
                      A                      A                      A
 Frequencies --    978.4023               994.3867              1072.0469
 Red. masses --      3.0415                 2.1665                 1.3327
 Frc consts  --      1.7154                 1.2622                 0.9024
 IR Inten    --     10.1349                 5.8622                 6.7681

                     25                     26                     27
                      A                      A                      A
 Frequencies --   1099.8503              1124.3869              1155.9743
 Red. masses --      2.0521                 2.7807                 1.7570
 Frc consts  --      1.4626                 2.0713                 1.3833
 IR Inten    --     11.3727               109.4589                 8.7032

                     28                     29                     30
                      A                      A                      A
 Frequencies --   1183.2080              1191.8544              1255.1616
 Red. masses --      1.5759                 1.3760                 1.6210
 Frc consts  --      1.2999                 1.1517                 1.5047
 IR Inten    --     22.8569                44.4799                 3.7870

                     31                     32                     33
                      A                      A                      A
 Frequencies --   1268.9820              1290.1988              1303.0130
 Red. masses --      1.4552                 1.5298                 1.4601
 Frc consts  --      1.3807                 1.5003                 1.4606
 IR Inten    --      3.4699                 2.4240                 5.1846

                     34                     35                     36
                      A                      A                      A
 Frequencies --   1336.9913              1388.1109              1411.0251
 Red. masses --      1.6989                 2.3552                 1.2289
 Frc consts  --      1.7893                 2.6738                 1.4415
 IR Inten    --     11.7607                 3.1837                 5.2063

                     37                     38                     39
                      A                      A                      A
 Frequencies --   1428.7472              1481.3422              1497.2422
 Red. masses --      1.3089                 1.0686                 1.0399
 Frc consts  --      1.5742                 1.3816                 1.3736
 IR Inten    --    104.7190                 1.7781                 5.6399

                     40                     41                     42
                      A                      A                      A
 Frequencies --   1508.2692              1608.6782              3030.3601
 Red. masses --      1.0796                 6.0096                 1.0603
 Frc consts  --      1.4471                 9.1629                 5.7370
 IR Inten    --      6.2836                 0.7890                19.0333

                     43                     44                     45
                      A                      A                      A
 Frequencies --   3042.0901              3065.9627              3106.6010
 Red. masses --      1.0358                 1.1002                 1.0881
 Frc consts  --      5.6478                 6.0932                 6.1872
 IR Inten    --     23.9322                 9.4853                33.5947

                     46                     47                     48
                      A                      A                      A
 Frequencies --   3109.3030              3124.1469              3137.3266
 Red. masses --      1.1016                 1.1017                 1.0919
 Frc consts  --      6.2747                 6.3357                 6.3323
 IR Inten    --     35.1478                20.5477                35.3354

                     49                     50                     51
                      A                      A                      A
 Frequencies --   3226.9938              3254.1711              3746.3691
 Red. masses --      1.0871                 1.1103                 1.0639
 Frc consts  --      6.6699                 6.9276                 8.7977
 IR Inten    --      2.5992                 5.5215                23.9981

 - Thermochemistry -
 -------------------
 Temperature   298.150 Kelvin.  Pressure   1.00000 Atm.
 Atom     1 has atomic number  6 and mass  12.00000

 Molecular mass:   126.06808 amu.
 Principal axes and moments of inertia in atomic units:
                           1         2         3
     Eigenvalues --   742.882001082.403491451.47077
           X            0.99953  -0.03048   0.00126
           Y            0.03045   0.99930   0.02184
           Z           -0.00193  -0.02179   0.99976
 This molecule is an asymmetric top.
 Rotational symmetry number  1.
 Warning -- assumption of classical behavior for rotation
           may cause significant error
 Rotational temperatures (Kelvin)      0.11659     0.08002     0.05967
 Rotational constants (GHZ):           2.42938     1.66735     1.24339
 Zero-point vibrational energy     417021.9 (Joules/Mol)
                                   99.67062 (Kcal/Mol)
 Warning -- explicit consideration of  10 degrees of freedom as
           vibrations may cause significant error
 Vibrational temperatures:    117.81   223.15   290.41   362.72   394.76
          (Kelvin)            517.01   629.66   701.90   769.94   838.66
                              893.76   966.91  1018.54  1059.64  1124.52
                             1222.77  1265.24  1305.73  1311.67  1326.83
                             1354.45  1407.70  1430.70  1542.43  1582.44
                             1617.74  1663.19  1702.37  1714.81  1805.90
                             1825.78  1856.31  1874.74  1923.63  1997.18
                             2030.15  2055.65  2131.32  2154.19  2170.06
                             2314.53  4360.01  4376.88  4411.23  4469.70
                             4473.59  4494.94  4513.91  4642.92  4682.02
                             5390.18

 Zero-point correction=                           0.158835 (Hartree/Particle)
 Thermal correction to Energy=                    0.166990
 Thermal correction to Enthalpy=                  0.167934
 Thermal correction to Gibbs Free Energy=         0.126287
 Sum of electronic and zero-point Energies=           -422.986636
 Sum of electronic and thermal Energies=              -422.978481
 Sum of electronic and thermal Enthalpies=            -422.977537
 Sum of electronic and thermal Free Energies=         -423.019184

                     E (Thermal)             CV                S
                      KCal/Mol        Cal/Mol-Kelvin    Cal/Mol-Kelvin
 Total                  104.788             32.364             87.654
 Electronic               0.000              0.000              0.000
 Translational            0.889              2.981             40.409
 Rotational               0.889              2.981             28.547
 Vibrational            103.010             26.402             18.698
 Vibration     1          0.600              1.962              3.845
 Vibration     2          0.620              1.897              2.609
 Vibration     3          0.639              1.837              2.116
 Vibration     4          0.664              1.759              1.716
 Vibration     5          0.677              1.721              1.568
 Vibration     6          0.734              1.556              1.125
 Vibration     7          0.798              1.388              0.834
 Vibration     8          0.844              1.277              0.689
 Vibration     9          0.890              1.172              0.576
 Vibration    10          0.940              1.068              0.480

 Optimization completed.
    -- Stationary point found.
 Normal termination of Gaussian 09 at Tue Jan 28 09:56:53 2020.
