 Gaussian 09, Revision D.01,
 Gaussian 09:  ES64L-G09RevD.01 24-Apr-2013

 -----------------------------
 # b3lyp 6-31G(2df,p) opt Freq
 -----------------------------

 -----
 titel
 -----
 Symbolic Z-matrix:
 Charge =  0 Multiplicity = 1

 SCF Done:  E(RB3LYP) =  -423.169040183     A.U. after   14 cycles
 Optimization completed.
    -- Stationary point found.
 Normal termination of Gaussian 09 at Tue Jan 28 02:25:12 2020.

 ----------------------------------------------------------------------
 #N Geom=AllCheck Guess=TCheck SCRF=Check GenChk RB3LYP/6-31G(2df,p) Fr
 eq
 ----------------------------------------------------------------------

 Structure from the checkpoint file:  "/scratch/puck/g09_096853a8-68d5-4ac4-9c59-265f291de85d/Gau-5109.chk"
 -----
 titel
 -----
 Charge =  0 Multiplicity = 1

                         Standard orientation:
 ---------------------------------------------------------------------
 Center     Atomic      Atomic             Coordinates (Angstroms)
 Number     Number       Type             X           Y           Z
 ---------------------------------------------------------------------
      1          6           0        2.502074   -0.901113    0.114020
      2          6           0        1.273191   -0.283327   -0.518874
      3          8           0        1.167576    1.157741   -0.301495
      4          6           0       -0.178920    1.037361    0.143641
      5          6           0       -1.189134    2.005684   -0.374305
      6          6           0       -0.266185    0.236181    1.383730
      7          6           0       -0.117603   -0.522084    0.069910
      8          6           0       -1.163224   -1.400756   -0.450912
      9          8           0       -2.289051   -1.472182   -0.005784
     10          1           0        3.406817   -0.434641   -0.287804
     11          1           0        2.503620   -0.774006    1.199522
     12          1           0        2.541453   -1.972005   -0.111907
     13          1           0        1.265019   -0.470730   -1.601646
     14          1           0       -1.045927    2.987324    0.091573
     15          1           0       -1.097710    2.124533   -1.457449
     16          1           0       -2.197534    1.656838   -0.136658
     17          1           0        0.555641    0.241817    2.092972
     18          1           0       -1.259693    0.126450    1.805724
     19          1           0       -0.861075   -2.001736   -1.339360
 ---------------------------------------------------------------------

 SCF Done:  E(RB3LYP) =  -423.169040183     A.U. after    1 cycles

 The electronic state is 1-A.
 Alpha  occ. eigenvalues --  -19.15051 -19.12969 -10.26803 -10.26672 -10.25335
 Alpha  occ. eigenvalues --  -10.20732 -10.20109 -10.19286 -10.18729  -1.06680
 Alpha  occ. eigenvalues --   -1.03575  -0.85009  -0.77850  -0.73126  -0.68690
 Alpha  occ. eigenvalues --   -0.61634  -0.58516  -0.52596  -0.51855  -0.49565
 Alpha  occ. eigenvalues --   -0.45567  -0.43724  -0.43343  -0.41818  -0.41484
 Alpha  occ. eigenvalues --   -0.40833  -0.38766  -0.38613  -0.37237  -0.35684
 Alpha  occ. eigenvalues --   -0.33027  -0.27578  -0.25463  -0.24313
 Alpha virt. eigenvalues --   -0.02789   0.07650   0.09146   0.10716   0.11506
 Alpha virt. eigenvalues --    0.12255   0.14109   0.14898   0.15264   0.16161
 Alpha virt. eigenvalues --    0.16776   0.18252   0.18587   0.19821   0.21725

 Mulliken charges:
               1
     1  C   -0.411791
     2  C    0.079013
     3  O   -0.330078
     4  C    0.436463
     5  C   -0.486410
     6  C   -0.387259
     7  C    0.097615
     8  C    0.060866
     9  O   -0.287453
    10  H    0.133212
    11  H    0.125623
    12  H    0.124117
    13  H    0.087855
    14  H    0.138949
    15  H    0.133483
    16  H    0.149852
    17  H    0.121087
    18  H    0.148295
    19  H    0.066561
 Sum of Mulliken charges =   0.00000

 Dipole moment (field-independent basis, Debye):
    X=              1.7157    Y=              0.3145    Z=             -0.2774  Tot=              1.7662
 Quadrupole moment (field-independent basis, Debye-Ang):
   XX=            -59.2753   YY=            -54.3309   ZZ=            -50.8721
   XY=             -8.2099   XZ=              0.4629   YZ=              1.6499

  Exact polarizability:  85.132  -0.642  80.048  -2.104   4.547  69.224
 Approx polarizability: 124.138   9.724 121.790  -7.303   6.804 105.562

                      1                      2                      3
                      A                      A                      A
 Frequencies --     89.0423               158.0738               180.6831
 Red. masses --      4.9806                 2.9822                 2.0805
 Frc consts  --      0.0233                 0.0439                 0.0400
 IR Inten    --      5.8399                 2.7688                 5.8102

                      4                      5                      6
                      A                      A                      A
 Frequencies --    194.7666               205.4758               228.4761
 Red. masses --      1.2552                 1.4607                 1.8102
 Frc consts  --      0.0281                 0.0363                 0.0557
 IR Inten    --      1.5238                 1.1134                 1.5742

                      7                      8                      9
                      A                      A                      A
 Frequencies --    240.6541               345.3734               387.3342
 Red. masses --      2.0914                 2.6065                 4.0365
 Frc consts  --      0.0714                 0.1832                 0.3568
 IR Inten    --      9.4833                 0.2281                 0.3871

                     10                     11                     12
                      A                      A                      A
 Frequencies --    449.7704               515.0598               561.9001
 Red. masses --      2.4734                 3.6658                 3.0415
 Frc consts  --      0.2948                 0.5730                 0.5658
 IR Inten    --      0.8438                10.0698                 3.1657

                     13                     14                     15
                      A                      A                      A
 Frequencies --    658.0213               675.0119               741.4116
 Red. masses --      3.3683                 4.1759                 3.8401
 Frc consts  --      0.8593                 1.1211                 1.2437
 IR Inten    --     17.3672                 3.4091                 7.6503

                     16                     17                     18
                      A                      A                      A
 Frequencies --    820.9652               872.6485               909.6133
 Red. masses --      4.3298                 2.6680                 1.6426
 Frc consts  --      1.7194                 1.1971                 0.8008
 IR Inten    --     74.2320                19.7812                16.2841

                     19                     20                     21
                      A                      A                      A
 Frequencies --    961.7028               982.6414              1031.2594
 Red. masses --      1.3188                 1.9338                 1.9883
 Frc consts  --      0.7187                 1.1002                 1.2459
 IR Inten    --     14.4005                32.1002                34.9624

                     22                     23                     24
                      A                      A                      A
 Frequencies --   1042.4043              1064.3265              1089.0723
 Red. masses --      1.6050                 1.4124                 2.1150
 Frc consts  --      1.0275                 0.9427                 1.4780
 IR Inten    --     21.8320                 0.9374                62.4224

                     25                     26                     27
                      A                      A                      A
 Frequencies --   1098.9181              1130.9914              1196.5038
 Red. masses --      1.6228                 2.3576                 2.0516
 Frc consts  --      1.1546                 1.7768                 1.7305
 IR Inten    --      4.3495                10.5174                24.6597

                     28                     29                     30
                      A                      A                      A
 Frequencies --   1234.8429              1256.1364              1330.4992
 Red. masses --      2.6715                 2.5740                 1.9633
 Frc consts  --      2.4001                 2.3930                 2.0477
 IR Inten    --     34.6681                33.8137                15.2472

                     31                     32                     33
                      A                      A                      A
 Frequencies --   1371.0964              1392.9939              1410.5535
 Red. masses --      1.5809                 1.2936                 1.3354
 Frc consts  --      1.7510                 1.4789                 1.5655
 IR Inten    --     36.6763                11.2998                30.6229

                     34                     35                     36
                      A                      A                      A
 Frequencies --   1423.8033              1438.7658              1474.9797
 Red. masses --      1.3865                 1.4736                 1.0491
 Frc consts  --      1.6561                 1.7973                 1.3448
 IR Inten    --      1.2432                12.7259                 3.3302

                     37                     38                     39
                      A                      A                      A
 Frequencies --   1483.6729              1484.3306              1493.3052
 Red. masses --      1.0728                 1.4980                 1.0486
 Frc consts  --      1.3914                 1.9445                 1.3778
 IR Inten    --      4.9295                32.8187                 3.2441

                     40                     41                     42
                      A                      A                      A
 Frequencies --   1498.3685              1782.2124              2863.9304
 Red. masses --      1.2686                 9.8316                 1.0813
 Frc consts  --      1.6780                18.3989                 5.2256
 IR Inten    --      8.1715               205.9747               120.8609

                     43                     44                     45
                      A                      A                      A
 Frequencies --   3008.8042              3037.0072              3040.9572
 Red. masses --      1.0847                 1.0367                 1.0358
 Frc consts  --      5.7857                 5.6338                 5.6433
 IR Inten    --     38.4680                17.9093                12.4869

                     46                     47                     48
                      A                      A                      A
 Frequencies --   3103.4588              3110.4254              3122.9565
 Red. masses --      1.0986                 1.1008                 1.0839
 Frc consts  --      6.2345                 6.2745                 6.2284
 IR Inten    --     10.1995                13.3364                 8.1924

                     49                     50                     51
                      A                      A                      A
 Frequencies --   3127.0415              3129.8180              3224.0858
 Red. masses --      1.0750                 1.0980                 1.1162
 Frc consts  --      6.1934                 6.3372                 6.8359
 IR Inten    --     15.7261                13.1676                 2.2344

 - Thermochemistry -
 -------------------
 Temperature   298.150 Kelvin.  Pressure   1.00000 Atm.
 Atom     1 has atomic number  6 and mass  12.00000

 Molecular mass:   126.06808 amu.
 Principal axes and moments of inertia in atomic units:
                           1         2         3
     Eigenvalues --   807.156811148.298051612.34048
           X            0.98498  -0.17251   0.00674
           Y            0.17250   0.98501   0.00320
           Z           -0.00719  -0.00199   0.99997
 This molecule is an asymmetric top.
 Rotational symmetry number  1.
 Warning -- assumption of classical behavior for rotation
           may cause significant error
 Rotational temperatures (Kelvin)      0.10731     0.07543     0.05372
 Rotational constants (GHZ):           2.23592     1.57167     1.11933
 Zero-point vibrational energy     410774.6 (Joules/Mol)
                                   98.17748 (Kcal/Mol)
 Warning -- explicit consideration of  12 degrees of freedom as
           vibrations may cause significant error
 Vibrational temperatures:    128.11   227.43   259.96   280.23   295.63
          (Kelvin)            328.73   346.25   496.91   557.29   647.12
                              741.06   808.45   946.74   971.19  1066.72
                             1181.18  1255.54  1308.73  1383.67  1413.80
                             1483.75  1499.79  1531.33  1566.93  1581.10
                             1627.24  1721.50  1776.66  1807.30  1914.29
                             1972.70  2004.21  2029.47  2048.53  2070.06
                             2122.16  2134.67  2135.62  2148.53  2155.82
                             2564.20  4120.55  4328.99  4369.57  4375.25
                             4465.18  4475.20  4493.23  4499.11  4503.10
                             4638.73

 Zero-point correction=                           0.156456 (Hartree/Particle)
 Thermal correction to Energy=                    0.165653
 Thermal correction to Enthalpy=                  0.166597
 Thermal correction to Gibbs Free Energy=         0.122781
 Sum of electronic and zero-point Energies=           -423.012584
 Sum of electronic and thermal Energies=              -423.003387
 Sum of electronic and thermal Enthalpies=            -423.002443
 Sum of electronic and thermal Free Energies=         -423.046259

                     E (Thermal)             CV                S
                      KCal/Mol        Cal/Mol-Kelvin    Cal/Mol-Kelvin
 Total                  103.949             34.156             92.219
 Electronic               0.000              0.000              0.000
 Translational            0.889              2.981             40.409
 Rotational               0.889              2.981             28.793
 Vibrational            102.171             28.194             23.017
 Vibration     1          0.602              1.957              3.681
 Vibration     2          0.621              1.894              2.573
 Vibration     3          0.630              1.866              2.321
 Vibration     4          0.635              1.847              2.182
 Vibration     5          0.640              1.832              2.084
 Vibration     6          0.651              1.798              1.891
 Vibration     7          0.658              1.778              1.798
 Vibration     8          0.724              1.585              1.187
 Vibration     9          0.756              1.497              1.010
 Vibration    10          0.809              1.361              0.796
 Vibration    11          0.870              1.217              0.622
 Vibration    12          0.918              1.114              0.520

 Normal termination of Gaussian 09 at Tue Jan 28 03:08:19 2020.
