 Gaussian 09, Revision D.01,
 Gaussian 09:  ES64L-G09RevD.01 24-Apr-2013

 -----------------------------
 # b3lyp 6-31G(2df,p) opt Freq
 -----------------------------

 -----
 titel
 -----
 Symbolic Z-matrix:
 Charge =  0 Multiplicity = 1

 SCF Done:  E(RB3LYP) =  -423.077753311     A.U. after   14 cycles
 Optimization completed.
    -- Stationary point found.
 Normal termination of Gaussian 09 at Tue Jan 28 08:24:23 2020.

 ----------------------------------------------------------------------
 #N Geom=AllCheck Guess=TCheck SCRF=Check GenChk RB3LYP/6-31G(2df,p) Fr
 eq
 ----------------------------------------------------------------------

 Structure from the checkpoint file:  "/scratch/puck/g09_3cc41a99-07dd-42f2-afe2-c8ddb3802267/Gau-81383.chk"
 -----
 titel
 -----
 Charge =  0 Multiplicity = 1

                         Standard orientation:
 ---------------------------------------------------------------------
 Center     Atomic      Atomic             Coordinates (Angstroms)
 Number     Number       Type             X           Y           Z
 ---------------------------------------------------------------------
      1          6           0        1.119738    1.725785   -0.026525
      2          6           0        0.537979    0.326476    0.165582
      3          6           0        1.617724   -0.688099    0.542546
      4          8           0        2.580546   -0.886896   -0.485521
      5          6           0       -0.787481    0.223887    0.970344
      6          6           0       -1.646329    0.687763   -0.250678
      7          8           0       -2.582121   -0.425254   -0.174991
      8          6           0       -1.284407   -1.006792    0.144435
      9          6           0       -0.493308   -0.148081   -0.893594
     10          1           0        1.620977    2.073884    0.884817
     11          1           0        1.854536    1.739110   -0.839699
     12          1           0        0.348938    2.459077   -0.280135
     13          1           0        2.101411   -0.383190    1.485075
     14          1           0        1.170852   -1.672340    0.715824
     15          1           0        3.142779   -0.107834   -0.523690
     16          1           0       -0.987537    0.428853    2.023065
     17          1           0       -2.032766    1.673348   -0.505996
     18          1           0       -1.236611   -2.072074    0.363996
     19          1           0       -0.353477   -0.367256   -1.951819
 ---------------------------------------------------------------------

 SCF Done:  E(RB3LYP) =  -423.077753311     A.U. after    1 cycles

 The electronic state is 1-A.
 Alpha  occ. eigenvalues --  -19.13802 -19.12761 -10.24889 -10.24842 -10.22794
 Alpha  occ. eigenvalues --  -10.20283 -10.20260 -10.19982 -10.18413  -1.06147
 Alpha  occ. eigenvalues --   -1.01801  -0.87409  -0.74568  -0.69249  -0.64943
 Alpha  occ. eigenvalues --   -0.64652  -0.58384  -0.52711  -0.51362  -0.50235
 Alpha  occ. eigenvalues --   -0.46876  -0.46003  -0.43426  -0.40775  -0.39849
 Alpha  occ. eigenvalues --   -0.38932  -0.38080  -0.34045  -0.31844  -0.31199
 Alpha  occ. eigenvalues --   -0.30764  -0.30205  -0.26436  -0.23148
 Alpha virt. eigenvalues --    0.05825   0.08132   0.10355   0.10645   0.11199
 Alpha virt. eigenvalues --    0.12557   0.13073   0.14054   0.15859   0.16380
 Alpha virt. eigenvalues --    0.17577   0.18715   0.19308   0.20443   0.20781

 Mulliken charges:
               1
     1  C   -0.478915
     2  C    0.277047
     3  C   -0.128680
     4  O   -0.421231
     5  C   -0.144585
     6  C    0.075862
     7  O   -0.332948
     8  C    0.077125
     9  C   -0.117101
    10  H    0.115402
    11  H    0.114091
    12  H    0.121736
    13  H    0.085277
    14  H    0.108080
    15  H    0.285760
    16  H    0.079019
    17  H    0.097405
    18  H    0.100887
    19  H    0.085768
 Sum of Mulliken charges =   0.00000

 Dipole moment (field-independent basis, Debye):
    X=              1.7796    Y=              1.7324    Z=              0.8721  Tot=              2.6323
 Quadrupole moment (field-independent basis, Debye-Ang):
   XX=            -59.8579   YY=            -51.9446   ZZ=            -52.4406
   XY=              2.1556   XZ=              0.6427   YZ=             -1.9107

  Exact polarizability:  81.932   2.102  73.318   0.081  -0.921  67.014
 Approx polarizability: 114.669   2.180 110.596  -0.894  -0.275 106.030

                      1                      2                      3
                      A                      A                      A
 Frequencies --     82.0901               183.4990               207.9284
 Red. masses --      3.5298                 4.1462                 1.0682
 Frc consts  --      0.0140                 0.0823                 0.0272
 IR Inten    --      1.8951                 3.6193                 9.3270

                      4                      5                      6
                      A                      A                      A
 Frequencies --    217.9754               266.5751               299.5740
 Red. masses --      2.5978                 1.9051                 1.4214
 Frc consts  --      0.0727                 0.0798                 0.0752
 IR Inten    --     11.2303                52.5444                44.8991

                      7                      8                      9
                      A                      A                      A
 Frequencies --    349.4050               411.6890               530.4320
 Red. masses --      2.0775                 6.3614                 3.5758
 Frc consts  --      0.1494                 0.6352                 0.5928
 IR Inten    --      7.0366                 2.9352                 1.5940

                     10                     11                     12
                      A                      A                      A
 Frequencies --    569.3154               668.3994               770.2647
 Red. masses --      3.3339                 3.4428                 3.6579
 Frc consts  --      0.6367                 0.9062                 1.2787
 IR Inten    --      2.7786                 6.5584                 0.3727

                     13                     14                     15
                      A                      A                      A
 Frequencies --    798.7639               804.7553               823.6326
 Red. masses --      2.7731                 2.1543                 1.9461
 Frc consts  --      1.0424                 0.8220                 0.7778
 IR Inten    --      9.4204                 1.2051                 6.7115

                     16                     17                     18
                      A                      A                      A
 Frequencies --    872.5663               883.6773               907.9712
 Red. masses --      1.8859                 3.7636                 3.3092
 Frc consts  --      0.8460                 1.7316                 1.6074
 IR Inten    --      1.3784                10.9755                56.0358

                     19                     20                     21
                      A                      A                      A
 Frequencies --    945.5053               958.3142               976.4620
 Red. masses --      1.5695                 1.5625                 1.3689
 Frc consts  --      0.8267                 0.8454                 0.7690
 IR Inten    --      5.6223                 6.5272                 4.5639

                     22                     23                     24
                      A                      A                      A
 Frequencies --   1027.5575              1062.2546              1097.8276
 Red. masses --      4.5205                 4.9481                 1.8120
 Frc consts  --      2.8122                 3.2896                 1.2867
 IR Inten    --      3.3154                90.8155                 9.0381

                     25                     26                     27
                      A                      A                      A
 Frequencies --   1110.6724              1118.8630              1146.8425
 Red. masses --      1.5672                 1.7105                 1.6053
 Frc consts  --      1.1390                 1.2616                 1.2440
 IR Inten    --      0.1567                 1.6113                 1.6155

                     28                     29                     30
                      A                      A                      A
 Frequencies --   1154.5485              1161.2840              1183.9334
 Red. masses --      1.5834                 1.7670                 1.5073
 Frc consts  --      1.2436                 1.4040                 1.2448
 IR Inten    --      1.0797                13.1617                10.6929

                     31                     32                     33
                      A                      A                      A
 Frequencies --   1200.0432              1231.8784              1255.8259
 Red. masses --      2.0846                 2.1117                 2.3788
 Frc consts  --      1.7687                 1.8881                 2.2103
 IR Inten    --      7.6565                14.1625                20.3052

                     34                     35                     36
                      A                      A                      A
 Frequencies --   1332.3942              1342.4852              1383.1590
 Red. masses --      1.7515                 2.4983                 1.2782
 Frc consts  --      1.8320                 2.6529                 1.4408
 IR Inten    --      8.0806                12.2350                 3.5117

                     37                     38                     39
                      A                      A                      A
 Frequencies --   1410.4173              1424.2500              1489.3295
 Red. masses --      1.2265                 1.2508                 1.0604
 Frc consts  --      1.4375                 1.4949                 1.3859
 IR Inten    --     10.0150                26.9285                 4.2683

                     40                     41                     42
                      A                      A                      A
 Frequencies --   1500.8565              1505.3266              2971.0080
 Red. masses --      1.0774                 1.0566                 1.0707
 Frc consts  --      1.4298                 1.4106                 5.5686
 IR Inten    --      1.1302                 5.5593                54.8086

                     43                     44                     45
                      A                      A                      A
 Frequencies --   3023.7995              3075.4926              3082.3580
 Red. masses --      1.0376                 1.0916                 1.1004
 Frc consts  --      5.5896                 6.0831                 6.1598
 IR Inten    --     28.1742                23.2006                22.9893

                     46                     47                     48
                      A                      A                      A
 Frequencies --   3104.3897              3107.0743              3121.6050
 Red. masses --      1.0959                 1.0909                 1.0892
 Frc consts  --      6.2227                 6.2047                 6.2532
 IR Inten    --     17.7461                31.5320                36.4388

                     49                     50                     51
                      A                      A                      A
 Frequencies --   3128.0021              3140.6352              3832.3834
 Red. masses --      1.0901                 1.1013                 1.0662
 Frc consts  --      6.2843                 6.4002                 9.2262
 IR Inten    --     74.2852                 4.2541                19.4280

 - Thermochemistry -
 -------------------
 Temperature   298.150 Kelvin.  Pressure   1.00000 Atm.
 Atom     1 has atomic number  6 and mass  12.00000

 Molecular mass:   126.06808 amu.
 Principal axes and moments of inertia in atomic units:
                           1         2         3
     Eigenvalues --   512.785151418.720331625.26881
           X            0.99990   0.01337   0.00415
           Y           -0.01322   0.99933  -0.03401
           Z           -0.00461   0.03396   0.99941
 This molecule is an asymmetric top.
 Rotational symmetry number  1.
 Warning -- assumption of classical behavior for rotation
           may cause significant error
 Rotational temperatures (Kelvin)      0.16891     0.06105     0.05329
 Rotational constants (GHZ):           3.51949     1.27209     1.11043
 Zero-point vibrational energy     414238.6 (Joules/Mol)
                                   99.00541 (Kcal/Mol)
 Warning -- explicit consideration of  10 degrees of freedom as
           vibrations may cause significant error
 Vibrational temperatures:    118.11   264.01   299.16   313.62   383.54
          (Kelvin)            431.02   502.72   592.33   763.17   819.12
                              961.68  1108.24  1149.24  1157.86  1185.02
                             1255.43  1271.41  1306.37  1360.37  1378.80
                             1404.91  1478.42  1528.35  1579.53  1598.01
                             1609.79  1650.05  1661.14  1670.83  1703.41
                             1726.59  1772.40  1806.85  1917.02  1931.53
                             1990.05  2029.27  2049.18  2142.81  2159.40
                             2165.83  4274.61  4350.57  4424.94  4434.82
                             4466.52  4470.38  4491.29  4500.49  4518.67
                             5513.94

 Zero-point correction=                           0.157775 (Hartree/Particle)
 Thermal correction to Energy=                    0.166023
 Thermal correction to Enthalpy=                  0.166968
 Thermal correction to Gibbs Free Energy=         0.125116
 Sum of electronic and zero-point Energies=           -422.919978
 Sum of electronic and thermal Energies=              -422.911730
 Sum of electronic and thermal Enthalpies=            -422.910786
 Sum of electronic and thermal Free Energies=         -422.952637

                     E (Thermal)             CV                S
                      KCal/Mol        Cal/Mol-Kelvin    Cal/Mol-Kelvin
 Total                  104.181             32.225             88.083
 Electronic               0.000              0.000              0.000
 Translational            0.889              2.981             40.409
 Rotational               0.889              2.981             28.560
 Vibrational            102.404             26.263             19.115
 Vibration     1          0.600              1.961              3.840
 Vibration     2          0.631              1.862              2.293
 Vibration     3          0.641              1.829              2.062
 Vibration     4          0.646              1.814              1.976
 Vibration     5          0.672              1.734              1.618
 Vibration     6          0.692              1.674              1.419
 Vibration     7          0.727              1.576              1.169
 Vibration     8          0.776              1.445              0.921
 Vibration     9          0.885              1.183              0.586
 Vibration    10          0.925              1.098              0.506

 Optimization completed.
    -- Stationary point found.
 Normal termination of Gaussian 09 at Tue Jan 28 09:14:18 2020.
