 Gaussian 09, Revision D.01,
 Gaussian 09:  ES64L-G09RevD.01 24-Apr-2013

 -----------------------------
 # b3lyp 6-31G(2df,p) opt Freq
 -----------------------------

 -----
 titel
 -----
 Symbolic Z-matrix:
 Charge =  0 Multiplicity = 1

 SCF Done:  E(RB3LYP) =  -423.125896446     A.U. after   14 cycles
 Optimization completed.
    -- Stationary point found.
 Normal termination of Gaussian 09 at Tue Jan 28 14:28:59 2020.

 ----------------------------------------------------------------------
 #N Geom=AllCheck Guess=TCheck SCRF=Check GenChk RB3LYP/6-31G(2df,p) Fr
 eq
 ----------------------------------------------------------------------

 Structure from the checkpoint file:  "/scratch/puck/g09_4845b5b3-c2cb-4da8-8a46-9fc56e811606/Gau-96940.chk"
 -----
 titel
 -----
 Charge =  0 Multiplicity = 1

                         Standard orientation:
 ---------------------------------------------------------------------
 Center     Atomic      Atomic             Coordinates (Angstroms)
 Number     Number       Type             X           Y           Z
 ---------------------------------------------------------------------
      1          6           0       -2.567093   -1.204759   -0.363468
      2          6           0       -1.390299   -0.318496   -0.007575
      3          8           0       -0.549525   -0.818845    1.052604
      4          6           0       -0.004130   -0.776568   -0.270209
      5          6           0        1.165305    0.145461   -0.500733
      6          6           0        2.447385   -0.382551    0.155167
      7          8           0        3.568615    0.446226   -0.101824
      8          6           0       -1.683354    1.096175    0.044532
      9          6           0       -1.979957    2.261083    0.068082
     10          1           0       -3.364664   -1.089615    0.376180
     11          1           0       -2.970147   -0.933812   -1.343804
     12          1           0       -2.255847   -2.251963   -0.381223
     13          1           0        0.084056   -1.762685   -0.733605
     14          1           0        1.335486    0.255327   -1.578582
     15          1           0        0.927203    1.137760   -0.102565
     16          1           0        2.278397   -0.516355    1.233732
     17          1           0        2.704760   -1.364480   -0.257586
     18          1           0        3.412795    1.292112    0.330262
     19          1           0       -2.231897    3.292593    0.096174
 ---------------------------------------------------------------------

 SCF Done:  E(RB3LYP) =  -423.125896446     A.U. after    1 cycles

 The electronic state is 1-A.
 Alpha  occ. eigenvalues --  -19.15666 -19.13404 -10.26750 -10.24606 -10.22768
 Alpha  occ. eigenvalues --  -10.19088 -10.19065 -10.18703 -10.18615  -1.07784
 Alpha  occ. eigenvalues --   -1.01513  -0.78478  -0.77425  -0.73429  -0.66450
 Alpha  occ. eigenvalues --   -0.63379  -0.60160  -0.53244  -0.50755  -0.49642
 Alpha  occ. eigenvalues --   -0.49213  -0.44493  -0.42830  -0.41907  -0.40620
 Alpha  occ. eigenvalues --   -0.39692  -0.37734  -0.36266  -0.33517  -0.31928
 Alpha  occ. eigenvalues --   -0.28777  -0.27966  -0.26666  -0.25806
 Alpha virt. eigenvalues --    0.02307   0.04002   0.07810   0.10201   0.11000
 Alpha virt. eigenvalues --    0.11833   0.12680   0.13681   0.14161   0.15349
 Alpha virt. eigenvalues --    0.15521   0.18898   0.19106   0.20522   0.22365

 Mulliken charges:
               1
     1  C   -0.472607
     2  C    0.193053
     3  O   -0.285374
     4  C    0.014790
     5  C   -0.259103
     6  C   -0.055745
     7  O   -0.417931
     8  C    0.303314
     9  C   -0.435836
    10  H    0.139385
    11  H    0.133471
    12  H    0.130057
    13  H    0.091198
    14  H    0.112102
    15  H    0.107869
    16  H    0.108674
    17  H    0.109847
    18  H    0.282734
    19  H    0.200103
 Sum of Mulliken charges =   0.00000

 Dipole moment (field-independent basis, Debye):
    X=             -1.3559    Y=              0.6807    Z=             -0.9049  Tot=              1.7666
 Quadrupole moment (field-independent basis, Debye-Ang):
   XX=            -58.2787   YY=            -45.7598   ZZ=            -55.5114
   XY=              0.8453   XZ=              3.4350   YZ=              3.1534

  Exact polarizability:  88.724  -6.878  89.912  -0.717   2.343  57.289
 Approx polarizability: 110.025 -16.127 141.551  -2.167   1.316  92.035

                      1                      2                      3
                      A                      A                      A
 Frequencies --     60.1656                89.7559                99.6954
 Red. masses --      3.1758                 2.2775                 4.0713
 Frc consts  --      0.0068                 0.0108                 0.0238
 IR Inten    --      2.0961                 3.4319                 0.7457

                      4                      5                      6
                      A                      A                      A
 Frequencies --    167.4164               182.1904               211.6564
 Red. masses --      2.5443                 2.0180                 1.7100
 Frc consts  --      0.0420                 0.0395                 0.0451
 IR Inten    --      1.8469                 0.7246                 2.0244

                      7                      8                      9
                      A                      A                      A
 Frequencies --    262.4856               302.0616               327.2634
 Red. masses --      2.7036                 1.1874                 4.4705
 Frc consts  --      0.1098                 0.0638                 0.2821
 IR Inten    --      6.1497                75.9373                 0.7721

                     10                     11                     12
                      A                      A                      A
 Frequencies --    337.4411               429.1896               538.4530
 Red. masses --      2.9952                 4.3428                 3.2986
 Frc consts  --      0.2009                 0.4713                 0.5635
 IR Inten    --     37.3828                 6.2338                 4.8845

                     13                     14                     15
                      A                      A                      A
 Frequencies --    560.1330               602.0768               631.4827
 Red. masses --      5.3756                 4.7829                 1.2218
 Frc consts  --      0.9937                 1.0215                 0.2871
 IR Inten    --      9.9157                 1.1774                44.9440

                     16                     17                     18
                      A                      A                      A
 Frequencies --    663.0237               675.4192               776.5393
 Red. masses --      1.2594                 4.8460                 1.6272
 Frc consts  --      0.3262                 1.3025                 0.5781
 IR Inten    --     34.4177                 2.8346                 7.0187

                     19                     20                     21
                      A                      A                      A
 Frequencies --    808.3310               903.7334               969.0653
 Red. masses --      2.1279                 3.2636                 1.7904
 Frc consts  --      0.8192                 1.5704                 0.9906
 IR Inten    --     16.2971                22.3644                 6.7105

                     22                     23                     24
                      A                      A                      A
 Frequencies --   1011.1296              1058.3877              1074.0662
 Red. masses --      2.7704                 1.9885                 3.3626
 Frc consts  --      1.6688                 1.3124                 2.2855
 IR Inten    --     13.5763                 4.7607               123.2450

                     25                     26                     27
                      A                      A                      A
 Frequencies --   1098.7602              1107.8943              1120.9101
 Red. masses --      1.9992                 1.6602                 2.0294
 Frc consts  --      1.4220                 1.2006                 1.5023
 IR Inten    --     13.2329                15.5762                 6.5363

                     28                     29                     30
                      A                      A                      A
 Frequencies --   1191.2249              1247.2573              1294.6547
 Red. masses --      1.3817                 2.5017                 1.3533
 Frc consts  --      1.1551                 2.2929                 1.3365
 IR Inten    --      5.0991                27.7108                 2.8824

                     31                     32                     33
                      A                      A                      A
 Frequencies --   1315.3140              1333.9224              1396.3622
 Red. masses --      1.1796                 1.7523                 1.3102
 Frc consts  --      1.2024                 1.8371                 1.5052
 IR Inten    --      2.0457                21.1267                 8.1569

                     34                     35                     36
                      A                      A                      A
 Frequencies --   1409.8245              1420.9444              1458.8442
 Red. masses --      1.2662                 1.2752                 1.7943
 Frc consts  --      1.4828                 1.5170                 2.2499
 IR Inten    --      3.2291                53.5687                 3.2954

                     37                     38                     39
                      A                      A                      A
 Frequencies --   1476.0469              1481.6155              1494.8356
 Red. masses --      1.1065                 1.1511                 1.1229
 Frc consts  --      1.4204                 1.4888                 1.4783
 IR Inten    --      2.6756                 9.0370                 1.6810

                     40                     41                     42
                      A                      A                      A
 Frequencies --   1513.4478              2235.9359              3000.0840
 Red. masses --      1.0924                 5.9581                 1.0657
 Frc consts  --      1.4743                17.5499                 5.6515
 IR Inten    --      0.5912                 0.8707                34.2969

                     43                     44                     45
                      A                      A                      A
 Frequencies --   3037.8435              3045.1564              3062.4621
 Red. masses --      1.0591                 1.0345                 1.0958
 Frc consts  --      5.7587                 5.6520                 6.0553
 IR Inten    --     19.9072                13.1249                15.3752

                     46                     47                     48
                      A                      A                      A
 Frequencies --   3073.6521              3095.5570              3117.3709
 Red. masses --      1.0887                 1.1018                 1.1016
 Frc consts  --      6.0598                 6.2208                 6.3073
 IR Inten    --      7.5105                51.6362                12.4810

                     49                     50                     51
                      A                      A                      A
 Frequencies --   3130.5947              3500.4402              3815.4819
 Red. masses --      1.1028                 1.1619                 1.0662
 Frc consts  --      6.3677                 8.3881                 9.1448
 IR Inten    --     15.9403                68.9667                16.2704

 - Thermochemistry -
 -------------------
 Temperature   298.150 Kelvin.  Pressure   1.00000 Atm.
 Atom     1 has atomic number  6 and mass  12.00000

 Molecular mass:   126.06808 amu.
 Principal axes and moments of inertia in atomic units:
                           1         2         3
     Eigenvalues --   622.978972028.516282433.93055
           X            0.99989   0.01224   0.00875
           Y           -0.01247   0.99958   0.02630
           Z           -0.00843  -0.02640   0.99962
 This molecule is an asymmetric top.
 Rotational symmetry number  1.
 Warning -- assumption of classical behavior for rotation
           may cause significant error
 Rotational temperatures (Kelvin)      0.13903     0.04270     0.03559
 Rotational constants (GHZ):           2.89695     0.88969     0.74149
 Zero-point vibrational energy     408031.9 (Joules/Mol)
                                   97.52195 (Kcal/Mol)
 Warning -- explicit consideration of  14 degrees of freedom as
           vibrations may cause significant error
 Vibrational temperatures:     86.56   129.14   143.44   240.87   262.13
          (Kelvin)            304.53   377.66   434.60   470.86   485.50
                              617.51   774.71   805.91   866.25   908.56
                              953.94   971.78  1117.27  1163.01  1300.27
                             1394.27  1454.79  1522.78  1545.34  1580.87
                             1594.01  1612.74  1713.90  1794.52  1862.72
                             1892.44  1919.21  2009.05  2028.42  2044.42
                             2098.95  2123.70  2131.71  2150.73  2177.51
                             3217.01  4316.45  4370.77  4381.30  4406.19
                             4422.29  4453.81  4485.20  4504.22  5036.35
                             5489.62

 Zero-point correction=                           0.155411 (Hartree/Particle)
 Thermal correction to Energy=                    0.165690
 Thermal correction to Enthalpy=                  0.166634
 Thermal correction to Gibbs Free Energy=         0.119745
 Sum of electronic and zero-point Energies=           -422.970485
 Sum of electronic and thermal Energies=              -422.960207
 Sum of electronic and thermal Enthalpies=            -422.959263
 Sum of electronic and thermal Free Energies=         -423.006151

                     E (Thermal)             CV                S
                      KCal/Mol        Cal/Mol-Kelvin    Cal/Mol-Kelvin
 Total                  103.972             37.062             98.685
 Electronic               0.000              0.000              0.000
 Translational            0.889              2.981             40.409
 Rotational               0.889              2.981             29.510
 Vibrational            102.194             31.100             28.767
 Vibration     1          0.597              1.973              4.452
 Vibration     2          0.602              1.956              3.665
 Vibration     3          0.604              1.949              3.460
 Vibration     4          0.624              1.883              2.464
 Vibration     5          0.630              1.864              2.306
 Vibration     6          0.643              1.823              2.029
 Vibration     7          0.670              1.742              1.645
 Vibration     8          0.694              1.670              1.405
 Vibration     9          0.711              1.621              1.274
 Vibration    10          0.718              1.601              1.224
 Vibration    11          0.791              1.407              0.861
 Vibration    12          0.893              1.165              0.569
 Vibration    13          0.916              1.118              0.524
 Vibration    14          0.960              1.027              0.446

 Normal termination of Gaussian 09 at Tue Jan 28 15:19:34 2020.
