 Gaussian 09, Revision D.01,
 Gaussian 09:  ES64L-G09RevD.01 24-Apr-2013

 -----------------------------
 # b3lyp 6-31G(2df,p) opt Freq
 -----------------------------

 -----
 titel
 -----
 Symbolic Z-matrix:
 Charge =  0 Multiplicity = 1

 SCF Done:  E(RB3LYP) =  -423.160581480     A.U. after   14 cycles
 Optimization completed.
    -- Stationary point found.
 Normal termination of Gaussian 09 at Mon Jan 27 22:03:57 2020.

 ----------------------------------------------------------------------
 #N Geom=AllCheck Guess=TCheck SCRF=Check GenChk RB3LYP/6-31G(2df,p) Fr
 eq
 ----------------------------------------------------------------------

 Structure from the checkpoint file:  "/scratch/puck/g09_70a976d3-71f9-4de4-8289-fd83fd5f2f61/Gau-189715.chk"
 -----
 titel
 -----
 Charge =  0 Multiplicity = 1

                         Standard orientation:
 ---------------------------------------------------------------------
 Center     Atomic      Atomic             Coordinates (Angstroms)
 Number     Number       Type             X           Y           Z
 ---------------------------------------------------------------------
      1          8           0        0.161417    2.411530   -0.247154
      2          6           0       -0.163322    1.104115   -0.587201
      3          6           0       -0.972405    0.211218    0.369005
      4          6           0       -2.061430   -0.613598   -0.184411
      5          8           0       -3.095350   -0.870277    0.385215
      6          6           0        0.488292   -0.082215    0.012448
      7          6           0        1.686991   -0.027577    0.969331
      8          6           0        2.432915   -0.995407    0.001364
      9          6           0        1.090014   -1.283066   -0.733222
     10          1           0        0.481655    2.428618    0.661055
     11          1           0       -0.438517    1.056524   -1.637404
     12          1           0       -1.160026    0.607267    1.363900
     13          1           0       -1.866944   -0.994477   -1.215521
     14          1           0        2.145449    0.955052    1.123256
     15          1           0        1.479027   -0.473483    1.945911
     16          1           0        3.151450   -0.472161   -0.633052
     17          1           0        2.930281   -1.851319    0.460681
     18          1           0        1.099187   -1.231570   -1.825104
     19          1           0        0.643574   -2.235307   -0.432084
 ---------------------------------------------------------------------

 SCF Done:  E(RB3LYP) =  -423.160581480     A.U. after    1 cycles

 The electronic state is 1-A.
 Alpha  occ. eigenvalues --  -19.16219 -19.12671 -10.26512 -10.25701 -10.21501
 Alpha  occ. eigenvalues --  -10.20198 -10.19936 -10.19797 -10.19760  -1.04875
 Alpha  occ. eigenvalues --   -1.03417  -0.88676  -0.81434  -0.68201  -0.66459
 Alpha  occ. eigenvalues --   -0.63392  -0.59413  -0.55387  -0.51946  -0.49000
 Alpha  occ. eigenvalues --   -0.48276  -0.43982  -0.43354  -0.41766  -0.40185
 Alpha  occ. eigenvalues --   -0.39815  -0.37966  -0.36373  -0.36172  -0.34719
 Alpha  occ. eigenvalues --   -0.32766  -0.28667  -0.25961  -0.23859
 Alpha virt. eigenvalues --   -0.01684   0.05615   0.08436   0.08613   0.09121
 Alpha virt. eigenvalues --    0.10211   0.14104   0.14625   0.16075   0.16808
 Alpha virt. eigenvalues --    0.17426   0.18696   0.19195   0.20642   0.21907

 Mulliken charges:
               1
     1  O   -0.414276
     2  C    0.068090
     3  C   -0.249120
     4  C    0.162998
     5  O   -0.273779
     6  C    0.281725
     7  C   -0.305843
     8  C   -0.203929
     9  C   -0.297017
    10  H    0.291096
    11  H    0.118124
    12  H    0.098927
    13  H    0.061819
    14  H    0.099436
    15  H    0.116166
    16  H    0.114906
    17  H    0.108923
    18  H    0.107818
    19  H    0.113935
 Sum of Mulliken charges =   0.00000

 Dipole moment (field-independent basis, Debye):
    X=              3.6477    Y=             -0.0282    Z=              0.0858  Tot=              3.6488
 Quadrupole moment (field-independent basis, Debye-Ang):
   XX=            -64.0626   YY=            -56.0237   ZZ=            -50.3300
   XY=             -3.0807   XZ=              3.6189   YZ=              3.8764

  Exact polarizability:  92.579   3.426  74.275  -0.740   2.420  69.251
 Approx polarizability: 129.348  10.768 109.913  -6.938  -0.578 107.142

                      1                      2                      3
                      A                      A                      A
 Frequencies --     74.0475               107.5208               136.1582
 Red. masses --      3.4608                 3.0575                 3.0132
 Frc consts  --      0.0112                 0.0208                 0.0329
 IR Inten    --      1.5236                 2.7231                 1.7514

                      4                      5                      6
                      A                      A                      A
 Frequencies --    177.0316               192.4844               231.5699
 Red. masses --      1.2083                 2.1049                 2.6204
 Frc consts  --      0.0223                 0.0459                 0.0828
 IR Inten    --     95.4559                13.8155                11.1912

                      7                      8                      9
                      A                      A                      A
 Frequencies --    251.1075               336.0152               419.7422
 Red. masses --      3.4563                 2.7382                 5.1390
 Frc consts  --      0.1284                 0.1822                 0.5335
 IR Inten    --      7.7927                 4.0653                 0.5246

                     10                     11                     12
                      A                      A                      A
 Frequencies --    475.2328               542.9922               585.8283
 Red. masses --      3.6551                 3.1181                 4.0904
 Frc consts  --      0.4864                 0.5417                 0.8271
 IR Inten    --      6.6374                 0.9468                33.4384

                     13                     14                     15
                      A                      A                      A
 Frequencies --    715.1615               790.1536               825.9159
 Red. masses --      1.4220                 1.3738                 2.7870
 Frc consts  --      0.4285                 0.5053                 1.1201
 IR Inten    --      2.6252                 3.0979                 9.0674

                     16                     17                     18
                      A                      A                      A
 Frequencies --    859.3664               917.6749               939.3926
 Red. masses --      2.3629                 2.5336                 2.6562
 Frc consts  --      1.0282                 1.2571                 1.3810
 IR Inten    --     17.5463                22.0559                 1.9008

                     19                     20                     21
                      A                      A                      A
 Frequencies --    955.2932               984.8500              1034.2260
 Red. masses --      1.8142                 2.6053                 1.4242
 Frc consts  --      0.9755                 1.4888                 0.8976
 IR Inten    --      4.9980                34.1121                 2.0099

                     22                     23                     24
                      A                      A                      A
 Frequencies --   1049.5199              1081.7769              1109.0876
 Red. masses --      1.6113                 1.2212                 2.8340
 Frc consts  --      1.0457                 0.8420                 2.0539
 IR Inten    --      4.7280                22.4958                11.6466

                     25                     26                     27
                      A                      A                      A
 Frequencies --   1125.8536              1140.2947              1173.8838
 Red. masses --      2.3747                 3.0668                 2.0138
 Frc consts  --      1.7735                 2.3495                 1.6350
 IR Inten    --    185.1297                41.2825                18.2335

                     28                     29                     30
                      A                      A                      A
 Frequencies --   1213.2849              1223.6934              1254.4654
 Red. masses --      1.2711                 1.3717                 1.2005
 Frc consts  --      1.1025                 1.2102                 1.1131
 IR Inten    --      0.3031                 3.8782                 0.2187

                     31                     32                     33
                      A                      A                      A
 Frequencies --   1258.8999              1273.9391              1288.4607
 Red. masses --      1.4571                 1.3632                 1.6250
 Frc consts  --      1.3606                 1.3035                 1.5894
 IR Inten    --      3.0548                 0.9799                 0.2564

                     34                     35                     36
                      A                      A                      A
 Frequencies --   1311.5374              1366.3790              1439.1275
 Red. masses --      1.6664                 1.6263                 1.2319
 Frc consts  --      1.6889                 1.7889                 1.5032
 IR Inten    --      1.3469                 7.8265                 9.5166

                     37                     38                     39
                      A                      A                      A
 Frequencies --   1469.1284              1473.5311              1482.9033
 Red. masses --      1.9119                 1.1164                 1.1755
 Frc consts  --      2.4313                 1.4282                 1.5230
 IR Inten    --     74.9409                 3.1358                19.0805

                     40                     41                     42
                      A                      A                      A
 Frequencies --   1504.7090              1808.2576              2841.9960
 Red. masses --      1.1519                 9.9280                 1.0804
 Frc consts  --      1.5366                19.1263                 5.1414
 IR Inten    --      0.9618               294.0875                89.0487

                     43                     44                     45
                      A                      A                      A
 Frequencies --   3040.7303              3053.2680              3075.0280
 Red. masses --      1.0593                 1.0582                 1.0604
 Frc consts  --      5.7707                 5.8123                 5.9079
 IR Inten    --     41.6469                21.4767                39.5670

                     46                     47                     48
                      A                      A                      A
 Frequencies --   3092.1545              3101.2161              3131.7563
 Red. masses --      1.1050                 1.1074                 1.1084
 Frc consts  --      6.2251                 6.2750                 6.4050
 IR Inten    --     15.0477                 6.8809                35.0923

                     49                     50                     51
                      A                      A                      A
 Frequencies --   3150.1471              3154.6736              3815.8410
 Red. masses --      1.0903                 1.0865                 1.0657
 Frc consts  --      6.3749                 6.3705                 9.1422
 IR Inten    --      1.3732                12.4952                22.7887

 - Thermochemistry -
 -------------------
 Temperature   298.150 Kelvin.  Pressure   1.00000 Atm.
 Atom     1 has atomic number  8 and mass  15.99491

 Molecular mass:   126.06808 amu.
 Principal axes and moments of inertia in atomic units:
                           1         2         3
     Eigenvalues --   782.340531476.959301953.56616
           X            0.99934  -0.03453   0.01160
           Y            0.03411   0.99882   0.03449
           Z           -0.01278  -0.03407   0.99934
 This molecule is an asymmetric top.
 Rotational symmetry number  1.
 Warning -- assumption of classical behavior for rotation
           may cause significant error
 Rotational temperatures (Kelvin)      0.11071     0.05864     0.04434
 Rotational constants (GHZ):           2.30685     1.22193     0.92382
 Zero-point vibrational energy     413054.4 (Joules/Mol)
                                   98.72238 (Kcal/Mol)
 Warning -- explicit consideration of  12 degrees of freedom as
           vibrations may cause significant error
 Vibrational temperatures:    106.54   154.70   195.90   254.71   276.94
          (Kelvin)            333.18   361.29   483.45   603.91   683.75
                              781.24   842.88  1028.96  1136.85  1188.31
                             1236.44  1320.33  1351.57  1374.45  1416.98
                             1488.02  1510.02  1556.43  1595.73  1619.85
                             1640.63  1688.95  1745.64  1760.62  1804.89
                             1811.27  1832.91  1853.81  1887.01  1965.91
                             2070.58  2113.75  2120.08  2133.56  2164.94
                             2601.68  4088.99  4374.93  4392.97  4424.27
                             4448.92  4461.95  4505.89  4532.35  4538.87
                             5490.14

 Zero-point correction=                           0.157324 (Hartree/Particle)
 Thermal correction to Energy=                    0.166579
 Thermal correction to Enthalpy=                  0.167523
 Thermal correction to Gibbs Free Energy=         0.122894
 Sum of electronic and zero-point Energies=           -423.003257
 Sum of electronic and thermal Energies=              -422.994002
 Sum of electronic and thermal Enthalpies=            -422.993058
 Sum of electronic and thermal Free Energies=         -423.037688

                     E (Thermal)             CV                S
                      KCal/Mol        Cal/Mol-Kelvin    Cal/Mol-Kelvin
 Total                  104.530             33.703             93.931
 Electronic               0.000              0.000              0.000
 Translational            0.889              2.981             40.409
 Rotational               0.889              2.981             29.203
 Vibrational            102.752             27.741             24.320
 Vibration     1          0.599              1.966              4.043
 Vibration     2          0.606              1.943              3.313
 Vibration     3          0.614              1.917              2.857
 Vibration     4          0.628              1.871              2.359
 Vibration     5          0.634              1.850              2.204
 Vibration     6          0.653              1.793              1.867
 Vibration     7          0.663              1.761              1.723
 Vibration     8          0.717              1.604              1.231
 Vibration     9          0.782              1.427              0.893
 Vibration    10          0.832              1.305              0.723
 Vibration    11          0.898              1.155              0.559
 Vibration    12          0.943              1.062              0.475

 Optimization completed.
    -- Stationary point found.
 Normal termination of Gaussian 09 at Mon Jan 27 22:45:40 2020.
