 Gaussian 09, Revision D.01,
 Gaussian 09:  ES64L-G09RevD.01 24-Apr-2013

 -----------------------------
 # b3lyp 6-31G(2df,p) opt Freq
 -----------------------------

 -----
 titel
 -----
 Symbolic Z-matrix:
 Charge =  0 Multiplicity = 1

 SCF Done:  E(RB3LYP) =  -423.183504552     A.U. after   13 cycles
 Optimization completed.
    -- Stationary point found.
 Normal termination of Gaussian 09 at Tue Jan 28 12:40:23 2020.

 ----------------------------------------------------------------------
 #N Geom=AllCheck Guess=TCheck SCRF=Check GenChk RB3LYP/6-31G(2df,p) Fr
 eq
 ----------------------------------------------------------------------

 Structure from the checkpoint file:  "/scratch/puck/g09_d4532815-9a40-40b7-b3ca-9e81c005ef5c/Gau-29105.chk"
 -----
 titel
 -----
 Charge =  0 Multiplicity = 1

                         Standard orientation:
 ---------------------------------------------------------------------
 Center     Atomic      Atomic             Coordinates (Angstroms)
 Number     Number       Type             X           Y           Z
 ---------------------------------------------------------------------
      1          8           0        2.953326   -0.331360    0.351106
      2          6           0        2.075854    0.125949   -0.675030
      3          6           0        0.682055    0.322074   -0.181738
      4          6           0       -0.149707    1.359930   -0.307036
      5          6           0       -1.467363    0.904779    0.307033
      6          6           0       -2.115298   -0.110545   -0.692137
      7          6           0       -1.146634   -1.319162   -0.537695
      8          6           0       -0.145612   -0.755521    0.522926
      9          8           0       -1.019319    0.025234    1.347622
     10          1           0        2.907310    0.307670    1.070381
     11          1           0        2.444983    1.051215   -1.142586
     12          1           0        2.107468   -0.657771   -1.442794
     13          1           0        0.014279    2.292578   -0.831733
     14          1           0       -2.130596    1.670774    0.707083
     15          1           0       -3.125368   -0.366346   -0.363958
     16          1           0       -2.171476    0.279624   -1.710621
     17          1           0       -1.663137   -2.193782   -0.136340
     18          1           0       -0.655270   -1.609850   -1.469269
     19          1           0        0.399974   -1.490133    1.112073
 ---------------------------------------------------------------------

 SCF Done:  E(RB3LYP) =  -423.183504551     A.U. after    1 cycles

 The electronic state is 1-A.
 Alpha  occ. eigenvalues --  -19.13761 -19.13260 -10.23556 -10.23375 -10.23030
 Alpha  occ. eigenvalues --  -10.18552 -10.18384 -10.18357 -10.18295  -1.04574
 Alpha  occ. eigenvalues --   -1.01730  -0.80850  -0.75811  -0.73690  -0.68137
 Alpha  occ. eigenvalues --   -0.58852  -0.57569  -0.54257  -0.52663  -0.49288
 Alpha  occ. eigenvalues --   -0.46432  -0.44991  -0.43221  -0.41600  -0.40171
 Alpha  occ. eigenvalues --   -0.38126  -0.35211  -0.34918  -0.34371  -0.32686
 Alpha  occ. eigenvalues --   -0.31718  -0.27597  -0.25427  -0.24395
 Alpha virt. eigenvalues --    0.00419   0.08874   0.09822   0.11244   0.12502
 Alpha virt. eigenvalues --    0.13155   0.15254   0.15624   0.15869   0.16737
 Alpha virt. eigenvalues --    0.17482   0.18996   0.19393   0.20583   0.22898

 Mulliken charges:
               1
     1  O   -0.413071
     2  C   -0.189087
     3  C    0.325705
     4  C   -0.217926
     5  C    0.025212
     6  C   -0.212013
     7  C   -0.219181
     8  C   -0.030903
     9  O   -0.250058
    10  H    0.285433
    11  H    0.096288
    12  H    0.117446
    13  H    0.101076
    14  H    0.079134
    15  H    0.106777
    16  H    0.099499
    17  H    0.107238
    18  H    0.100364
    19  H    0.088067
 Sum of Mulliken charges =   0.00000

 Dipole moment (field-independent basis, Debye):
    X=             -0.5855    Y=              1.1060    Z=             -1.3900  Tot=              1.8704
 Quadrupole moment (field-independent basis, Debye-Ang):
   XX=            -55.9001   YY=            -50.4038   ZZ=            -54.1024
   XY=              2.5170   XZ=              2.1216   YZ=              0.1509

  Exact polarizability:  88.049  -4.278  75.896  -0.010  -1.755  63.251
 Approx polarizability: 120.558 -15.160 119.844   0.117  -3.875  99.474

                      1                      2                      3
                      A                      A                      A
 Frequencies --     77.9845               126.8746               220.3739
 Red. masses --      3.6513                 3.7628                 2.4229
 Frc consts  --      0.0131                 0.0357                 0.0693
 IR Inten    --      2.6366                 0.0463                 4.6985

                      4                      5                      6
                      A                      A                      A
 Frequencies --    240.6978               338.4001               410.9371
 Red. masses --      2.0793                 1.2898                 2.1477
 Frc consts  --      0.0710                 0.0870                 0.2137
 IR Inten    --      0.3933                86.9069                32.5201

                      7                      8                      9
                      A                      A                      A
 Frequencies --    437.6765               570.8222               578.9718
 Red. masses --      2.6957                 3.4088                 5.5755
 Frc consts  --      0.3043                 0.6544                 1.1012
 IR Inten    --     10.9441                 1.5890                16.2748

                     10                     11                     12
                      A                      A                      A
 Frequencies --    657.5894               739.3016               807.9373
 Red. masses --      5.4447                 3.6202                 1.7657
 Frc consts  --      1.3872                 1.1658                 0.6791
 IR Inten    --      7.5136                 2.1160                13.0469

                     13                     14                     15
                      A                      A                      A
 Frequencies --    831.0263               838.7714               867.4699
 Red. masses --      1.6118                 3.4284                 2.9848
 Frc consts  --      0.6558                 1.4211                 1.3233
 IR Inten    --      1.4842                 5.8604                 5.1772

                     16                     17                     18
                      A                      A                      A
 Frequencies --    894.3706               895.8737               932.0133
 Red. masses --      2.1275                 2.6667                 2.0665
 Frc consts  --      1.0027                 1.2610                 1.0576
 IR Inten    --     26.0537                 9.7208                 4.3723

                     19                     20                     21
                      A                      A                      A
 Frequencies --    954.2296               974.6658               991.0102
 Red. masses --      3.5142                 2.0623                 2.2967
 Frc consts  --      1.8853                 1.1543                 1.3290
 IR Inten    --     21.5754                58.2486                 1.3750

                     22                     23                     24
                      A                      A                      A
 Frequencies --   1041.7936              1047.8503              1060.7328
 Red. masses --      6.9363                 2.1575                 3.2658
 Frc consts  --      4.4355                 1.3957                 2.1650
 IR Inten    --     14.5134                21.3207                44.8875

                     25                     26                     27
                      A                      A                      A
 Frequencies --   1127.9400              1176.6177              1194.1936
 Red. masses --      1.1307                 1.7057                 1.1669
 Frc consts  --      0.8476                 1.3913                 0.9804
 IR Inten    --      5.7236                30.8909                 3.1379

                     28                     29                     30
                      A                      A                      A
 Frequencies --   1207.3593              1230.8140              1248.3531
 Red. masses --      1.5111                 1.2577                 1.3093
 Frc consts  --      1.2978                 1.1226                 1.2022
 IR Inten    --      6.0502                 1.8877                 2.5165

                     31                     32                     33
                      A                      A                      A
 Frequencies --   1256.7889              1292.4508              1321.2819
 Red. masses --      1.3175                 1.4535                 1.5795
 Frc consts  --      1.2261                 1.4305                 1.6246
 IR Inten    --      0.4462                 1.0682                11.0159

                     34                     35                     36
                      A                      A                      A
 Frequencies --   1328.1299              1345.3408              1373.2482
 Red. masses --      1.8906                 1.4660                 1.3119
 Frc consts  --      1.9649                 1.5633                 1.4577
 IR Inten    --      6.0234                 5.9305                 0.2004

                     37                     38                     39
                      A                      A                      A
 Frequencies --   1416.1968              1483.0515              1494.7168
 Red. masses --      1.2366                 1.0803                 1.0865
 Frc consts  --      1.4613                 1.4000                 1.4302
 IR Inten    --     76.7790                 0.2494                 1.0437

                     40                     41                     42
                      A                      A                      A
 Frequencies --   1502.6435              1692.3730              2990.2223
 Red. masses --      1.1006                 7.7376                 1.0649
 Frc consts  --      1.4642                13.0571                 5.6102
 IR Inten    --      1.6840                 1.5004                53.6171

                     43                     44                     45
                      A                      A                      A
 Frequencies --   3043.1136              3064.5802              3074.0817
 Red. masses --      1.0965                 1.0581                 1.0600
 Frc consts  --      5.9825                 5.8550                 5.9018
 IR Inten    --     23.3343                26.0130                34.1659

                     46                     47                     48
                      A                      A                      A
 Frequencies --   3107.5752              3124.2657              3129.2278
 Red. masses --      1.1071                 1.1055                 1.0914
 Frc consts  --      6.2989                 6.3575                 6.2965
 IR Inten    --      1.2414                29.1962                50.1411

                     49                     50                     51
                      A                      A                      A
 Frequencies --   3144.3774              3214.7550              3808.5249
 Red. masses --      1.0909                 1.0967                 1.0662
 Frc consts  --      6.3549                 6.6777                 9.1122
 IR Inten    --     17.4429                 7.0770                19.0333

 - Thermochemistry -
 -------------------
 Temperature   298.150 Kelvin.  Pressure   1.00000 Atm.
 Atom     1 has atomic number  8 and mass  15.99491

 Molecular mass:   126.06808 amu.
 Principal axes and moments of inertia in atomic units:
                           1         2         3
     Eigenvalues --   523.188431480.699051548.34215
           X            0.99990   0.01182   0.00801
           Y           -0.01185   0.99992   0.00329
           Z           -0.00797  -0.00339   0.99996
 This molecule is an asymmetric top.
 Rotational symmetry number  1.
 Warning -- assumption of classical behavior for rotation
           may cause significant error
 Rotational temperatures (Kelvin)      0.16555     0.05850     0.05594
 Rotational constants (GHZ):           3.44951     1.21884     1.16560
 Zero-point vibrational energy     424253.2 (Joules/Mol)
                                  101.39895 (Kcal/Mol)
 Warning -- explicit consideration of   9 degrees of freedom as
           vibrations may cause significant error
 Vibrational temperatures:    112.20   182.54   317.07   346.31   486.88
          (Kelvin)            591.25   629.72   821.28   833.01   946.12
                             1063.69  1162.44  1195.66  1206.80  1248.09
                             1286.80  1288.96  1340.96  1372.92  1402.32
                             1425.84  1498.91  1507.62  1526.16  1622.85
                             1692.89  1718.18  1737.12  1770.86  1796.10
                             1808.24  1859.55  1901.03  1910.88  1935.64
                             1975.80  2037.59  2133.78  2150.56  2161.97
                             2434.94  4302.26  4378.36  4409.24  4422.91
                             4471.10  4495.12  4502.26  4524.05  4625.31
                             5479.61

 Zero-point correction=                           0.161590 (Hartree/Particle)
 Thermal correction to Energy=                    0.169275
 Thermal correction to Enthalpy=                  0.170219
 Thermal correction to Gibbs Free Energy=         0.129169
 Sum of electronic and zero-point Energies=           -423.021915
 Sum of electronic and thermal Energies=              -423.014230
 Sum of electronic and thermal Enthalpies=            -423.013286
 Sum of electronic and thermal Free Energies=         -423.054336

                     E (Thermal)             CV                S
                      KCal/Mol        Cal/Mol-Kelvin    Cal/Mol-Kelvin
 Total                  106.222             30.212             86.397
 Electronic               0.000              0.000              0.000
 Translational            0.889              2.981             40.409
 Rotational               0.889              2.981             28.574
 Vibrational            104.444             24.251             17.414
 Vibration     1          0.599              1.964              3.941
 Vibration     2          0.611              1.926              2.993
 Vibration     3          0.647              1.810              1.956
 Vibration     4          0.658              1.778              1.798
 Vibration     5          0.719              1.599              1.220
 Vibration     6          0.775              1.446              0.923
 Vibration     7          0.798              1.388              0.834
 Vibration     8          0.927              1.094              0.503
 Vibration     9          0.936              1.077              0.487

 Optimization completed.
    -- Stationary point found.
 Normal termination of Gaussian 09 at Tue Jan 28 13:24:53 2020.
