 Gaussian 09, Revision D.01,
 Gaussian 09:  ES64L-G09RevD.01 24-Apr-2013

 -----------------------------
 # b3lyp 6-31G(2df,p) opt Freq
 -----------------------------

 -----
 titel
 -----
 Symbolic Z-matrix:
 Charge =  0 Multiplicity = 1

 SCF Done:  E(RB3LYP) =  -423.220557809     A.U. after   14 cycles
 Optimization completed.
    -- Stationary point found.
 Normal termination of Gaussian 09 at Tue Jan 28 03:56:46 2020.

 ----------------------------------------------------------------------
 #N Geom=AllCheck Guess=TCheck SCRF=Check GenChk RB3LYP/6-31G(2df,p) Fr
 eq
 ----------------------------------------------------------------------

 Structure from the checkpoint file:  "/scratch/puck/g09_cb02d440-40d7-46fa-984f-7e8748c38135/Gau-3135.chk"
 -----
 titel
 -----
 Charge =  0 Multiplicity = 1

                         Standard orientation:
 ---------------------------------------------------------------------
 Center     Atomic      Atomic             Coordinates (Angstroms)
 Number     Number       Type             X           Y           Z
 ---------------------------------------------------------------------
      1          6           0        2.288428   -1.093344   -0.367047
      2          6           0        1.000830   -0.636462    0.318217
      3          8           0       -0.013629   -1.510719   -0.142599
      4          6           0       -1.312916   -1.189999    0.308416
      5          6           0       -1.725772    0.229160   -0.067867
      6          8           0       -2.892094    0.541219   -0.202799
      7          6           0       -0.614758    1.185233   -0.161322
      8          6           0        0.658219    0.823848    0.073107
      9          6           0        1.770739    1.829369    0.151099
     10          1           0        2.421025   -2.163186   -0.191140
     11          1           0        2.226631   -0.927256   -1.446373
     12          1           0        3.160519   -0.565780    0.025392
     13          1           0        1.125125   -0.761200    1.413440
     14          1           0       -2.002961   -1.903096   -0.147434
     15          1           0       -1.394242   -1.292727    1.406278
     16          1           0       -0.886743    2.219972   -0.350808
     17          1           0        2.320610    1.732137    1.095679
     18          1           0        2.501769    1.681390   -0.651862
     19          1           0        1.385431    2.848912    0.082386
 ---------------------------------------------------------------------

 SCF Done:  E(RB3LYP) =  -423.220557809     A.U. after    1 cycles

 The electronic state is 1-A.
 Alpha  occ. eigenvalues --  -19.15085 -19.12001 -10.26014 -10.25374 -10.23327
 Alpha  occ. eigenvalues --  -10.22174 -10.20153 -10.18910 -10.18902  -1.05108
 Alpha  occ. eigenvalues --   -1.02672  -0.83233  -0.77914  -0.72289  -0.69705
 Alpha  occ. eigenvalues --   -0.63638  -0.58514  -0.53057  -0.51535  -0.48139
 Alpha  occ. eigenvalues --   -0.46074  -0.44412  -0.43077  -0.41637  -0.41173
 Alpha  occ. eigenvalues --   -0.40651  -0.39500  -0.37906  -0.37173  -0.36661
 Alpha  occ. eigenvalues --   -0.32390  -0.28414  -0.26590  -0.22986
 Alpha virt. eigenvalues --   -0.04993   0.05352   0.08427   0.10757   0.12260
 Alpha virt. eigenvalues --    0.12903   0.13153   0.14724   0.15640   0.15896
 Alpha virt. eigenvalues --    0.16570   0.18097   0.19926   0.20271   0.21981

 Mulliken charges:
               1
     1  C   -0.408631
     2  C    0.046659
     3  O   -0.253151
     4  C   -0.195540
     5  C    0.356524
     6  O   -0.327482
     7  C   -0.270207
     8  C    0.304211
     9  C   -0.483894
    10  H    0.134943
    11  H    0.132063
    12  H    0.120388
    13  H    0.081566
    14  H    0.136143
    15  H    0.107864
    16  H    0.101968
    17  H    0.137147
    18  H    0.144211
    19  H    0.135216
 Sum of Mulliken charges =   0.00000

 Dipole moment (field-independent basis, Debye):
    X=              3.8442    Y=              0.3746    Z=              1.0562  Tot=              4.0042
 Quadrupole moment (field-independent basis, Debye-Ang):
   XX=            -60.0775   YY=            -52.4904   ZZ=            -52.5400
   XY=              4.2819   XZ=             -0.8412   YZ=             -0.8273

  Exact polarizability: 109.005   1.262  77.616   3.121  -2.446  56.254
 Approx polarizability: 170.416  -3.703 106.098  10.137  -3.174  89.363

                      1                      2                      3
                      A                      A                      A
 Frequencies --     67.6840               154.7313               194.1237
 Red. masses --      3.7141                 2.8544                 1.3873
 Frc consts  --      0.0100                 0.0403                 0.0308
 IR Inten    --      1.4036                 0.5920                 3.7365

                      4                      5                      6
                      A                      A                      A
 Frequencies --    210.3238               235.3218               299.0838
 Red. masses --      1.8415                 1.2386                 1.8846
 Frc consts  --      0.0480                 0.0404                 0.0993
 IR Inten    --      2.6338                 0.4527                 0.4350

                      7                      8                      9
                      A                      A                      A
 Frequencies --    321.9449               363.8533               436.7984
 Red. masses --      3.0800                 3.4268                 4.5826
 Frc consts  --      0.1881                 0.2673                 0.5151
 IR Inten    --      3.0162                 1.1932                 4.6791

                     10                     11                     12
                      A                      A                      A
 Frequencies --    456.6387               502.8513               562.0693
 Red. masses --      5.0577                 3.8550                 2.9059
 Frc consts  --      0.6214                 0.5743                 0.5409
 IR Inten    --     13.6178                 5.6710                 1.5184

                     13                     14                     15
                      A                      A                      A
 Frequencies --    613.0124               648.1001               788.8398
 Red. masses --      2.7952                 4.6429                 2.6218
 Frc consts  --      0.6189                 1.1490                 0.9612
 IR Inten    --      0.8929                 3.5682                 1.0598

                     16                     17                     18
                      A                      A                      A
 Frequencies --    857.4486               893.4598               901.0651
 Red. masses --      2.4642                 1.8749                 1.6497
 Frc consts  --      1.0674                 0.8818                 0.7891
 IR Inten    --      8.2155                 2.7000                21.2155

                     19                     20                     21
                      A                      A                      A
 Frequencies --   1010.9751              1014.8894              1026.3233
 Red. masses --      1.7811                 1.9626                 1.4469
 Frc consts  --      1.0725                 1.1910                 0.8979
 IR Inten    --      5.0123                 1.4748                12.4905

                     22                     23                     24
                      A                      A                      A
 Frequencies --   1071.4501              1099.4210              1143.9780
 Red. masses --      1.9959                 2.0012                 2.2790
 Frc consts  --      1.3500                 1.4252                 1.7573
 IR Inten    --      2.4816                12.3116                10.0690

                     25                     26                     27
                      A                      A                      A
 Frequencies --   1152.0842              1177.7216              1251.8716
 Red. masses --      5.9871                 2.1997                 1.4329
 Frc consts  --      4.6820                 1.7976                 1.3231
 IR Inten    --     53.3576                17.4518                21.3724

                     28                     29                     30
                      A                      A                      A
 Frequencies --   1283.8162              1324.4232              1344.8663
 Red. masses --      1.7921                 1.6280                 1.3850
 Frc consts  --      1.7403                 1.6826                 1.4759
 IR Inten    --     81.6424                26.2618                20.2073

                     31                     32                     33
                      A                      A                      A
 Frequencies --   1358.0701              1379.2694              1405.8167
 Red. masses --      1.7674                 1.5165                 1.2960
 Frc consts  --      1.9206                 1.6998                 1.5091
 IR Inten    --      0.1884                11.4617                 4.3208

                     34                     35                     36
                      A                      A                      A
 Frequencies --   1408.7642              1468.5120              1474.6965
 Red. masses --      1.2490                 1.0820                 1.0528
 Frc consts  --      1.4604                 1.3748                 1.3490
 IR Inten    --      6.3151                 6.0803                10.3772

                     37                     38                     39
                      A                      A                      A
 Frequencies --   1478.9237              1493.3552              1501.2160
 Red. masses --      1.0540                 1.0637                 1.0517
 Frc consts  --      1.3582                 1.3976                 1.3964
 IR Inten    --      9.0387                 0.9312                 4.4557

                     40                     41                     42
                      A                      A                      A
 Frequencies --   1684.1866              1783.1136              2894.5641
 Red. masses --      7.6512                11.6828                 1.0790
 Frc consts  --     12.7868                21.8854                 5.3266
 IR Inten    --     47.6029               257.6879                42.6980

                     43                     44                     45
                      A                      A                      A
 Frequencies --   2944.0003              3026.5991              3052.2337
 Red. masses --      1.0706                 1.0386                 1.0350
 Frc consts  --      5.4673                 5.6055                 5.6810
 IR Inten    --     42.5564                13.4318                14.1100

                     46                     47                     48
                      A                      A                      A
 Frequencies --   3078.5162              3113.1919              3125.3274
 Red. masses --      1.0969                 1.0903                 1.1002
 Frc consts  --      6.1251                 6.2259                 6.3315
 IR Inten    --     10.7266                13.2217                14.8441

                     49                     50                     51
                      A                      A                      A
 Frequencies --   3129.0476              3137.0074              3170.7532
 Red. masses --      1.1019                 1.1022                 1.0911
 Frc consts  --      6.3567                 6.3906                 6.4630
 IR Inten    --     18.7512                11.8883                 8.7224

 - Thermochemistry -
 -------------------
 Temperature   298.150 Kelvin.  Pressure   1.00000 Atm.
 Atom     1 has atomic number  6 and mass  12.00000

 Molecular mass:   126.06808 amu.
 Principal axes and moments of inertia in atomic units:
                           1         2         3
     Eigenvalues --   669.233171314.193341886.46158
           X            0.99945   0.03259  -0.00657
           Y           -0.03262   0.99946  -0.00399
           Z            0.00644   0.00420   0.99997
 This molecule is an asymmetric top.
 Rotational symmetry number  1.
 Warning -- assumption of classical behavior for rotation
           may cause significant error
 Rotational temperatures (Kelvin)      0.12942     0.06591     0.04591
 Rotational constants (GHZ):           2.69673     1.37327     0.95668
 Zero-point vibrational energy     415800.0 (Joules/Mol)
                                   99.37859 (Kcal/Mol)
 Warning -- explicit consideration of  13 degrees of freedom as
           vibrations may cause significant error
 Vibrational temperatures:     97.38   222.62   279.30   302.61   338.58
          (Kelvin)            430.31   463.21   523.50   628.45   657.00
                              723.49   808.69   881.99   932.47  1134.96
                             1233.68  1285.49  1296.43  1454.57  1460.20
                             1476.65  1541.58  1581.82  1645.93  1657.59
                             1694.48  1801.16  1847.12  1905.55  1934.96
                             1953.96  1984.46  2022.65  2026.89  2112.86
                             2121.76  2127.84  2148.60  2159.91  2423.17
                             2565.50  4164.63  4235.75  4354.60  4391.48
                             4429.29  4479.18  4496.64  4502.00  4513.45
                             4562.00

 Zero-point correction=                           0.158370 (Hartree/Particle)
 Thermal correction to Energy=                    0.167221
 Thermal correction to Enthalpy=                  0.168166
 Thermal correction to Gibbs Free Energy=         0.124889
 Sum of electronic and zero-point Energies=           -423.062188
 Sum of electronic and thermal Energies=              -423.053336
 Sum of electronic and thermal Enthalpies=            -423.052392
 Sum of electronic and thermal Free Energies=         -423.095668

                     E (Thermal)             CV                S
                      KCal/Mol        Cal/Mol-Kelvin    Cal/Mol-Kelvin
 Total                  104.933             33.274             91.082
 Electronic               0.000              0.000              0.000
 Translational            0.889              2.981             40.409
 Rotational               0.889              2.981             28.897
 Vibrational            103.156             27.312             21.777
 Vibration     1          0.598              1.970              4.220
 Vibration     2          0.620              1.897              2.613
 Vibration     3          0.635              1.848              2.188
 Vibration     4          0.642              1.825              2.041
 Vibration     5          0.655              1.787              1.838
 Vibration     6          0.692              1.675              1.422
 Vibration     7          0.707              1.631              1.300
 Vibration     8          0.737              1.547              1.106
 Vibration     9          0.797              1.390              0.837
 Vibration    10          0.815              1.346              0.776
 Vibration    11          0.858              1.244              0.651
 Vibration    12          0.918              1.113              0.520
 Vibration    13          0.972              1.004              0.428

 Normal termination of Gaussian 09 at Tue Jan 28 04:41:42 2020.
