 Gaussian 09, Revision D.01,
 Gaussian 09:  ES64L-G09RevD.01 24-Apr-2013

 -----------------------------
 # b3lyp 6-31G(2df,p) opt Freq
 -----------------------------

 -----
 titel
 -----
 Symbolic Z-matrix:
 Charge =  0 Multiplicity = 1

 SCF Done:  E(RB3LYP) =  -423.235013052     A.U. after   14 cycles
 Optimization completed.
    -- Stationary point found.
 Normal termination of Gaussian 09 at Mon Jan 27 22:04:18 2020.

 ----------------------------------------------------------------------
 #N Geom=AllCheck Guess=TCheck SCRF=Check GenChk RB3LYP/6-31G(2df,p) Fr
 eq
 ----------------------------------------------------------------------

 Structure from the checkpoint file:  "/scratch/puck/g09_ab3c216e-91bf-4b8d-be6c-6b6f88aac03c/Gau-15066.chk"
 -----
 titel
 -----
 Charge =  0 Multiplicity = 1

                         Standard orientation:
 ---------------------------------------------------------------------
 Center     Atomic      Atomic             Coordinates (Angstroms)
 Number     Number       Type             X           Y           Z
 ---------------------------------------------------------------------
      1          6           0       -0.296695    2.122074   -0.213840
      2          6           0       -0.294634    0.689212    0.311827
      3          6           0        0.769159   -0.270147   -0.266318
      4          6           0        0.184001   -1.681838    0.017110
      5          6           0       -1.327145   -1.524608   -0.203745
      6          6           0       -1.623867   -0.050168    0.083302
      7          8           0       -2.711346    0.463319    0.109878
      8          6           0        2.120559   -0.077948    0.376147
      9          8           0        3.141355    0.188300   -0.201522
     10          1           0       -0.357648    2.135656   -1.306857
     11          1           0       -1.165666    2.657550    0.176495
     12          1           0        0.609886    2.658142    0.080249
     13          1           0       -0.170796    0.707198    1.408712
     14          1           0        0.878297   -0.109413   -1.344290
     15          1           0        0.639644   -2.445357   -0.616481
     16          1           0        0.388720   -1.958938    1.058928
     17          1           0       -1.601851   -1.714673   -1.248725
     18          1           0       -1.952286   -2.176613    0.411194
     19          1           0        2.103364   -0.205958    1.487031
 ---------------------------------------------------------------------

 SCF Done:  E(RB3LYP) =  -423.235013052     A.U. after    1 cycles

 The electronic state is 1-A.
 Alpha  occ. eigenvalues --  -19.14690 -19.13977 -10.27753 -10.27629 -10.21198
 Alpha  occ. eigenvalues --  -10.21015 -10.20987 -10.20366 -10.18727  -1.05414
 Alpha  occ. eigenvalues --   -1.05087  -0.86255  -0.77182  -0.73145  -0.66501
 Alpha  occ. eigenvalues --   -0.62459  -0.58457  -0.53142  -0.49220  -0.48936
 Alpha  occ. eigenvalues --   -0.45719  -0.45118  -0.44214  -0.42741  -0.41051
 Alpha  occ. eigenvalues --   -0.40013  -0.39327  -0.38382  -0.37101  -0.35300
 Alpha  occ. eigenvalues --   -0.34865  -0.33930  -0.26332  -0.24573
 Alpha virt. eigenvalues --   -0.03022  -0.02552   0.07922   0.09271   0.11041
 Alpha virt. eigenvalues --    0.12135   0.13748   0.14792   0.15609   0.15904
 Alpha virt. eigenvalues --    0.17018   0.17534   0.18541   0.19265   0.23369

 Mulliken charges:
               1
     1  C   -0.410428
     2  C   -0.105766
     3  C   -0.080684
     4  C   -0.251113
     5  C   -0.326240
     6  C    0.400119
     7  O   -0.312813
     8  C    0.157824
     9  O   -0.247614
    10  H    0.125614
    11  H    0.143254
    12  H    0.125692
    13  H    0.105951
    14  H    0.097072
    15  H    0.122336
    16  H    0.111287
    17  H    0.140698
    18  H    0.135847
    19  H    0.068961
 Sum of Mulliken charges =   0.00000

 Dipole moment (field-independent basis, Debye):
    X=             -0.2527    Y=             -1.6314    Z=              0.6145  Tot=              1.7615
 Quadrupole moment (field-independent basis, Debye-Ang):
   XX=            -72.9923   YY=            -50.2565   ZZ=            -50.6703
   XY=              1.6574   XZ=              2.6086   YZ=              0.3431

  Exact polarizability:  89.734   1.392  76.694  -0.492  -0.053  63.736
 Approx polarizability: 133.231  -0.435 104.004  -5.613  -0.679 102.815

                      1                      2                      3
                      A                      A                      A
 Frequencies --     56.9513                63.4421               133.8601
 Red. masses --      5.0830                 5.3407                 2.1232
 Frc consts  --      0.0097                 0.0127                 0.0224
 IR Inten    --      6.9046                 6.2573                 0.4574

                      4                      5                      6
                      A                      A                      A
 Frequencies --    190.1969               229.4948               259.0122
 Red. masses --      1.0393                 2.6613                 2.5873
 Frc consts  --      0.0222                 0.0826                 0.1023
 IR Inten    --      0.4995                 3.7700                 4.1176

                      7                      8                      9
                      A                      A                      A
 Frequencies --    294.0655               396.6224               418.1305
 Red. masses --      2.7593                 4.7136                 3.7252
 Frc consts  --      0.1406                 0.4369                 0.3837
 IR Inten    --      1.8345                 0.5787                 2.4177

                     10                     11                     12
                      A                      A                      A
 Frequencies --    476.3485               558.1215               592.5795
 Red. masses --      3.1677                 2.4548                 4.2083
 Frc consts  --      0.4235                 0.4505                 0.8707
 IR Inten    --      4.1792                 3.6159                11.8866

                     13                     14                     15
                      A                      A                      A
 Frequencies --    632.7200               721.2676               828.3722
 Red. masses --      3.0075                 2.6315                 1.9669
 Frc consts  --      0.7094                 0.8066                 0.7952
 IR Inten    --      7.4657                 0.9060                 8.6969

                     16                     17                     18
                      A                      A                      A
 Frequencies --    873.6486               918.3851               970.8838
 Red. masses --      1.6928                 2.4927                 1.4774
 Frc consts  --      0.7612                 1.2387                 0.8205
 IR Inten    --      1.3571                 3.2628                 1.5645

                     19                     20                     21
                      A                      A                      A
 Frequencies --   1001.0197              1004.4653              1036.9056
 Red. masses --      1.2830                 2.1692                 2.9958
 Frc consts  --      0.7574                 1.2895                 1.8978
 IR Inten    --      1.2310                 1.0555                53.7836

                     22                     23                     24
                      A                      A                      A
 Frequencies --   1067.8888              1093.6916              1140.5136
 Red. masses --      2.3152                 2.3917                 2.0620
 Frc consts  --      1.5556                 1.6856                 1.5803
 IR Inten    --     31.6104                 4.6306                 4.3277

                     25                     26                     27
                      A                      A                      A
 Frequencies --   1163.0369              1191.0873              1218.3646
 Red. masses --      2.5100                 1.8196                 1.4775
 Frc consts  --      2.0003                 1.5209                 1.2922
 IR Inten    --     33.0955                10.4746                 1.5846

                     28                     29                     30
                      A                      A                      A
 Frequencies --   1249.0367              1284.7450              1303.3305
 Red. masses --      1.4450                 1.4005                 1.3353
 Frc consts  --      1.3282                 1.3620                 1.3364
 IR Inten    --      1.5119                 2.3678                 2.5228

                     31                     32                     33
                      A                      A                      A
 Frequencies --   1304.1827              1339.3609              1359.5624
 Red. masses --      1.5757                 1.3475                 1.5172
 Frc consts  --      1.5791                 1.4242                 1.6523
 IR Inten    --     11.5377                 0.3580                 5.9987

                     34                     35                     36
                      A                      A                      A
 Frequencies --   1409.1967              1425.2112              1450.0798
 Red. masses --      1.2161                 1.1932                 1.0810
 Frc consts  --      1.4229                 1.4280                 1.3393
 IR Inten    --      3.9058                 2.5895                 6.2823

                     37                     38                     39
                      A                      A                      A
 Frequencies --   1492.5748              1496.6267              1498.2545
 Red. masses --      1.0446                 1.0689                 1.0717
 Frc consts  --      1.3711                 1.4106                 1.4174
 IR Inten    --      8.1005                 5.0930                 2.4310

                     40                     41                     42
                      A                      A                      A
 Frequencies --   1835.3341              1846.1858              2827.6104
 Red. masses --     10.6436                12.6264                 1.0805
 Frc consts  --     21.1237                25.3560                 5.0901
 IR Inten    --    295.3435               123.8283                94.6743

                     43                     44                     45
                      A                      A                      A
 Frequencies --   2964.6381              3033.4093              3043.3757
 Red. masses --      1.0794                 1.0696                 1.0358
 Frc consts  --      5.5893                 5.7990                 5.6526
 IR Inten    --     12.0931                16.8445                15.0710

                     46                     47                     48
                      A                      A                      A
 Frequencies --   3044.6062              3060.3480              3104.1262
 Red. masses --      1.0654                 1.0833                 1.0939
 Frc consts  --      5.8188                 5.9779                 6.2102
 IR Inten    --     10.7085                18.6778                 8.9025

                     49                     50                     51
                      A                      A                      A
 Frequencies --   3111.4930              3112.0952              3128.7931
 Red. masses --      1.1006                 1.0997                 1.1018
 Frc consts  --      6.2780                 6.2750                 6.3549
 IR Inten    --      6.5934                30.2844                 9.3166

 - Thermochemistry -
 -------------------
 Temperature   298.150 Kelvin.  Pressure   1.00000 Atm.
 Atom     1 has atomic number  6 and mass  12.00000

 Molecular mass:   126.06808 amu.
 Principal axes and moments of inertia in atomic units:
                           1         2         3
     Eigenvalues --   643.847361509.356462033.73432
           X            0.99994   0.00733   0.00821
           Y           -0.00730   0.99997  -0.00391
           Z           -0.00824   0.00384   0.99996
 This molecule is an asymmetric top.
 Rotational symmetry number  1.
 Warning -- assumption of classical behavior for rotation
           may cause significant error
 Rotational temperatures (Kelvin)      0.13453     0.05738     0.04259
 Rotational constants (GHZ):           2.80306     1.19570     0.88740
 Zero-point vibrational energy     414238.4 (Joules/Mol)
                                   99.00535 (Kcal/Mol)
 Warning -- explicit consideration of  12 degrees of freedom as
           vibrations may cause significant error
 Vibrational temperatures:     81.94    91.28   192.59   273.65   330.19
          (Kelvin)            372.66   423.09   570.65   601.60   685.36
                              803.01   852.59   910.34  1037.74  1191.84
                             1256.98  1321.35  1396.88  1440.24  1445.20
                             1491.87  1536.45  1573.58  1640.94  1673.35
                             1713.71  1752.95  1797.08  1848.46  1875.20
                             1876.43  1927.04  1956.10  2027.52  2050.56
                             2086.34  2147.48  2153.31  2155.65  2640.63
                             2656.25  4068.30  4265.45  4364.39  4378.73
                             4380.50  4403.15  4466.14  4476.74  4477.61
                             4501.63

 Zero-point correction=                           0.157775 (Hartree/Particle)
 Thermal correction to Energy=                    0.166901
 Thermal correction to Enthalpy=                  0.167845
 Thermal correction to Gibbs Free Energy=         0.123100
 Sum of electronic and zero-point Energies=           -423.077238
 Sum of electronic and thermal Energies=              -423.068112
 Sum of electronic and thermal Enthalpies=            -423.067168
 Sum of electronic and thermal Free Energies=         -423.111914

                     E (Thermal)             CV                S
                      KCal/Mol        Cal/Mol-Kelvin    Cal/Mol-Kelvin
 Total                  104.732             33.069             94.175
 Electronic               0.000              0.000              0.000
 Translational            0.889              2.981             40.409
 Rotational               0.889              2.981             29.071
 Vibrational            102.954             27.107             24.696
 Vibration     1          0.596              1.975              4.560
 Vibration     2          0.597              1.972              4.347
 Vibration     3          0.613              1.920              2.890
 Vibration     4          0.634              1.853              2.226
 Vibration     5          0.652              1.796              1.883
 Vibration     6          0.668              1.748              1.668
 Vibration     7          0.689              1.685              1.450
 Vibration     8          0.763              1.477              0.975
 Vibration     9          0.781              1.431              0.898
 Vibration    10          0.833              1.303              0.720
 Vibration    11          0.914              1.122              0.528
 Vibration    12          0.950              1.048              0.463

 Normal termination of Gaussian 09 at Mon Jan 27 22:51:43 2020.
