 Gaussian 09, Revision D.01,
 Gaussian 09:  ES64L-G09RevD.01 24-Apr-2013

 -----------------------------
 # b3lyp 6-31G(2df,p) opt Freq
 -----------------------------

 -----
 titel
 -----
 Symbolic Z-matrix:
 Charge =  0 Multiplicity = 1

 SCF Done:  E(RB3LYP) =  -423.208124281     A.U. after   14 cycles
 Optimization completed.
    -- Stationary point found.
 Normal termination of Gaussian 09 at Mon Jan 27 17:04:45 2020.

 ----------------------------------------------------------------------
 #N Geom=AllCheck Guess=TCheck SCRF=Check GenChk RB3LYP/6-31G(2df,p) Fr
 eq
 ----------------------------------------------------------------------

 Structure from the checkpoint file:  "/scratch/puck/g09_ca61d4fc-e561-4922-9ed3-994c6383300b/Gau-49306.chk"
 -----
 titel
 -----
 Charge =  0 Multiplicity = 1

                         Standard orientation:
 ---------------------------------------------------------------------
 Center     Atomic      Atomic             Coordinates (Angstroms)
 Number     Number       Type             X           Y           Z
 ---------------------------------------------------------------------
      1          6           0       -1.630216   -1.595905    0.595609
      2          6           0       -0.684162   -0.584550   -0.016376
      3          6           0        0.489630   -1.151783   -0.889592
      4          6           0        1.472929   -0.368708   -0.008609
      5          8           0        2.660831   -0.217585   -0.017354
      6          6           0        0.350530    0.170102    0.898317
      7          6           0        0.013303    1.657042    0.716745
      8          6           0       -0.738460    1.654313   -0.624552
      9          8           0       -1.449208    0.421795   -0.668317
     10          1           0       -2.247529   -2.058563   -0.180806
     11          1           0       -1.076218   -2.387078    1.109723
     12          1           0       -2.296334   -1.110012    1.314486
     13          1           0        0.626297   -2.236126   -0.827333
     14          1           0        0.471494   -0.863043   -1.944527
     15          1           0        0.430394   -0.140267    1.942680
     16          1           0       -0.644261    1.990227    1.525099
     17          1           0        0.899525    2.296329    0.706770
     18          1           0       -1.466801    2.462939   -0.724275
     19          1           0       -0.030880    1.728847   -1.465701
 ---------------------------------------------------------------------

 SCF Done:  E(RB3LYP) =  -423.208124281     A.U. after    1 cycles

 The electronic state is 1-A.
 Alpha  occ. eigenvalues --  -19.14341 -19.13858 -10.26981 -10.24571 -10.23426
 Alpha  occ. eigenvalues --  -10.19752 -10.19533 -10.18847 -10.18268  -1.04920
 Alpha  occ. eigenvalues --   -1.04111  -0.84039  -0.78121  -0.72220  -0.67682
 Alpha  occ. eigenvalues --   -0.61816  -0.56009  -0.52736  -0.49566  -0.49421
 Alpha  occ. eigenvalues --   -0.46743  -0.44120  -0.43039  -0.42720  -0.41378
 Alpha  occ. eigenvalues --   -0.39910  -0.38524  -0.36870  -0.35272  -0.34699
 Alpha  occ. eigenvalues --   -0.32908  -0.30992  -0.26066  -0.23731
 Alpha virt. eigenvalues --   -0.02652   0.07633   0.10837   0.11165   0.12182
 Alpha virt. eigenvalues --    0.12774   0.14928   0.15286   0.15791   0.16585
 Alpha virt. eigenvalues --    0.17697   0.17935   0.19229   0.20980   0.21362

 Mulliken charges:
               1
     1  C   -0.458487
     2  C    0.412013
     3  C   -0.407399
     4  C    0.408527
     5  O   -0.303863
     6  C   -0.207460
     7  C   -0.235433
     8  C   -0.100958
     9  O   -0.293258
    10  H    0.131124
    11  H    0.115167
    12  H    0.123854
    13  H    0.130029
    14  H    0.135984
    15  H    0.097178
    16  H    0.114355
    17  H    0.123702
    18  H    0.114730
    19  H    0.100194
 Sum of Mulliken charges =   0.00000

 Dipole moment (field-independent basis, Debye):
    X=             -1.7214    Y=              0.0715    Z=              0.7063  Tot=              1.8620
 Quadrupole moment (field-independent basis, Debye-Ang):
   XX=            -65.0762   YY=            -48.0868   ZZ=            -51.5106
   XY=              0.3340   XZ=             -1.5292   YZ=             -0.1098

  Exact polarizability:  77.823   0.591  78.829  -1.491   2.055  67.633
 Approx polarizability: 118.442   0.952 107.379  -0.188   3.065 101.451

                      1                      2                      3
                      A                      A                      A
 Frequencies --     55.3949               170.8296               214.3959
 Red. masses --      4.2322                 3.2896                 1.0791
 Frc consts  --      0.0077                 0.0566                 0.0292
 IR Inten    --      5.4646                 3.0552                 0.1138

                      4                      5                      6
                      A                      A                      A
 Frequencies --    227.4869               281.6849               325.9325
 Red. masses --      1.8109                 2.7652                 2.4460
 Frc consts  --      0.0552                 0.1293                 0.1531
 IR Inten    --      0.1121                 1.0333                 1.0742

                      7                      8                      9
                      A                      A                      A
 Frequencies --    395.0049               439.8250               527.2543
 Red. masses --      2.8412                 3.6199                 2.3127
 Frc consts  --      0.2612                 0.4126                 0.3788
 IR Inten    --      5.9704                 0.8858                 1.3002

                     10                     11                     12
                      A                      A                      A
 Frequencies --    585.2836               601.0690               638.9024
 Red. masses --      3.7075                 3.3711                 2.7982
 Frc consts  --      0.7483                 0.7176                 0.6730
 IR Inten    --      3.3986                 0.2416                 1.8267

                     13                     14                     15
                      A                      A                      A
 Frequencies --    736.1169               790.3949               863.2296
 Red. masses --      2.8976                 2.4302                 2.6596
 Frc consts  --      0.9251                 0.8945                 1.1677
 IR Inten    --      1.7138                 1.8506                 4.5264

                     16                     17                     18
                      A                      A                      A
 Frequencies --    889.1005               899.0297               920.0955
 Red. masses --      2.4659                 2.1520                 1.9013
 Frc consts  --      1.1485                 1.0248                 0.9483
 IR Inten    --     12.1075                 8.7317                 4.7444

                     19                     20                     21
                      A                      A                      A
 Frequencies --    935.3612               997.8211              1019.7749
 Red. masses --      2.2263                 1.3746                 1.5443
 Frc consts  --      1.1476                 0.8064                 0.9462
 IR Inten    --      4.8619                 1.5270                15.7666

                     22                     23                     24
                      A                      A                      A
 Frequencies --   1035.0428              1084.5822              1119.9585
 Red. masses --      3.5110                 3.0067                 2.0254
 Frc consts  --      2.2162                 2.0838                 1.4968
 IR Inten    --     13.1818                63.1125                 9.3616

                     25                     26                     27
                      A                      A                      A
 Frequencies --   1125.0144              1156.5256              1190.3303
 Red. masses --      2.4001                 1.6859                 2.3366
 Frc consts  --      1.7897                 1.3286                 1.9506
 IR Inten    --     35.8313                 7.7966                42.4025

                     28                     29                     30
                      A                      A                      A
 Frequencies --   1208.1812              1218.1365              1244.1999
 Red. masses --      1.4937                 1.6888                 1.7187
 Frc consts  --      1.2846                 1.4765                 1.5676
 IR Inten    --     11.1371                13.1103                12.0438

                     31                     32                     33
                      A                      A                      A
 Frequencies --   1270.3834              1314.2225              1331.6114
 Red. masses --      1.4338                 2.6987                 1.4055
 Frc consts  --      1.3634                 2.7462                 1.4684
 IR Inten    --     25.7494                30.1223                 2.3921

                     34                     35                     36
                      A                      A                      A
 Frequencies --   1385.7983              1410.1272              1420.8296
 Red. masses --      1.3225                 1.3389                 1.1070
 Frc consts  --      1.4964                 1.5686                 1.3166
 IR Inten    --      4.4276                 8.4819                13.0488

                     37                     38                     39
                      A                      A                      A
 Frequencies --   1481.0354              1483.1260              1494.4266
 Red. masses --      1.0492                 1.0911                 1.0516
 Frc consts  --      1.3560                 1.4141                 1.3837
 IR Inten    --      1.8722                 3.6675                 1.5029

                     40                     41                     42
                      A                      A                      A
 Frequencies --   1520.8915              1887.6818              2978.6583
 Red. masses --      1.0931                12.7716                 1.0718
 Frc consts  --      1.4897                26.8135                 5.6030
 IR Inten    --      1.0846               245.9052                52.2856

                     43                     44                     45
                      A                      A                      A
 Frequencies --   3038.5766              3054.5924              3057.7374
 Red. masses --      1.0350                 1.0592                 1.0617
 Frc consts  --      5.6304                 5.8230                 5.8487
 IR Inten    --     16.9392                 2.9183                20.5687

                     46                     47                     48
                      A                      A                      A
 Frequencies --   3090.8409              3095.8116              3109.5440
 Red. masses --      1.0866                 1.0909                 1.1040
 Frc consts  --      6.1160                 6.1598                 6.2892
 IR Inten    --     16.8808                29.0527                 3.5419

                     49                     50                     51
                      A                      A                      A
 Frequencies --   3111.6468              3113.7259              3116.1704
 Red. masses --      1.1022                 1.1050                 1.1023
 Frc consts  --      6.2877                 6.3120                 6.3066
 IR Inten    --     15.5686                16.3213                21.9592

 - Thermochemistry -
 -------------------
 Temperature   298.150 Kelvin.  Pressure   1.00000 Atm.
 Atom     1 has atomic number  6 and mass  12.00000

 Molecular mass:   126.06808 amu.
 Principal axes and moments of inertia in atomic units:
                           1         2         3
     Eigenvalues --   769.020381054.980151408.29979
           X            0.99786   0.06197  -0.02062
           Y           -0.06204   0.99807  -0.00248
           Z            0.02043   0.00375   0.99978
 This molecule is an asymmetric top.
 Rotational symmetry number  1.
 Warning -- assumption of classical behavior for rotation
           may cause significant error
 Rotational temperatures (Kelvin)      0.11263     0.08210     0.06150
 Rotational constants (GHZ):           2.34681     1.71069     1.28150
 Zero-point vibrational energy     416679.6 (Joules/Mol)
                                   99.58883 (Kcal/Mol)
 Warning -- explicit consideration of  11 degrees of freedom as
           vibrations may cause significant error
 Vibrational temperatures:     79.70   245.79   308.47   327.30   405.28
          (Kelvin)            468.94   568.32   632.81   758.60   842.09
                              864.80   919.24  1059.11  1137.20  1241.99
                             1279.22  1293.50  1323.81  1345.77  1435.64
                             1467.23  1489.19  1560.47  1611.37  1618.64
                             1663.98  1712.62  1738.30  1752.62  1790.12
                             1827.80  1890.87  1915.89  1993.85  2028.86
                             2044.25  2130.88  2133.88  2150.14  2188.22
                             2715.95  4285.62  4371.83  4394.87  4399.40
                             4447.03  4454.18  4473.93  4476.96  4479.95
                             4483.47

 Zero-point correction=                           0.158705 (Hartree/Particle)
 Thermal correction to Energy=                    0.166902
 Thermal correction to Enthalpy=                  0.167846
 Thermal correction to Gibbs Free Energy=         0.125841
 Sum of electronic and zero-point Energies=           -423.049419
 Sum of electronic and thermal Energies=              -423.041222
 Sum of electronic and thermal Enthalpies=            -423.040278
 Sum of electronic and thermal Free Energies=         -423.082283

                     E (Thermal)             CV                S
                      KCal/Mol        Cal/Mol-Kelvin    Cal/Mol-Kelvin
 Total                  104.733             31.769             88.407
 Electronic               0.000              0.000              0.000
 Translational            0.889              2.981             40.409
 Rotational               0.889              2.981             28.526
 Vibrational            102.955             25.808             19.472
 Vibration     1          0.596              1.975              4.615
 Vibration     2          0.626              1.878              2.426
 Vibration     3          0.644              1.819              2.006
 Vibration     4          0.651              1.799              1.899
 Vibration     5          0.681              1.708              1.523
 Vibration     6          0.710              1.624              1.280
 Vibration     7          0.762              1.481              0.981
 Vibration     8          0.800              1.383              0.827
 Vibration     9          0.882              1.190              0.593
 Vibration    10          0.942              1.063              0.476
 Vibration    11          0.959              1.030              0.448

 Optimization completed.
    -- Stationary point found.
 Normal termination of Gaussian 09 at Mon Jan 27 17:50:03 2020.
