 Gaussian 09, Revision D.01,
 Gaussian 09:  ES64L-G09RevD.01 24-Apr-2013

 -----------------------------
 # b3lyp 6-31G(2df,p) opt Freq
 -----------------------------

 -----
 titel
 -----
 Symbolic Z-matrix:
 Charge =  0 Multiplicity = 1

 SCF Done:  E(RB3LYP) =  -423.194394430     A.U. after   14 cycles
 Optimization completed.
    -- Stationary point found.
 Normal termination of Gaussian 09 at Tue Jan 28 01:51:39 2020.

 ----------------------------------------------------------------------
 #N Geom=AllCheck Guess=TCheck SCRF=Check GenChk RB3LYP/6-31G(2df,p) Fr
 eq
 ----------------------------------------------------------------------

 Structure from the checkpoint file:  "/scratch/puck/g09_ba8ed156-c981-4a53-a369-a44c616566f3/Gau-110865.chk"
 -----
 titel
 -----
 Charge =  0 Multiplicity = 1

                         Standard orientation:
 ---------------------------------------------------------------------
 Center     Atomic      Atomic             Coordinates (Angstroms)
 Number     Number       Type             X           Y           Z
 ---------------------------------------------------------------------
      1          6           0       -2.905025   -0.493639   -0.267092
      2          6           0       -1.454337   -0.928970   -0.285933
      3          6           0       -0.649755   -1.062904    0.960115
      4          6           0       -0.269519    0.024707   -0.051142
      5          6           0        0.990231   -0.168775   -0.891961
      6          6           0        2.240717   -0.055885   -0.039733
      7          8           0        2.959792   -0.988512    0.218497
      8          6           0       -0.550306    1.423806    0.347486
      9          8           0        0.130573    2.369682    0.024169
     10          1           0       -3.177300    0.040034   -1.183431
     11          1           0       -3.551271   -1.374450   -0.189656
     12          1           0       -3.137736    0.153466    0.582158
     13          1           0       -1.231529   -1.656227   -1.062355
     14          1           0       -1.100099   -0.735094    1.892478
     15          1           0        0.054396   -1.881058    1.064439
     16          1           0        0.992823   -1.155475   -1.361965
     17          1           0        1.017869    0.606042   -1.666735
     18          1           0        2.442322    0.959364    0.361254
     19          1           0       -1.444429    1.563998    0.992041
 ---------------------------------------------------------------------

 SCF Done:  E(RB3LYP) =  -423.194394430     A.U. after    1 cycles

 The electronic state is 1-A.
 Alpha  occ. eigenvalues --  -19.14334 -19.13842 -10.27699 -10.26894 -10.22483
 Alpha  occ. eigenvalues --  -10.22326 -10.21204 -10.19996 -10.19862  -1.05093
 Alpha  occ. eigenvalues --   -1.04421  -0.89596  -0.76842  -0.72531  -0.67061
 Alpha  occ. eigenvalues --   -0.61241  -0.57597  -0.54633  -0.50829  -0.49625
 Alpha  occ. eigenvalues --   -0.46664  -0.44321  -0.43929  -0.42596  -0.41946
 Alpha  occ. eigenvalues --   -0.41419  -0.39421  -0.38600  -0.37574  -0.36703
 Alpha  occ. eigenvalues --   -0.31581  -0.30380  -0.26080  -0.24471
 Alpha virt. eigenvalues --   -0.02958  -0.02109   0.07728   0.09014   0.11289
 Alpha virt. eigenvalues --    0.11567   0.12497   0.14084   0.14323   0.15345
 Alpha virt. eigenvalues --    0.16545   0.17124   0.19647   0.20808   0.22733

 Mulliken charges:
               1
     1  C   -0.421821
     2  C   -0.038484
     3  C   -0.329490
     4  C    0.213997
     5  C   -0.361067
     6  C    0.154728
     7  O   -0.245258
     8  C    0.110123
     9  O   -0.276049
    10  H    0.131295
    11  H    0.131000
    12  H    0.125530
    13  H    0.106281
    14  H    0.125271
    15  H    0.146057
    16  H    0.116006
    17  H    0.133479
    18  H    0.101975
    19  H    0.076425
 Sum of Mulliken charges =   0.00000

 Dipole moment (field-independent basis, Debye):
    X=             -3.4883    Y=             -1.1626    Z=             -0.2621  Tot=              3.6863
 Quadrupole moment (field-independent basis, Debye-Ang):
   XX=            -58.3777   YY=            -60.7151   ZZ=            -50.8727
   XY=              3.9001   XZ=             -2.0821   YZ=              1.2786

  Exact polarizability:  88.996   2.647  80.511  -0.184  -0.531  63.410
 Approx polarizability: 118.068   4.619 131.913  -0.471  -5.196  98.179

                      1                      2                      3
                      A                      A                      A
 Frequencies --     31.9098                63.4567               113.2306
 Red. masses --      4.9250                 4.2970                 3.4256
 Frc consts  --      0.0030                 0.0102                 0.0259
 IR Inten    --      7.8949                 2.9799                 2.8848

                      4                      5                      6
                      A                      A                      A
 Frequencies --    155.0607               199.7152               236.0019
 Red. masses --      2.7280                 1.1352                 3.3173
 Frc consts  --      0.0386                 0.0267                 0.1089
 IR Inten    --      3.3575                 0.8789                 7.0215

                      7                      8                      9
                      A                      A                      A
 Frequencies --    242.9746               292.1138               345.3432
 Red. masses --      2.7502                 2.6046                 2.6180
 Frc consts  --      0.0957                 0.1309                 0.1840
 IR Inten    --      1.0042                 3.5315                 1.3050

                     10                     11                     12
                      A                      A                      A
 Frequencies --    427.1145               482.4636               496.2877
 Red. masses --      2.0898                 2.4446                 2.9110
 Frc consts  --      0.2246                 0.3353                 0.4224
 IR Inten    --      1.6038                14.8686                 6.4250

                     13                     14                     15
                      A                      A                      A
 Frequencies --    542.7688               735.2270               763.9507
 Red. masses --      5.2548                 2.8564                 2.7199
 Frc consts  --      0.9121                 0.9097                 0.9353
 IR Inten    --      6.6880                 0.8550                 4.8336

                     16                     17                     18
                      A                      A                      A
 Frequencies --    874.4001               889.6657               895.6017
 Red. masses --      1.4499                 2.7319                 2.0219
 Frc consts  --      0.6531                 1.2740                 0.9555
 IR Inten    --      5.0481                30.1777                19.9695

                     19                     20                     21
                      A                      A                      A
 Frequencies --    935.5518               981.6052              1030.5574
 Red. masses --      1.3468                 1.8264                 1.6607
 Frc consts  --      0.6945                 1.0369                 1.0392
 IR Inten    --     11.0763                21.4070                13.2938

                     22                     23                     24
                      A                      A                      A
 Frequencies --   1051.8392              1067.0162              1086.7103
 Red. masses --      1.4811                 1.5335                 1.7798
 Frc consts  --      0.9655                 1.0287                 1.2384
 IR Inten    --      5.9303                 2.5761                 2.4930

                     25                     26                     27
                      A                      A                      A
 Frequencies --   1111.5551              1124.4742              1193.0777
 Red. masses --      2.4228                 1.7960                 1.6836
 Frc consts  --      1.7637                 1.3380                 1.4119
 IR Inten    --     10.3249                12.3774                 0.2317

                     28                     29                     30
                      A                      A                      A
 Frequencies --   1215.2495              1268.4670              1311.6651
 Red. masses --      1.3380                 1.7652                 1.5994
 Frc consts  --      1.1642                 1.6735                 1.6213
 IR Inten    --     10.9579                 2.7307                 2.7087

                     31                     32                     33
                      A                      A                      A
 Frequencies --   1343.1424              1405.9633              1416.8676
 Red. masses --      2.3051                 1.4374                 1.2195
 Frc consts  --      2.4501                 1.6741                 1.4424
 IR Inten    --     22.3304                 1.5610                 7.2463

                     34                     35                     36
                      A                      A                      A
 Frequencies --   1419.9838              1442.7904              1453.4947
 Red. masses --      1.3027                 1.2498                 1.1515
 Frc consts  --      1.5476                 1.5328                 1.4333
 IR Inten    --      2.3579                 0.9775                15.5598

                     37                     38                     39
                      A                      A                      A
 Frequencies --   1486.7788              1494.3082              1504.7019
 Red. masses --      1.2338                 1.0445                 1.1180
 Frc consts  --      1.6069                 1.3742                 1.4914
 IR Inten    --      5.6011                 2.3291                 3.0906

                     40                     41                     42
                      A                      A                      A
 Frequencies --   1798.2970              1824.9816              2899.4409
 Red. masses --     10.3994                 9.6949                 1.0825
 Frc consts  --     19.8144                19.0244                 5.3615
 IR Inten    --    214.7521               159.4419                87.3449

                     43                     44                     45
                      A                      A                      A
 Frequencies --   2920.7438              3038.5833              3044.6629
 Red. masses --      1.0846                 1.0366                 1.0588
 Frc consts  --      5.4513                 5.6388                 5.7829
 IR Inten    --     66.5245                27.7700                 7.6722

                     46                     47                     48
                      A                      A                      A
 Frequencies --   3099.0291              3112.3338              3114.5696
 Red. masses --      1.1012                 1.1030                 1.0988
 Frc consts  --      6.2310                 6.2947                 6.2803
 IR Inten    --     16.7061                 8.8305                 7.2204

                     49                     50                     51
                      A                      A                      A
 Frequencies --   3128.7169              3144.3439              3218.5642
 Red. masses --      1.0556                 1.0888                 1.1162
 Frc consts  --      6.0880                 6.3426                 6.8127
 IR Inten    --      6.4206                18.0337                 3.0044

 - Thermochemistry -
 -------------------
 Temperature   298.150 Kelvin.  Pressure   1.00000 Atm.
 Atom     1 has atomic number  6 and mass  12.00000

 Molecular mass:   126.06808 amu.
 Principal axes and moments of inertia in atomic units:
                           1         2         3
     Eigenvalues --   745.604691542.972692015.96475
           X            0.99953   0.03033  -0.00448
           Y           -0.03029   0.99951   0.00834
           Z            0.00474  -0.00820   0.99996
 This molecule is an asymmetric top.
 Rotational symmetry number  1.
 Warning -- assumption of classical behavior for rotation
           may cause significant error
 Rotational temperatures (Kelvin)      0.11617     0.05613     0.04296
 Rotational constants (GHZ):           2.42051     1.16965     0.89522
 Zero-point vibrational energy     409585.5 (Joules/Mol)
                                   97.89329 (Kcal/Mol)
 Warning -- explicit consideration of  13 degrees of freedom as
           vibrations may cause significant error
 Vibrational temperatures:     45.91    91.30   162.91   223.10   287.35
          (Kelvin)            339.55   349.59   420.29   496.87   614.52
                              694.16   714.05   780.92  1057.83  1099.15
                             1258.07  1280.03  1288.57  1346.05  1412.31
                             1482.74  1513.36  1535.20  1563.53  1599.28
                             1617.87  1716.57  1748.47  1825.04  1887.19
                             1932.48  2022.87  2038.55  2043.04  2075.85
                             2091.25  2139.14  2149.97  2164.93  2587.35
                             2625.74  4171.64  4202.29  4371.84  4380.59
                             4458.81  4477.95  4481.17  4501.52  4524.00
                             4630.79

 Zero-point correction=                           0.156003 (Hartree/Particle)
 Thermal correction to Energy=                    0.165890
 Thermal correction to Enthalpy=                  0.166834
 Thermal correction to Gibbs Free Energy=         0.119997
 Sum of electronic and zero-point Energies=           -423.038392
 Sum of electronic and thermal Energies=              -423.028505
 Sum of electronic and thermal Enthalpies=            -423.027560
 Sum of electronic and thermal Free Energies=         -423.074397

                     E (Thermal)             CV                S
                      KCal/Mol        Cal/Mol-Kelvin    Cal/Mol-Kelvin
 Total                  104.097             34.822             98.576
 Electronic               0.000              0.000              0.000
 Translational            0.889              2.981             40.409
 Rotational               0.889              2.981             29.229
 Vibrational            102.320             28.860             28.938
 Vibration     1          0.594              1.983              5.707
 Vibration     2          0.597              1.972              4.347
 Vibration     3          0.607              1.938              3.213
 Vibration     4          0.620              1.897              2.609
 Vibration     5          0.638              1.840              2.136
 Vibration     6          0.655              1.786              1.833
 Vibration     7          0.659              1.774              1.781
 Vibration     8          0.687              1.688              1.462
 Vibration     9          0.724              1.585              1.187
 Vibration    10          0.789              1.411              0.868
 Vibration    11          0.839              1.289              0.703
 Vibration    12          0.852              1.258              0.667
 Vibration    13          0.898              1.156              0.559

 Optimization completed.
    -- Stationary point found.
 Normal termination of Gaussian 09 at Tue Jan 28 02:29:38 2020.
