 Gaussian 09, Revision D.01,
 Gaussian 09:  ES64L-G09RevD.01 24-Apr-2013

 -----------------------------
 # b3lyp 6-31G(2df,p) opt Freq
 -----------------------------

 -----
 titel
 -----
 Symbolic Z-matrix:
 Charge =  0 Multiplicity = 1

 SCF Done:  E(RB3LYP) =  -423.147135324     A.U. after   13 cycles
 Optimization completed.
    -- Stationary point found.
 Normal termination of Gaussian 09 at Tue Jan 28 12:09:48 2020.

 ----------------------------------------------------------------------
 #N Geom=AllCheck Guess=TCheck SCRF=Check GenChk RB3LYP/6-31G(2df,p) Fr
 eq
 ----------------------------------------------------------------------

 Structure from the checkpoint file:  "/scratch/puck/g09_d210fe25-9df4-4d0b-8ba8-a25375da3e2e/Gau-18850.chk"
 -----
 titel
 -----
 Charge =  0 Multiplicity = 1

                         Standard orientation:
 ---------------------------------------------------------------------
 Center     Atomic      Atomic             Coordinates (Angstroms)
 Number     Number       Type             X           Y           Z
 ---------------------------------------------------------------------
      1          8           0       -2.807874    0.217471   -0.475809
      2          6           0       -1.932591   -0.119510    0.592274
      3          6           0       -0.481423    0.013454    0.214383
      4          6           0        0.068240    1.363102   -0.262617
      5          6           0        1.583841    1.311148    0.079108
      6          6           0        1.829864   -0.177974    0.284555
      7          8           0        1.458405   -0.868484   -0.961081
      8          6           0        0.211784   -1.217801   -0.364878
      9          6           0        0.580664   -0.739448    1.000733
     10          1           0       -2.559377   -0.323321   -1.233041
     11          1           0       -2.182147    0.577154    1.401005
     12          1           0       -2.131033   -1.136976    0.969636
     13          1           0       -0.093832    1.501633   -1.334521
     14          1           0       -0.441212    2.184996    0.249275
     15          1           0        2.215127    1.718866   -0.715178
     16          1           0        1.806061    1.856061    1.004256
     17          1           0        2.821782   -0.480440    0.623830
     18          1           0       -0.292155   -2.111979   -0.717595
     19          1           0        0.490270   -1.175707    1.986099
 ---------------------------------------------------------------------

 SCF Done:  E(RB3LYP) =  -423.147135324     A.U. after    1 cycles

 The electronic state is 1-A.
 Alpha  occ. eigenvalues --  -19.13505 -19.13468 -10.24054 -10.23991 -10.23167
 Alpha  occ. eigenvalues --  -10.19739 -10.19308 -10.18376 -10.18235  -1.05320
 Alpha  occ. eigenvalues --   -1.01562  -0.85365  -0.77193  -0.71375  -0.67520
 Alpha  occ. eigenvalues --   -0.61192  -0.55901  -0.53746  -0.53127  -0.48739
 Alpha  occ. eigenvalues --   -0.47427  -0.45603  -0.43375  -0.42735  -0.41193
 Alpha  occ. eigenvalues --   -0.36841  -0.35564  -0.34868  -0.33487  -0.33328
 Alpha  occ. eigenvalues --   -0.31261  -0.27833  -0.26315  -0.22763
 Alpha virt. eigenvalues --    0.07458   0.08385   0.09796   0.10886   0.11346
 Alpha virt. eigenvalues --    0.12646   0.14375   0.15799   0.16054   0.16878
 Alpha virt. eigenvalues --    0.17068   0.18116   0.20576   0.21174   0.22289

 Mulliken charges:
               1
     1  O   -0.415533
     2  C   -0.161052
     3  C    0.267284
     4  C   -0.273009
     5  C   -0.213669
     6  C    0.085529
     7  O   -0.313518
     8  C    0.057147
     9  C   -0.210292
    10  H    0.281803
    11  H    0.110660
    12  H    0.082820
    13  H    0.112261
    14  H    0.102786
    15  H    0.109510
    16  H    0.099359
    17  H    0.082474
    18  H    0.099054
    19  H    0.096386
 Sum of Mulliken charges =   0.00000

 Dipole moment (field-independent basis, Debye):
    X=              0.5883    Y=             -0.4413    Z=              1.2753  Tot=              1.4721
 Quadrupole moment (field-independent basis, Debye-Ang):
   XX=            -58.5990   YY=            -52.0693   ZZ=            -51.6257
   XY=              4.9049   XZ=              3.1395   YZ=              0.0077

  Exact polarizability:  82.104   1.634  72.157   1.477   0.094  66.816
 Approx polarizability: 111.566  -1.443 105.151   2.161   3.557 108.548

                      1                      2                      3
                      A                      A                      A
 Frequencies --     99.1052               148.3728               206.9157
 Red. masses --      3.7154                 3.0949                 2.2536
 Frc consts  --      0.0215                 0.0401                 0.0568
 IR Inten    --      4.1416                 0.5063                 2.4504

                      4                      5                      6
                      A                      A                      A
 Frequencies --    285.6277               345.8031               381.6237
 Red. masses --      1.5657                 1.4675                 2.6556
 Frc consts  --      0.0753                 0.1034                 0.2279
 IR Inten    --     39.5877                55.3793                 9.2121

                      7                      8                      9
                      A                      A                      A
 Frequencies --    394.7285               480.9750               633.6432
 Red. masses --      3.9012                 3.4084                 3.7712
 Frc consts  --      0.3581                 0.4646                 0.8921
 IR Inten    --     20.9861                 2.7398                16.0059

                     10                     11                     12
                      A                      A                      A
 Frequencies --    667.5768               745.3273               773.1774
 Red. masses --      3.9832                 3.5346                 2.8262
 Frc consts  --      1.0459                 1.1569                 0.9954
 IR Inten    --      1.7720                13.6869                 2.2010

                     13                     14                     15
                      A                      A                      A
 Frequencies --    831.5948               845.9134               869.8146
 Red. masses --      1.6250                 1.6564                 1.9761
 Frc consts  --      0.6621                 0.6984                 0.8809
 IR Inten    --      2.8376                 0.6626                15.9907

                     16                     17                     18
                      A                      A                      A
 Frequencies --    896.6381               903.6048               929.5615
 Red. masses --      2.2612                 2.5023                 2.5529
 Frc consts  --      1.0711                 1.2038                 1.2997
 IR Inten    --     10.1386                 7.7296                20.8264

                     19                     20                     21
                      A                      A                      A
 Frequencies --    986.8782              1013.0721              1020.8162
 Red. masses --      1.6094                 2.2684                 2.5152
 Frc consts  --      0.9235                 1.3716                 1.5443
 IR Inten    --      6.9381                23.9082                32.5415

                     22                     23                     24
                      A                      A                      A
 Frequencies --   1033.4757              1058.3665              1063.0905
 Red. masses --      2.6426                 2.8794                 2.2782
 Frc consts  --      1.6630                 1.9003                 1.5170
 IR Inten    --     47.4811                50.9808                10.4081

                     25                     26                     27
                      A                      A                      A
 Frequencies --   1096.5694              1150.9793              1168.7321
 Red. masses --      3.0530                 1.5076                 1.4347
 Frc consts  --      2.1630                 1.1767                 1.1546
 IR Inten    --      4.5341                 5.6303                 2.9163

                     28                     29                     30
                      A                      A                      A
 Frequencies --   1185.1226              1216.8406              1246.0045
 Red. masses --      1.3644                 1.4334                 1.2927
 Frc consts  --      1.1290                 1.2505                 1.1825
 IR Inten    --     18.5591                 3.7496                 5.6892

                     31                     32                     33
                      A                      A                      A
 Frequencies --   1267.2323              1289.3974              1296.6809
 Red. masses --      1.3935                 1.8334                 2.2174
 Frc consts  --      1.3184                 1.7959                 2.1967
 IR Inten    --      2.6193                 2.1688                 3.9174

                     34                     35                     36
                      A                      A                      A
 Frequencies --   1330.6251              1339.7641              1368.7579
 Red. masses --      1.5084                 1.6681                 1.4069
 Frc consts  --      1.5736                 1.7641                 1.5530
 IR Inten    --      4.4037                 2.4068                 3.8805

                     37                     38                     39
                      A                      A                      A
 Frequencies --   1412.1869              1424.4639              1473.3584
 Red. masses --      1.9499                 1.4385                 1.0932
 Frc consts  --      2.2912                 1.7197                 1.3982
 IR Inten    --      5.9382                73.9013                 1.1396

                     40                     41                     42
                      A                      A                      A
 Frequencies --   1495.8035              1506.2811              2961.0430
 Red. masses --      1.1039                 1.0878                 1.0710
 Frc consts  --      1.4552                 1.4542                 5.5328
 IR Inten    --      1.9734                 0.7151                59.3989

                     43                     44                     45
                      A                      A                      A
 Frequencies --   3038.6394              3055.8978              3060.1575
 Red. masses --      1.0636                 1.0881                 1.0633
 Frc consts  --      5.7859                 5.9869                 5.8665
 IR Inten    --     26.6833                19.5241                46.6306

                     46                     47                     48
                      A                      A                      A
 Frequencies --   3090.4448              3104.6871              3107.8446
 Red. masses --      1.1009                 1.0926                 1.1012
 Frc consts  --      6.1950                 6.2049                 6.2665
 IR Inten    --      3.5763                45.6782                34.4361

                     49                     50                     51
                      A                      A                      A
 Frequencies --   3162.4381              3203.8806              3808.0806
 Red. masses --      1.0915                 1.0976                 1.0660
 Frc consts  --      6.4315                 6.6383                 9.1076
 IR Inten    --     23.4806                 9.4010                12.5476

 - Thermochemistry -
 -------------------
 Temperature   298.150 Kelvin.  Pressure   1.00000 Atm.
 Atom     1 has atomic number  8 and mass  15.99491

 Molecular mass:   126.06808 amu.
 Principal axes and moments of inertia in atomic units:
                           1         2         3
     Eigenvalues --   546.841991310.247881490.87376
           X            0.99950   0.03135   0.00369
           Y           -0.03120   0.99892  -0.03450
           Z           -0.00476   0.03437   0.99940
 This molecule is an asymmetric top.
 Rotational symmetry number  1.
 Warning -- assumption of classical behavior for rotation
           may cause significant error
 Rotational temperatures (Kelvin)      0.15839     0.06610     0.05810
 Rotational constants (GHZ):           3.30030     1.37740     1.21053
 Zero-point vibrational energy     421549.8 (Joules/Mol)
                                  100.75281 (Kcal/Mol)
 Warning -- explicit consideration of   8 degrees of freedom as
           vibrations may cause significant error
 Vibrational temperatures:    142.59   213.48   297.71   410.95   497.53
          (Kelvin)            549.07   567.93   692.01   911.67   960.49
                             1072.36  1112.43  1196.48  1217.08  1251.47
                             1290.06  1300.08  1337.43  1419.90  1457.58
                             1468.72  1486.94  1522.75  1529.55  1577.72
                             1656.00  1681.54  1705.12  1750.76  1792.72
                             1823.26  1855.15  1865.63  1914.47  1927.62
                             1969.33  2031.82  2049.48  2119.83  2152.12
                             2167.20  4260.28  4371.92  4396.75  4402.88
                             4446.46  4466.95  4471.49  4550.04  4609.66
                             5478.97

 Zero-point correction=                           0.160560 (Hartree/Particle)
 Thermal correction to Energy=                    0.168217
 Thermal correction to Enthalpy=                  0.169161
 Thermal correction to Gibbs Free Energy=         0.128461
 Sum of electronic and zero-point Energies=           -422.986576
 Sum of electronic and thermal Energies=              -422.978919
 Sum of electronic and thermal Enthalpies=            -422.977974
 Sum of electronic and thermal Free Energies=         -423.018675

                     E (Thermal)             CV                S
                      KCal/Mol        Cal/Mol-Kelvin    Cal/Mol-Kelvin
 Total                  105.558             30.386             85.661
 Electronic               0.000              0.000              0.000
 Translational            0.889              2.981             40.409
 Rotational               0.889              2.981             28.459
 Vibrational            103.780             24.425             16.793
 Vibration     1          0.604              1.950              3.472
 Vibration     2          0.618              1.904              2.693
 Vibration     3          0.641              1.830              2.071
 Vibration     4          0.683              1.700              1.500
 Vibration     5          0.724              1.584              1.185
 Vibration     6          0.751              1.509              1.033
 Vibration     7          0.762              1.481              0.982
 Vibration     8          0.837              1.292              0.707

 Optimization completed.
    -- Stationary point found.
 Normal termination of Gaussian 09 at Tue Jan 28 13:04:01 2020.
