 Gaussian 09, Revision D.01,
 Gaussian 09:  ES64L-G09RevD.01 24-Apr-2013

 -----------------------------
 # b3lyp 6-31G(2df,p) opt Freq
 -----------------------------

 -----
 titel
 -----
 Symbolic Z-matrix:
 Charge =  0 Multiplicity = 1

 SCF Done:  E(RB3LYP) =  -423.214541744     A.U. after   14 cycles
 Optimization completed.
    -- Stationary point found.
 Normal termination of Gaussian 09 at Mon Jan 27 14:10:32 2020.

 ----------------------------------------------------------------------
 #N Geom=AllCheck Guess=TCheck SCRF=Check GenChk RB3LYP/6-31G(2df,p) Fr
 eq
 ----------------------------------------------------------------------

 Structure from the checkpoint file:  "/scratch/puck/g09_50900158-0277-47c4-ac07-ff50c520f109/Gau-70740.chk"
 -----
 titel
 -----
 Charge =  0 Multiplicity = 1

                         Standard orientation:
 ---------------------------------------------------------------------
 Center     Atomic      Atomic             Coordinates (Angstroms)
 Number     Number       Type             X           Y           Z
 ---------------------------------------------------------------------
      1          6           0       -2.855561   -0.738612    0.735905
      2          6           0       -1.967355    0.016658   -0.235437
      3          8           0       -2.288728    1.082925   -0.708448
      4          6           0       -0.622027   -0.619201   -0.571570
      5          6           0        0.467353   -0.097169    0.374339
      6          6           0        0.924316    1.393898    0.277630
      7          6           0        2.416938    0.947811    0.214556
      8          6           0        1.921007   -0.496069    0.039090
      9          8           0        2.423186   -1.518660   -0.325006
     10          1           0       -3.219591   -1.655827    0.257296
     11          1           0       -2.293628   -1.050557    1.623312
     12          1           0       -3.705618   -0.121104    1.027952
     13          1           0       -0.665581   -1.710624   -0.495699
     14          1           0       -0.368537   -0.351088   -1.601589
     15          1           0        0.243836   -0.379305    1.411519
     16          1           0        0.577747    1.865755   -0.643303
     17          1           0        0.650111    2.030170    1.119212
     18          1           0        3.039087    1.336448   -0.595464
     19          1           0        2.958498    1.078119    1.157316
 ---------------------------------------------------------------------

 SCF Done:  E(RB3LYP) =  -423.214541744     A.U. after    1 cycles

 The electronic state is 1-A.
 Alpha  occ. eigenvalues --  -19.14310 -19.13152 -10.27481 -10.27399 -10.20936
 Alpha  occ. eigenvalues --  -10.19967 -10.19778 -10.19714 -10.19420  -1.05167
 Alpha  occ. eigenvalues --   -1.04223  -0.85603  -0.77771  -0.73066  -0.65416
 Alpha  occ. eigenvalues --   -0.63296  -0.53829  -0.53309  -0.48363  -0.47118
 Alpha  occ. eigenvalues --   -0.46874  -0.45377  -0.43900  -0.42944  -0.41039
 Alpha  occ. eigenvalues --   -0.39390  -0.39197  -0.38290  -0.35672  -0.35380
 Alpha  occ. eigenvalues --   -0.33860  -0.33251  -0.25686  -0.23855
 Alpha virt. eigenvalues --   -0.02936  -0.01247   0.07883   0.09983   0.11809
 Alpha virt. eigenvalues --    0.12263   0.13542   0.14292   0.15258   0.15670
 Alpha virt. eigenvalues --    0.16008   0.17796   0.18588   0.19658   0.21051

 Mulliken charges:
               1
     1  C   -0.477093
     2  C    0.381507
     3  O   -0.301140
     4  C   -0.304550
     5  C   -0.105558
     6  C   -0.237210
     7  C   -0.341593
     8  C    0.390581
     9  O   -0.294042
    10  H    0.146422
    11  H    0.136196
    12  H    0.143781
    13  H    0.119901
    14  H    0.124209
    15  H    0.103499
    16  H    0.133200
    17  H    0.113198
    18  H    0.134266
    19  H    0.134424
 Sum of Mulliken charges =   0.00000

 Dipole moment (field-independent basis, Debye):
    X=             -0.3722    Y=              0.0290    Z=              1.8366  Tot=              1.8741
 Quadrupole moment (field-independent basis, Debye-Ang):
   XX=            -57.9203   YY=            -57.6785   ZZ=            -51.3397
   XY=             12.0425   XZ=             -1.0288   YZ=              0.5098

  Exact polarizability:  92.175   1.011  76.942  -2.406  -0.585  62.969
 Approx polarizability: 115.686  -8.164 124.341  -1.744  -2.651  98.547

                      1                      2                      3
                      A                      A                      A
 Frequencies --     36.2352                51.9812                74.4022
 Red. masses --      4.3580                 3.9717                 2.1824
 Frc consts  --      0.0034                 0.0063                 0.0071
 IR Inten    --      5.7185                 5.4758                 1.5015

                      4                      5                      6
                      A                      A                      A
 Frequencies --    113.1807               152.8837               192.8190
 Red. masses --      3.5712                 1.1131                 6.0893
 Frc consts  --      0.0270                 0.0153                 0.1334
 IR Inten    --      5.0724                 0.1135                 0.5765

                      7                      8                      9
                      A                      A                      A
 Frequencies --    313.6035               388.0657               439.0124
 Red. masses --      3.2938                 1.9443                 2.4322
 Frc consts  --      0.1909                 0.1725                 0.2762
 IR Inten    --      1.2281                 0.4278                 1.0443

                     10                     11                     12
                      A                      A                      A
 Frequencies --    510.9102               541.4198               585.2820
 Red. masses --      3.7809                 2.4397                 2.6752
 Frc consts  --      0.5815                 0.4214                 0.5399
 IR Inten    --     14.6972                 4.7410                 0.7026

                     13                     14                     15
                      A                      A                      A
 Frequencies --    668.5702               724.1805               785.3597
 Red. masses --      3.8365                 1.4768                 2.5145
 Frc consts  --      1.0104                 0.4563                 0.9138
 IR Inten    --      1.6386                 1.5386                 2.5024

                     16                     17                     18
                      A                      A                      A
 Frequencies --    800.0100               857.7014               918.0433
 Red. masses --      2.4645                 2.2106                 1.7179
 Frc consts  --      0.9293                 0.9581                 0.8530
 IR Inten    --      0.9522                 1.9855                 2.0694

                     19                     20                     21
                      A                      A                      A
 Frequencies --    930.6045               961.4990              1000.8237
 Red. masses --      2.6632                 1.6451                 1.4357
 Frc consts  --      1.3589                 0.8961                 0.8473
 IR Inten    --      2.4335                10.2858                 6.6448

                     22                     23                     24
                      A                      A                      A
 Frequencies --   1030.9975              1080.8832              1088.9056
 Red. masses --      2.6514                 2.6453                 2.2417
 Frc consts  --      1.6605                 1.8209                 1.5661
 IR Inten    --     19.0132                61.4360                21.1543

                     25                     26                     27
                      A                      A                      A
 Frequencies --   1111.3032              1178.5185              1200.1880
 Red. masses --      2.2317                 1.8092                 1.4281
 Frc consts  --      1.6239                 1.4805                 1.2120
 IR Inten    --      0.0941                37.0714                 6.4905

                     28                     29                     30
                      A                      A                      A
 Frequencies --   1217.8053              1231.8367              1246.6876
 Red. masses --      1.4041                 1.3748                 1.4262
 Frc consts  --      1.2269                 1.2291                 1.3060
 IR Inten    --      6.2100                 8.8441                53.0844

                     31                     32                     33
                      A                      A                      A
 Frequencies --   1271.2074              1307.3237              1340.5589
 Red. masses --      1.5130                 1.6237                 1.4629
 Frc consts  --      1.4405                 1.6350                 1.5489
 IR Inten    --      1.3999                29.2856                 1.3369

                     34                     35                     36
                      A                      A                      A
 Frequencies --   1381.2627              1440.5518              1459.9342
 Red. masses --      1.3241                 1.0966                 1.0544
 Frc consts  --      1.4884                 1.3407                 1.3242
 IR Inten    --     38.6865                 6.4394                10.2205

                     37                     38                     39
                      A                      A                      A
 Frequencies --   1474.1507              1477.4974              1495.4756
 Red. masses --      1.0681                 1.0808                 1.0995
 Frc consts  --      1.3676                 1.3901                 1.4487
 IR Inten    --      1.9880                10.9849                 2.2689

                     40                     41                     42
                      A                      A                      A
 Frequencies --   1808.1546              1888.8187              3027.8689
 Red. masses --     10.5170                12.8556                 1.0810
 Frc consts  --     20.2587                27.0224                 5.8390
 IR Inten    --    152.1546               256.9833                 7.7230

                     43                     44                     45
                      A                      A                      A
 Frequencies --   3033.4364              3048.9874              3058.5160
 Red. masses --      1.0387                 1.0574                 1.0607
 Frc consts  --      5.6312                 5.7917                 5.8460
 IR Inten    --      3.2574                10.5405                10.7957

                     46                     47                     48
                      A                      A                      A
 Frequencies --   3089.8386              3092.8809              3104.1783
 Red. masses --      1.0603                 1.0973                 1.1053
 Frc consts  --      5.9642                 6.1844                 6.2754
 IR Inten    --     12.7650                 9.3101                13.2599

                     49                     50                     51
                      A                      A                      A
 Frequencies --   3113.1356              3144.8056              3152.7223
 Red. masses --      1.1037                 1.1082                 1.1018
 Frc consts  --      6.3020                 6.4576                 6.4527
 IR Inten    --      4.4182                15.2011                10.5853

 - Thermochemistry -
 -------------------
 Temperature   298.150 Kelvin.  Pressure   1.00000 Atm.
 Atom     1 has atomic number  6 and mass  12.00000

 Molecular mass:   126.06808 amu.
 Principal axes and moments of inertia in atomic units:
                           1         2         3
     Eigenvalues --   559.307601927.659432230.89239
           X            0.99873   0.04915  -0.01105
           Y           -0.04915   0.99879  -0.00048
           Z            0.01101   0.00102   0.99994
 This molecule is an asymmetric top.
 Rotational symmetry number  1.
 Warning -- assumption of classical behavior for rotation
           may cause significant error
 Rotational temperatures (Kelvin)      0.15486     0.04493     0.03882
 Rotational constants (GHZ):           3.22674     0.93623     0.80898
 Zero-point vibrational energy     410588.4 (Joules/Mol)
                                   98.13298 (Kcal/Mol)
 Warning -- explicit consideration of  12 degrees of freedom as
           vibrations may cause significant error
 Vibrational temperatures:     52.13    74.79   107.05   162.84   219.97
          (Kelvin)            277.42   451.20   558.34   631.64   735.08
                              778.98   842.09   961.92  1041.93  1129.96
                             1151.03  1234.04  1320.86  1338.93  1383.38
                             1439.96  1483.37  1555.15  1566.69  1598.92
                             1695.62  1726.80  1752.15  1772.34  1793.70
                             1828.98  1880.94  1928.76  1987.33  2072.63
                             2100.52  2120.97  2125.79  2151.65  2601.53
                             2717.59  4356.42  4364.43  4386.81  4400.52
                             4445.58  4449.96  4466.21  4479.10  4524.67
                             4536.06

 Zero-point correction=                           0.156385 (Hartree/Particle)
 Thermal correction to Energy=                    0.166086
 Thermal correction to Enthalpy=                  0.167030
 Thermal correction to Gibbs Free Energy=         0.119936
 Sum of electronic and zero-point Energies=           -423.058157
 Sum of electronic and thermal Energies=              -423.048456
 Sum of electronic and thermal Enthalpies=            -423.047511
 Sum of electronic and thermal Free Energies=         -423.094605

                     E (Thermal)             CV                S
                      KCal/Mol        Cal/Mol-Kelvin    Cal/Mol-Kelvin
 Total                  104.221             34.035             99.118
 Electronic               0.000              0.000              0.000
 Translational            0.889              2.981             40.409
 Rotational               0.889              2.981             29.266
 Vibrational            102.443             28.073             29.444
 Vibration     1          0.594              1.982              5.455
 Vibration     2          0.596              1.977              4.741
 Vibration     3          0.599              1.966              4.033
 Vibration     4          0.607              1.939              3.214
 Vibration     5          0.619              1.899              2.636
 Vibration     6          0.635              1.850              2.201
 Vibration     7          0.701              1.648              1.343
 Vibration     8          0.756              1.496              1.008
 Vibration     9          0.799              1.385              0.830
 Vibration    10          0.866              1.226              0.631
 Vibration    11          0.897              1.158              0.562
 Vibration    12          0.942              1.063              0.476

 Optimization completed.
    -- Stationary point found.
 Normal termination of Gaussian 09 at Mon Jan 27 14:56:40 2020.
