 Gaussian 09, Revision D.01,
 Gaussian 09:  ES64L-G09RevD.01 24-Apr-2013

 -----------------------------
 # b3lyp 6-31G(2df,p) opt Freq
 -----------------------------

 -----
 titel
 -----
 Symbolic Z-matrix:
 Charge =  0 Multiplicity = 1

 SCF Done:  E(RB3LYP) =  -423.194759944     A.U. after   14 cycles
 Optimization completed.
    -- Stationary point found.
 Normal termination of Gaussian 09 at Mon Jan 27 16:23:35 2020.

 ----------------------------------------------------------------------
 #N Geom=AllCheck Guess=TCheck SCRF=Check GenChk RB3LYP/6-31G(2df,p) Fr
 eq
 ----------------------------------------------------------------------

 Structure from the checkpoint file:  "/scratch/puck/g09_f4a124c3-910f-4637-a049-e9a0e1c850e1/Gau-30002.chk"
 -----
 titel
 -----
 Charge =  0 Multiplicity = 1

                         Standard orientation:
 ---------------------------------------------------------------------
 Center     Atomic      Atomic             Coordinates (Angstroms)
 Number     Number       Type             X           Y           Z
 ---------------------------------------------------------------------
      1          6           0       -1.736918    1.686562   -0.230392
      2          6           0       -1.028202    0.353446    0.011465
      3          6           0        0.038933   -0.027912   -1.046078
      4          6           0        1.167966    0.446213   -0.079035
      5          6           0        0.122466    0.451041    1.079460
      6          6           0        2.334814   -0.487811    0.086251
      7          8           0        3.492724   -0.181702   -0.034779
      8          6           0       -2.032656   -0.723905    0.346565
      9          8           0       -2.070397   -1.818890   -0.154236
     10          1           0       -2.373071    1.639459   -1.120708
     11          1           0       -2.367255    1.959332    0.623741
     12          1           0       -1.010675    2.491603   -0.378886
     13          1           0        0.049016   -1.108539   -1.213257
     14          1           0       -0.014272    0.481218   -2.010106
     15          1           0        1.543449    1.443588   -0.313421
     16          1           0        0.194715   -0.445740    1.703373
     17          1           0        0.116683    1.330146    1.727104
     18          1           0        2.039013   -1.535412    0.337114
     19          1           0       -2.754635   -0.436719    1.147750
 ---------------------------------------------------------------------

 SCF Done:  E(RB3LYP) =  -423.194759944     A.U. after    1 cycles

 The electronic state is 1-A.
 Alpha  occ. eigenvalues --  -19.14991 -19.14189 -10.27698 -10.27231 -10.21774
 Alpha  occ. eigenvalues --  -10.21263 -10.20775 -10.20000 -10.19997  -1.05633
 Alpha  occ. eigenvalues --   -1.04853  -0.87743  -0.76636  -0.68707  -0.68062
 Alpha  occ. eigenvalues --   -0.64089  -0.57442  -0.53989  -0.50432  -0.49065
 Alpha  occ. eigenvalues --   -0.46297  -0.44789  -0.44117  -0.42899  -0.41744
 Alpha  occ. eigenvalues --   -0.40771  -0.40159  -0.38614  -0.35276  -0.34571
 Alpha  occ. eigenvalues --   -0.33928  -0.32136  -0.26429  -0.24802
 Alpha virt. eigenvalues --   -0.03697  -0.02154   0.06895   0.09683   0.10376
 Alpha virt. eigenvalues --    0.11722   0.12609   0.14068   0.14522   0.14842
 Alpha virt. eigenvalues --    0.15987   0.17307   0.18424   0.19731   0.20469

 Mulliken charges:
               1
     1  C   -0.468477
     2  C    0.246008
     3  C   -0.298939
     4  C   -0.056312
     5  C   -0.302902
     6  C    0.158533
     7  O   -0.250263
     8  C    0.105090
     9  O   -0.249742
    10  H    0.132271
    11  H    0.124765
    12  H    0.130155
    13  H    0.132289
    14  H    0.114773
    15  H    0.094993
    16  H    0.118330
    17  H    0.119580
    18  H    0.073958
    19  H    0.075889
 Sum of Mulliken charges =   0.00000

 Dipole moment (field-independent basis, Debye):
    X=             -2.2354    Y=              2.2975    Z=              0.8367  Tot=              3.3129
 Quadrupole moment (field-independent basis, Debye-Ang):
   XX=            -67.6994   YY=            -56.1860   ZZ=            -51.1761
   XY=             -5.3508   XZ=             -0.8666   YZ=             -1.1122

  Exact polarizability:  92.038  -0.111  75.338  -2.641   0.976  65.278
 Approx polarizability: 126.044   5.841 116.640  -3.569   5.362  99.948

                      1                      2                      3
                      A                      A                      A
 Frequencies --     46.4909                70.7492                81.4521
 Red. masses --      5.5608                 4.6511                 3.2136
 Frc consts  --      0.0071                 0.0137                 0.0126
 IR Inten    --      3.0253                 6.8666                 3.0334

                      4                      5                      6
                      A                      A                      A
 Frequencies --    222.9898               250.0599               259.7345
 Red. masses --      1.2415                 2.1475                 2.1758
 Frc consts  --      0.0364                 0.0791                 0.0865
 IR Inten    --      1.7255                 5.7167                 1.7652

                      7                      8                      9
                      A                      A                      A
 Frequencies --    274.4867               286.1307               354.8939
 Red. masses --      3.0157                 2.6388                 2.0653
 Frc consts  --      0.1339                 0.1273                 0.1533
 IR Inten    --      1.6867                 3.5295                 3.3715

                     10                     11                     12
                      A                      A                      A
 Frequencies --    388.4712               439.7560               568.2113
 Red. masses --      1.9164                 5.0506                 3.6850
 Frc consts  --      0.1704                 0.5755                 0.7010
 IR Inten    --      1.3492                 3.1462                 2.8759

                     13                     14                     15
                      A                      A                      A
 Frequencies --    692.0974               769.7785               831.2728
 Red. masses --      3.6216                 2.4822                 1.3469
 Frc consts  --      1.0221                 0.8666                 0.5484
 IR Inten    --     18.7608                12.3570                 0.7616

                     16                     17                     18
                      A                      A                      A
 Frequencies --    895.3447               904.1568               910.6956
 Red. masses --      2.5625                 2.6701                 2.7721
 Frc consts  --      1.2103                 1.2860                 1.3546
 IR Inten    --      8.1488                 7.8924                 3.2092

                     19                     20                     21
                      A                      A                      A
 Frequencies --    924.3019               954.7173              1000.8079
 Red. masses --      2.1996                 1.5502                 1.4578
 Frc consts  --      1.1072                 0.8325                 0.8603
 IR Inten    --     12.7638                12.1296                 3.0228

                     22                     23                     24
                      A                      A                      A
 Frequencies --   1055.6278              1070.8625              1089.2826
 Red. masses --      2.3386                 1.6864                 1.5367
 Frc consts  --      1.5355                 1.1394                 1.0743
 IR Inten    --     28.4493                 0.9200                 1.2779

                     25                     26                     27
                      A                      A                      A
 Frequencies --   1171.2455              1189.6216              1217.0163
 Red. masses --      2.0497                 2.3115                 1.9794
 Frc consts  --      1.6567                 1.9273                 1.7273
 IR Inten    --      3.0152                13.8460                 6.1123

                     28                     29                     30
                      A                      A                      A
 Frequencies --   1244.4133              1267.3167              1272.6664
 Red. masses --      1.3468                 1.2376                 1.8455
 Frc consts  --      1.2288                 1.1711                 1.7611
 IR Inten    --      1.6627                 0.5636                 2.7098

                     31                     32                     33
                      A                      A                      A
 Frequencies --   1302.3688              1326.1526              1407.6745
 Red. masses --      2.3900                 1.4547                 1.2384
 Frc consts  --      2.3884                 1.5073                 1.4458
 IR Inten    --      1.6453                 1.7331                 4.2111

                     34                     35                     36
                      A                      A                      A
 Frequencies --   1425.2410              1429.4315              1468.6438
 Red. masses --      1.2099                 1.2058                 1.0824
 Frc consts  --      1.4481                 1.4516                 1.3756
 IR Inten    --      5.0679                 2.5215                 5.3644

                     37                     38                     39
                      A                      A                      A
 Frequencies --   1488.2281              1492.2011              1497.7913
 Red. masses --      1.0932                 1.0624                 1.0624
 Frc consts  --      1.4265                 1.3938                 1.4043
 IR Inten    --      2.3020                 6.3657                 4.7837

                     40                     41                     42
                      A                      A                      A
 Frequencies --   1824.9667              1831.3011              2842.3346
 Red. masses --     10.8285                10.3866                 1.0816
 Frc consts  --     21.2485                20.5231                 5.1481
 IR Inten    --    158.9299               208.3341                86.0236

                     43                     44                     45
                      A                      A                      A
 Frequencies --   2851.1901              3027.7281              3050.2222
 Red. masses --      1.0820                 1.0352                 1.0596
 Frc consts  --      5.1825                 5.5910                 5.8085
 IR Inten    --    122.1315                20.7388                22.9194

                     46                     47                     48
                      A                      A                      A
 Frequencies --   3067.5086              3095.6835              3098.5099
 Red. masses --      1.0583                 1.1006                 1.0901
 Frc consts  --      5.8672                 6.2141                 6.1661
 IR Inten    --     10.7370                16.5850                 4.7371

                     49                     50                     51
                      A                      A                      A
 Frequencies --   3104.9074              3117.0694              3127.6571
 Red. masses --      1.1017                 1.1043                 1.1061
 Frc consts  --      6.2575                 6.3219                 6.3749
 IR Inten    --     15.3993                20.3296                16.5625

 - Thermochemistry -
 -------------------
 Temperature   298.150 Kelvin.  Pressure   1.00000 Atm.
 Atom     1 has atomic number  6 and mass  12.00000

 Molecular mass:   126.06808 amu.
 Principal axes and moments of inertia in atomic units:
                           1         2         3
     Eigenvalues --   599.944611841.003982122.62520
           X            0.99951  -0.03126  -0.00177
           Y            0.03123   0.99942  -0.01342
           Z            0.00219   0.01336   0.99991
 This molecule is an asymmetric top.
 Rotational symmetry number  1.
 Warning -- assumption of classical behavior for rotation
           may cause significant error
 Rotational temperatures (Kelvin)      0.14437     0.04705     0.04081
 Rotational constants (GHZ):           3.00818     0.98030     0.85024
 Zero-point vibrational energy     410208.2 (Joules/Mol)
                                   98.04212 (Kcal/Mol)
 Warning -- explicit consideration of  12 degrees of freedom as
           vibrations may cause significant error
 Vibrational temperatures:     66.89   101.79   117.19   320.83   359.78
          (Kelvin)            373.70   394.92   411.68   510.61   558.92
                              632.71   817.53   995.77  1107.54  1196.01
                             1288.20  1300.88  1310.29  1329.86  1373.62
                             1439.94  1518.81  1540.73  1567.23  1685.16
                             1711.60  1751.01  1790.43  1823.38  1831.08
                             1873.82  1908.04  2025.33  2050.60  2056.63
                             2113.05  2141.23  2146.94  2154.98  2625.72
                             2634.83  4089.48  4102.22  4356.22  4388.58
                             4413.46  4453.99  4458.06  4467.26  4484.76
                             4500.00

 Zero-point correction=                           0.156240 (Hartree/Particle)
 Thermal correction to Energy=                    0.165784
 Thermal correction to Enthalpy=                  0.166728
 Thermal correction to Gibbs Free Energy=         0.120856
 Sum of electronic and zero-point Energies=           -423.038520
 Sum of electronic and thermal Energies=              -423.028976
 Sum of electronic and thermal Enthalpies=            -423.028032
 Sum of electronic and thermal Free Energies=         -423.073904

                     E (Thermal)             CV                S
                      KCal/Mol        Cal/Mol-Kelvin    Cal/Mol-Kelvin
 Total                  104.031             34.046             96.546
 Electronic               0.000              0.000              0.000
 Translational            0.889              2.981             40.409
 Rotational               0.889              2.981             29.240
 Vibrational            102.254             28.084             26.897
 Vibration     1          0.595              1.979              4.961
 Vibration     2          0.598              1.968              4.132
 Vibration     3          0.600              1.962              3.856
 Vibration     4          0.649              1.806              1.935
 Vibration     5          0.663              1.763              1.730
 Vibration     6          0.668              1.746              1.664
 Vibration     7          0.677              1.720              1.568
 Vibration     8          0.684              1.699              1.497
 Vibration     9          0.731              1.565              1.144
 Vibration    10          0.757              1.495              1.006
 Vibration    11          0.800              1.383              0.827
 Vibration    12          0.924              1.100              0.508

 Optimization completed.
    -- Stationary point found.
 Normal termination of Gaussian 09 at Mon Jan 27 17:06:53 2020.
