 Gaussian 09, Revision D.01,
 Gaussian 09:  ES64L-G09RevD.01 24-Apr-2013

 -----------------------------
 # b3lyp 6-31G(2df,p) opt Freq
 -----------------------------

 -----
 titel
 -----
 Symbolic Z-matrix:
 Charge =  0 Multiplicity = 1

 SCF Done:  E(RB3LYP) =  -423.171416061     A.U. after   14 cycles
 SCF Done:  E(RB3LYP) =  -423.171416048     A.U. after    6 cycles
 SCF Done:  E(RB3LYP) =  -423.171415902     A.U. after    7 cycles
 Optimization completed.
    -- Stationary point found.
 Normal termination of Gaussian 09 at Tue Jan 28 12:48:32 2020.

 ----------------------------------------------------------------------
 #N Geom=AllCheck Guess=TCheck SCRF=Check GenChk RB3LYP/6-31G(2df,p) Fr
 eq
 ----------------------------------------------------------------------

 Structure from the checkpoint file:  "/scratch/puck/g09_28f6a489-c864-4101-824a-89569d389d78/Gau-106568.chk"
 -----
 titel
 -----
 Charge =  0 Multiplicity = 1

                         Standard orientation:
 ---------------------------------------------------------------------
 Center     Atomic      Atomic             Coordinates (Angstroms)
 Number     Number       Type             X           Y           Z
 ---------------------------------------------------------------------
      1          6           0       -2.608509   -1.220065    0.063358
      2          6           0       -1.124045   -1.224902   -0.312737
      3          6           0       -0.318008   -0.187741    0.475468
      4          6           0       -0.502738    1.293422    0.075030
      5          8           0       -1.455554    2.013169   -0.006854
      6          6           0        1.001234    1.479866   -0.222883
      7          6           0        1.173118   -0.009924    0.112271
      8          6           0        2.344535   -0.749682    0.573371
      9          8           0        1.840181   -0.904499   -0.762761
     10          1           0       -3.166126   -1.942584   -0.540069
     11          1           0       -2.749577   -1.484595    1.117320
     12          1           0       -3.047010   -0.230498   -0.092728
     13          1           0       -0.683119   -2.212894   -0.136190
     14          1           0       -1.006128   -1.031668   -1.385221
     15          1           0       -0.477856   -0.323341    1.553419
     16          1           0        1.229167    1.747064   -1.259277
     17          1           0        1.503686    2.187568    0.443609
     18          1           0        3.308240   -0.247928    0.651315
     19          1           0        2.218187   -1.616327    1.221473
 ---------------------------------------------------------------------

 SCF Done:  E(RB3LYP) =  -423.171415902     A.U. after    1 cycles

 The electronic state is 1-A.
 Alpha  occ. eigenvalues --  -19.16032 -19.14354 -10.27519 -10.25281 -10.24225
 Alpha  occ. eigenvalues --  -10.19975 -10.19860 -10.19210 -10.17445  -1.08127
 Alpha  occ. eigenvalues --   -1.05135  -0.84807  -0.77087  -0.68449  -0.67420
 Alpha  occ. eigenvalues --   -0.60829  -0.58506  -0.52804  -0.50062  -0.49121
 Alpha  occ. eigenvalues --   -0.47233  -0.45171  -0.43184  -0.41476  -0.40994
 Alpha  occ. eigenvalues --   -0.39563  -0.38231  -0.36754  -0.34922  -0.34552
 Alpha  occ. eigenvalues --   -0.33651  -0.30433  -0.27256  -0.24285
 Alpha virt. eigenvalues --   -0.02948   0.08803   0.09218   0.10278   0.11458
 Alpha virt. eigenvalues --    0.11973   0.13340   0.14245   0.14733   0.16093
 Alpha virt. eigenvalues --    0.17314   0.18066   0.19131   0.19823   0.23320

 Mulliken charges:
               1
     1  C   -0.391415
     2  C   -0.178796
     3  C   -0.213427
     4  C    0.407374
     5  O   -0.296085
     6  C   -0.442296
     7  C    0.419151
     8  C   -0.262590
     9  O   -0.258933
    10  H    0.114251
    11  H    0.112220
    12  H    0.145662
    13  H    0.109515
    14  H    0.108946
    15  H    0.102768
    16  H    0.148479
    17  H    0.137308
    18  H    0.119632
    19  H    0.118236
 Sum of Mulliken charges =   0.00000

 Dipole moment (field-independent basis, Debye):
    X=              1.6507    Y=             -0.9337    Z=              1.5439  Tot=              2.4455
 Quadrupole moment (field-independent basis, Debye-Ang):
   XX=            -54.5317   YY=            -56.6289   ZZ=            -52.1916
   XY=              6.6097   XZ=              3.3725   YZ=             -1.9136

  Exact polarizability:  89.608  -0.034  77.682   2.054  -3.447  61.264
 Approx polarizability: 118.357  -7.985 111.333   1.982  -3.038  98.834

                      1                      2                      3
                      A                      A                      A
 Frequencies --     38.0785                90.6272               136.0803
 Red. masses --      3.7642                 2.3070                 3.2354
 Frc consts  --      0.0032                 0.0112                 0.0353
 IR Inten    --      4.5511                 0.6097                 0.8947

                      4                      5                      6
                      A                      A                      A
 Frequencies --    178.2347               252.6190               260.3980
 Red. masses --      2.4332                 2.3601                 1.4585
 Frc consts  --      0.0455                 0.0887                 0.0583
 IR Inten    --      4.4386                 1.4535                 0.0630

                      7                      8                      9
                      A                      A                      A
 Frequencies --    324.0664               359.7859               427.2922
 Red. masses --      2.5655                 2.9397                 3.9607
 Frc consts  --      0.1587                 0.2242                 0.4261
 IR Inten    --      1.4446                 4.9000                 5.0886

                     10                     11                     12
                      A                      A                      A
 Frequencies --    498.7124               518.2447               553.7630
 Red. masses --      3.0983                 4.0295                 2.7560
 Frc consts  --      0.4540                 0.6376                 0.4979
 IR Inten    --      1.1390                 0.7111                 0.8422

                     13                     14                     15
                      A                      A                      A
 Frequencies --    722.4180               770.6642               797.8171
 Red. masses --      2.6432                 1.4512                 2.5894
 Frc consts  --      0.8127                 0.5078                 0.9711
 IR Inten    --      1.1068                 2.9759                12.4926

                     16                     17                     18
                      A                      A                      A
 Frequencies --    834.2651               870.2831               926.0740
 Red. masses --      2.4715                 1.6832                 2.4978
 Frc consts  --      1.0135                 0.7511                 1.2621
 IR Inten    --     21.0914                 1.0507                22.7324

                     19                     20                     21
                      A                      A                      A
 Frequencies --    956.3827               980.4548              1018.0081
 Red. masses --      1.9808                 2.6643                 3.3892
 Frc consts  --      1.0675                 1.5090                 2.0694
 IR Inten    --      7.9272                 6.4854                41.5336

                     22                     23                     24
                      A                      A                      A
 Frequencies --   1049.2877              1066.7578              1122.7175
 Red. masses --      1.5631                 2.0162                 1.3527
 Frc consts  --      1.0140                 1.3518                 1.0046
 IR Inten    --      1.0842                 9.8646                 4.9980

                     25                     26                     27
                      A                      A                      A
 Frequencies --   1135.8124              1145.9483              1164.1317
 Red. masses --      1.5477                 2.3352                 1.5804
 Frc consts  --      1.1764                 1.8068                 1.2619
 IR Inten    --      1.7105                 5.0508                 0.4799

                     28                     29                     30
                      A                      A                      A
 Frequencies --   1191.9596              1208.3544              1221.0239
 Red. masses --      1.6414                 2.2606                 1.4880
 Frc consts  --      1.3740                 1.9448                 1.3071
 IR Inten    --      6.2479                34.2393                 5.5982

                     31                     32                     33
                      A                      A                      A
 Frequencies --   1262.7164              1323.3464              1362.7700
 Red. masses --      1.5736                 1.3311                 1.4402
 Frc consts  --      1.4782                 1.3734                 1.5758
 IR Inten    --     11.0373                 3.5662                12.0580

                     34                     35                     36
                      A                      A                      A
 Frequencies --   1413.0782              1413.7016              1444.3815
 Red. masses --      1.2577                 1.2299                 1.8978
 Frc consts  --      1.4797                 1.4483                 2.3328
 IR Inten    --     21.6137                 0.2243                17.2161

                     37                     38                     39
                      A                      A                      A
 Frequencies --   1487.0122              1497.9266              1510.8700
 Red. masses --      1.0631                 1.0431                 1.0613
 Frc consts  --      1.3850                 1.3790                 1.4273
 IR Inten    --      1.3418                 6.1871                 2.9307

                     40                     41                     42
                      A                      A                      A
 Frequencies --   1536.7887              1890.7561              3025.3321
 Red. masses --      1.5909                12.7576                 1.0809
 Frc consts  --      2.2137                26.8714                 5.8289
 IR Inten    --      9.3665               218.3601                 3.7242

                     43                     44                     45
                      A                      A                      A
 Frequencies --   3034.6536              3036.5416              3056.4889
 Red. masses --      1.0473                 1.0506                 1.0592
 Frc consts  --      5.6828                 5.7076                 5.8301
 IR Inten    --     15.3661                34.1893                 4.6366

                     46                     47                     48
                      A                      A                      A
 Frequencies --   3068.0053              3079.8660              3102.6200
 Red. masses --      1.1014                 1.0505                 1.1008
 Frc consts  --      6.1082                 5.8709                 6.2432
 IR Inten    --     10.8406                25.9780                36.7555

                     49                     50                     51
                      A                      A                      A
 Frequencies --   3110.8643              3121.0418              3166.3127
 Red. masses --      1.1051                 1.1019                 1.1195
 Frc consts  --      6.3008                 6.3240                 6.6126
 IR Inten    --      3.2437                17.8217                18.5591

 - Thermochemistry -
 -------------------
 Temperature   298.150 Kelvin.  Pressure   1.00000 Atm.
 Atom     1 has atomic number  6 and mass  12.00000

 Molecular mass:   126.06808 amu.
 Principal axes and moments of inertia in atomic units:
                           1         2         3
     Eigenvalues --   771.330071290.064161864.47463
           X            0.99475   0.10175   0.01097
           Y           -0.10156   0.99470  -0.01603
           Z           -0.01255   0.01484   0.99981
 This molecule is an asymmetric top.
 Rotational symmetry number  1.
 Warning -- assumption of classical behavior for rotation
           may cause significant error
 Rotational temperatures (Kelvin)      0.11229     0.06714     0.04645
 Rotational constants (GHZ):           2.33978     1.39895     0.96796
 Zero-point vibrational energy     411308.0 (Joules/Mol)
                                   98.30498 (Kcal/Mol)
 Warning -- explicit consideration of  12 degrees of freedom as
           vibrations may cause significant error
 Vibrational temperatures:     54.79   130.39   195.79   256.44   363.46
          (Kelvin)            374.65   466.26   517.65   614.78   717.54
                              745.64   796.74  1039.40  1108.81  1147.88
                             1200.32  1252.14  1332.41  1376.02  1410.65
                             1464.68  1509.69  1534.82  1615.34  1634.18
                             1648.76  1674.92  1714.96  1738.55  1756.78
                             1816.77  1904.00  1960.72  2033.10  2034.00
                             2078.14  2139.48  2155.18  2173.80  2211.09
                             2720.37  4352.77  4366.18  4368.90  4397.60
                             4414.17  4431.23  4463.97  4475.83  4490.48
                             4555.61

 Zero-point correction=                           0.156659 (Hartree/Particle)
 Thermal correction to Energy=                    0.165802
 Thermal correction to Enthalpy=                  0.166746
 Thermal correction to Gibbs Free Energy=         0.121976
 Sum of electronic and zero-point Energies=           -423.014757
 Sum of electronic and thermal Energies=              -423.005614
 Sum of electronic and thermal Enthalpies=            -423.004670
 Sum of electronic and thermal Free Energies=         -423.049440

                     E (Thermal)             CV                S
                      KCal/Mol        Cal/Mol-Kelvin    Cal/Mol-Kelvin
 Total                  104.042             33.556             94.227
 Electronic               0.000              0.000              0.000
 Translational            0.889              2.981             40.409
 Rotational               0.889              2.981             29.008
 Vibrational            102.265             27.594             24.811
 Vibration     1          0.594              1.982              5.357
 Vibration     2          0.602              1.956              3.646
 Vibration     3          0.614              1.917              2.858
 Vibration     4          0.629              1.869              2.347
 Vibration     5          0.664              1.758              1.712
 Vibration     6          0.668              1.745              1.659
 Vibration     7          0.709              1.627              1.290
 Vibration     8          0.734              1.555              1.123
 Vibration     9          0.789              1.411              0.868
 Vibration    10          0.854              1.253              0.661
 Vibration    11          0.873              1.210              0.614
 Vibration    12          0.909              1.131              0.536

 Normal termination of Gaussian 09 at Tue Jan 28 13:28:48 2020.
