 Gaussian 09, Revision D.01,
 Gaussian 09:  ES64L-G09RevD.01 24-Apr-2013

 -----------------------------
 # b3lyp 6-31G(2df,p) opt Freq
 -----------------------------

 -----
 titel
 -----
 Symbolic Z-matrix:
 Charge =  0 Multiplicity = 1

 SCF Done:  E(RB3LYP) =  -423.158304317     A.U. after   13 cycles
 Optimization completed.
    -- Stationary point found.
 Normal termination of Gaussian 09 at Mon Jan 27 11:19:20 2020.

 ----------------------------------------------------------------------
 #N Geom=AllCheck Guess=TCheck SCRF=Check GenChk RB3LYP/6-31G(2df,p) Fr
 eq
 ----------------------------------------------------------------------

 Structure from the checkpoint file:  "/scratch/puck/g09_4984f181-44be-47b0-a116-a9207e62a6c8/Gau-164696.chk"
 -----
 titel
 -----
 Charge =  0 Multiplicity = 1

                         Standard orientation:
 ---------------------------------------------------------------------
 Center     Atomic      Atomic             Coordinates (Angstroms)
 Number     Number       Type             X           Y           Z
 ---------------------------------------------------------------------
      1          6           0        2.111730    0.543189   -0.049828
      2          6           0        1.008610   -0.108209   -0.864588
      3          8           0        0.490943   -1.416281   -0.737601
      4          6           0       -0.517162   -1.277162    0.284890
      5          6           0        0.216096   -0.459390    1.336701
      6          6           0        0.666823    0.659660    0.381886
      7          6           0       -0.459659    1.654107    0.223176
      8          6           0       -1.598522    0.822799   -0.452193
      9          8           0       -1.675712   -0.578087   -0.114272
     10          1           0        2.762400   -0.043395    0.590764
     11          1           0        2.604723    1.376261   -0.544539
     12          1           0        0.823104    0.332239   -1.840095
     13          1           0       -0.851749   -2.283505    0.542152
     14          1           0       -0.434356   -0.102051    2.137192
     15          1           0        1.046351   -1.023996    1.765485
     16          1           0       -0.774744    2.070986    1.186093
     17          1           0       -0.211679    2.494312   -0.434035
     18          1           0       -2.584950    1.229184   -0.209204
     19          1           0       -1.468453    0.894933   -1.539098
 ---------------------------------------------------------------------

 SCF Done:  E(RB3LYP) =  -423.158304317     A.U. after    1 cycles

 The electronic state is 1-A.
 Alpha  occ. eigenvalues --  -19.14124 -19.14058 -10.27447 -10.23389 -10.22699
 Alpha  occ. eigenvalues --  -10.19916 -10.19855 -10.19574 -10.18324  -1.06551
 Alpha  occ. eigenvalues --   -1.00237  -0.86417  -0.76142  -0.75464  -0.65184
 Alpha  occ. eigenvalues --   -0.62056  -0.57498  -0.56065  -0.50089  -0.49586
 Alpha  occ. eigenvalues --   -0.47322  -0.46277  -0.42897  -0.42307  -0.41128
 Alpha  occ. eigenvalues --   -0.39082  -0.37656  -0.36040  -0.34994  -0.32676
 Alpha  occ. eigenvalues --   -0.30336  -0.28006  -0.25505  -0.23848
 Alpha virt. eigenvalues --    0.07725   0.09707   0.10221   0.11328   0.12550
 Alpha virt. eigenvalues --    0.12924   0.14644   0.15653   0.15841   0.17047
 Alpha virt. eigenvalues --    0.17641   0.19763   0.20636   0.21585   0.22176

 Mulliken charges:
               1
     1  C   -0.414439
     2  C    0.085621
     3  O   -0.281372
     4  C    0.239786
     5  C   -0.289098
     6  C    0.275858
     7  C   -0.335445
     8  C   -0.047012
     9  O   -0.285574
    10  H    0.121145
    11  H    0.115480
    12  H    0.094564
    13  H    0.088653
    14  H    0.104352
    15  H    0.105130
    16  H    0.104137
    17  H    0.103689
    18  H    0.106644
    19  H    0.107881
 Sum of Mulliken charges =   0.00000

 Dipole moment (field-independent basis, Debye):
    X=              0.5272    Y=              2.0110    Z=              0.8758  Tot=              2.2559
 Quadrupole moment (field-independent basis, Debye-Ang):
   XX=            -54.2495   YY=            -53.2425   ZZ=            -52.3275
   XY=             -0.7285   XZ=              0.0432   YZ=             -4.0146

  Exact polarizability:  80.290  -0.030  73.357  -1.102  -4.045  67.013
 Approx polarizability: 113.705   0.795 108.968  -3.547  -1.873 104.083

                      1                      2                      3
                      A                      A                      A
 Frequencies --    183.7426               248.7138               348.8295
 Red. masses --      2.9341                 2.5297                 2.2339
 Frc consts  --      0.0584                 0.0922                 0.1602
 IR Inten    --      3.8000                 0.1769                 0.4004

                      4                      5                      6
                      A                      A                      A
 Frequencies --    357.2219               431.7436               466.1689
 Red. masses --      2.5918                 4.8644                 2.3022
 Frc consts  --      0.1949                 0.5342                 0.2948
 IR Inten    --      1.3276                 1.2304                 0.4117

                      7                      8                      9
                      A                      A                      A
 Frequencies --    503.8760               597.0088               645.3693
 Red. masses --      5.5753                 2.8543                 3.0125
 Frc consts  --      0.8340                 0.5994                 0.7393
 IR Inten    --     10.2511                 1.7068                 5.7277

                     10                     11                     12
                      A                      A                      A
 Frequencies --    770.7526               788.2752               806.3448
 Red. masses --      4.7298                 2.2692                 4.1223
 Frc consts  --      1.6555                 0.8308                 1.5792
 IR Inten    --     11.2601                 0.7273                 8.1159

                     13                     14                     15
                      A                      A                      A
 Frequencies --    831.8658               862.3631               881.7009
 Red. masses --      2.0799                 2.3993                 3.5144
 Frc consts  --      0.8480                 1.0513                 1.6097
 IR Inten    --     10.1842                37.6493                60.1068

                     16                     17                     18
                      A                      A                      A
 Frequencies --    909.9520               953.3194               970.9194
 Red. masses --      2.6334                 1.6538                 2.4216
 Frc consts  --      1.2847                 0.8856                 1.3450
 IR Inten    --     35.7516                 2.4642                13.3585

                     19                     20                     21
                      A                      A                      A
 Frequencies --    991.5337              1010.8107              1018.9434
 Red. masses --      1.8466                 2.1454                 1.8053
 Frc consts  --      1.0696                 1.2915                 1.1044
 IR Inten    --     23.7323                 8.7996                11.2247

                     22                     23                     24
                      A                      A                      A
 Frequencies --   1066.0354              1070.1204              1087.4637
 Red. masses --      1.9712                 2.2470                 2.1152
 Frc consts  --      1.3199                 1.5160                 1.4738
 IR Inten    --     29.6909                12.2588                24.4908

                     25                     26                     27
                      A                      A                      A
 Frequencies --   1105.8347              1140.7712              1162.1541
 Red. masses --      1.6982                 2.2577                 1.4493
 Frc consts  --      1.2235                 1.7310                 1.1533
 IR Inten    --     11.0103                42.3156                37.0303

                     28                     29                     30
                      A                      A                      A
 Frequencies --   1194.2999              1258.4395              1264.5221
 Red. masses --      1.8952                 1.4391                 1.5018
 Frc consts  --      1.5927                 1.3427                 1.4149
 IR Inten    --     53.4652                 9.8267                 0.7896

                     31                     32                     33
                      A                      A                      A
 Frequencies --   1294.5433              1315.1886              1321.9476
 Red. masses --      1.5778                 1.2563                 1.5432
 Frc consts  --      1.5579                 1.2803                 1.5889
 IR Inten    --     12.6972                 2.6920                 1.5704

                     34                     35                     36
                      A                      A                      A
 Frequencies --   1345.7548              1372.8544              1400.5042
 Red. masses --      1.4757                 1.2625                 1.4242
 Frc consts  --      1.5746                 1.4019                 1.6458
 IR Inten    --      0.5296                 4.7542                15.8123

                     37                     38                     39
                      A                      A                      A
 Frequencies --   1425.1633              1473.5410              1486.7648
 Red. masses --      1.5524                 1.3324                 1.1125
 Frc consts  --      1.8578                 1.7046                 1.4489
 IR Inten    --      4.4997                 1.6720                 2.3265

                     40                     41                     42
                      A                      A                      A
 Frequencies --   1501.5886              1513.9035              3021.3862
 Red. masses --      1.1166                 1.0871                 1.0656
 Frc consts  --      1.4834                 1.4680                 5.7316
 IR Inten    --      6.0510                 0.8804                38.9208

                     43                     44                     45
                      A                      A                      A
 Frequencies --   3035.5805              3072.1292              3074.4715
 Red. masses --      1.0608                 1.0620                 1.0942
 Frc consts  --      5.7594                 5.9054                 6.0937
 IR Inten    --     36.1895                11.5098                35.5214

                     46                     47                     48
                      A                      A                      A
 Frequencies --   3087.9934              3114.3592              3115.9849
 Red. masses --      1.1055                 1.0554                 1.0893
 Frc consts  --      6.2111                 6.0312                 6.2312
 IR Inten    --     44.5320                17.2660                47.9109

                     49                     50                     51
                      A                      A                      A
 Frequencies --   3128.4453              3142.2595              3205.0142
 Red. masses --      1.1077                 1.0891                 1.1158
 Frc consts  --      6.3874                 6.3359                 6.7528
 IR Inten    --     23.3819                19.0194                 9.9087

 - Thermochemistry -
 -------------------
 Temperature   298.150 Kelvin.  Pressure   1.00000 Atm.
 Atom     1 has atomic number  6 and mass  12.00000

 Molecular mass:   126.06808 amu.
 Principal axes and moments of inertia in atomic units:
                           1         2         3
     Eigenvalues --   684.37503 873.346801122.73291
           X            0.99935  -0.03467   0.01029
           Y            0.03529   0.99698  -0.06916
           Z           -0.00786   0.06948   0.99755
 This molecule is an asymmetric top.
 Rotational symmetry number  1.
 Warning -- assumption of classical behavior for rotation
           may cause significant error
 Rotational temperatures (Kelvin)      0.12656     0.09917     0.07715
 Rotational constants (GHZ):           2.63706     2.06647     1.60745
 Zero-point vibrational energy     426938.1 (Joules/Mol)
                                  102.04065 (Kcal/Mol)
 Warning -- explicit consideration of   8 degrees of freedom as
           vibrations may cause significant error
 Vibrational temperatures:    264.36   357.84   501.89   513.96   621.18
          (Kelvin)            670.71   724.96   858.96   928.54  1108.94
                             1134.15  1160.15  1196.87  1240.75  1268.57
                             1309.22  1371.61  1396.93  1426.59  1454.33
                             1466.03  1533.79  1539.66  1564.62  1591.05
                             1641.31  1672.08  1718.33  1810.61  1819.36
                             1862.56  1892.26  1901.99  1936.24  1975.23
                             2015.01  2050.49  2120.09  2139.12  2160.45
                             2178.17  4347.10  4367.52  4420.10  4423.47
                             4442.93  4480.86  4483.20  4501.13  4521.00
                             4611.29

 Zero-point correction=                           0.162612 (Hartree/Particle)
 Thermal correction to Energy=                    0.169241
 Thermal correction to Enthalpy=                  0.170185
 Thermal correction to Gibbs Free Energy=         0.132044
 Sum of electronic and zero-point Energies=           -422.995692
 Sum of electronic and thermal Energies=              -422.989063
 Sum of electronic and thermal Enthalpies=            -422.988119
 Sum of electronic and thermal Free Energies=         -423.026261

                     E (Thermal)             CV                S
                      KCal/Mol        Cal/Mol-Kelvin    Cal/Mol-Kelvin
 Total                  106.200             28.184             80.276
 Electronic               0.000              0.000              0.000
 Translational            0.889              2.981             40.409
 Rotational               0.889              2.981             27.997
 Vibrational            104.423             22.223             11.870
 Vibration     1          0.631              1.862              2.290
 Vibration     2          0.662              1.765              1.740
 Vibration     3          0.726              1.578              1.171
 Vibration     4          0.732              1.560              1.134
 Vibration     5          0.793              1.401              0.853
 Vibration     6          0.824              1.325              0.748
 Vibration     7          0.859              1.241              0.649
 Vibration     8          0.955              1.038              0.455

 Optimization completed.
    -- Stationary point found.
 Normal termination of Gaussian 09 at Mon Jan 27 12:10:05 2020.
