 Gaussian 09, Revision D.01,
 Gaussian 09:  ES64L-G09RevD.01 24-Apr-2013

 -----------------------------
 # b3lyp 6-31G(2df,p) opt Freq
 -----------------------------

 -----
 titel
 -----
 Symbolic Z-matrix:
 Charge =  0 Multiplicity = 1

 SCF Done:  E(RB3LYP) =  -423.156132206     A.U. after   13 cycles
 Optimization completed.
    -- Stationary point found.
 Normal termination of Gaussian 09 at Mon Jan 27 12:19:26 2020.

 ----------------------------------------------------------------------
 #N Geom=AllCheck Guess=TCheck SCRF=Check GenChk RB3LYP/6-31G(2df,p) Fr
 eq
 ----------------------------------------------------------------------

 Structure from the checkpoint file:  "/scratch/puck/g09_bbb2ad59-cbca-48ca-bbf6-79fa9285879b/Gau-45342.chk"
 -----
 titel
 -----
 Charge =  0 Multiplicity = 1

                         Standard orientation:
 ---------------------------------------------------------------------
 Center     Atomic      Atomic             Coordinates (Angstroms)
 Number     Number       Type             X           Y           Z
 ---------------------------------------------------------------------
      1          6           0       -2.264901    0.657587   -0.000260
      2          8           0       -2.151729   -0.781819   -0.106047
      3          6           0       -0.833871   -0.768083    0.476098
      4          6           0       -0.825027    0.789746    0.518651
      5          6           0        0.256852    0.810211   -0.596650
      6          6           0        1.677173    1.168912   -0.142130
      7          6           0        2.157957   -0.117180    0.548016
      8          8           0        1.548805   -1.184232   -0.173682
      9          6           0        0.272231   -0.762863   -0.609639
     10          1           0       -2.488345    1.131847   -0.964681
     11          1           0       -3.038705    0.939734    0.724991
     12          1           0       -0.722854   -1.449860    1.324105
     13          1           0       -0.652099    1.394369    1.409356
     14          1           0       -0.036069    1.323816   -1.514572
     15          1           0        2.302468    1.379914   -1.015013
     16          1           0        1.711202    2.039985    0.518519
     17          1           0        3.240626   -0.262103    0.507135
     18          1           0        1.851506   -0.135527    1.605645
     19          1           0        0.013166   -1.303757   -1.522171
 ---------------------------------------------------------------------

 SCF Done:  E(RB3LYP) =  -423.156132206     A.U. after    1 cycles

 The electronic state is 1-A.
 Alpha  occ. eigenvalues --  -19.14025 -19.13389 -10.23239 -10.22949 -10.22825
 Alpha  occ. eigenvalues --  -10.22549 -10.19348 -10.19318 -10.18971  -1.04607
 Alpha  occ. eigenvalues --   -1.03225  -0.82350  -0.76042  -0.71317  -0.66771
 Alpha  occ. eigenvalues --   -0.59854  -0.59090  -0.52594  -0.51459  -0.50252
 Alpha  occ. eigenvalues --   -0.48262  -0.45571  -0.44091  -0.42661  -0.40232
 Alpha  occ. eigenvalues --   -0.39485  -0.36429  -0.34469  -0.33751  -0.32354
 Alpha  occ. eigenvalues --   -0.30217  -0.28043  -0.27046  -0.23140
 Alpha virt. eigenvalues --    0.06411   0.08910   0.09546   0.10457   0.12772
 Alpha virt. eigenvalues --    0.13244   0.14831   0.15451   0.15964   0.16434
 Alpha virt. eigenvalues --    0.17825   0.18565   0.19522   0.20472   0.21262

 Mulliken charges:
               1
     1  C   -0.088198
     2  O   -0.290995
     3  C    0.088706
     4  C   -0.094920
     5  C   -0.048992
     6  C   -0.246354
     7  C   -0.086012
     8  O   -0.253831
     9  C    0.080441
    10  H    0.100129
    11  H    0.101843
    12  H    0.080932
    13  H    0.073656
    14  H    0.074794
    15  H    0.110556
    16  H    0.102285
    17  H    0.111284
    18  H    0.094872
    19  H    0.089802
 Sum of Mulliken charges =   0.00000

 Dipole moment (field-independent basis, Debye):
    X=              0.7161    Y=              2.5482    Z=              0.6565  Tot=              2.7271
 Quadrupole moment (field-independent basis, Debye-Ang):
   XX=            -55.0199   YY=            -55.1236   ZZ=            -51.1928
   XY=             -0.8325   XZ=              0.1236   YZ=             -0.6467

  Exact polarizability:  85.699  -1.354  68.938   1.201  -0.855  66.157
 Approx polarizability: 111.194  -1.746 106.072   2.507   0.621 101.031

                      1                      2                      3
                      A                      A                      A
 Frequencies --     99.6159               179.7299               256.4600
 Red. masses --      3.4128                 2.4858                 2.8797
 Frc consts  --      0.0200                 0.0473                 0.1116
 IR Inten    --      0.1318                 0.3334                 5.8170

                      4                      5                      6
                      A                      A                      A
 Frequencies --    292.7354               326.0749               416.9087
 Red. masses --      2.6865                 2.9170                 5.0243
 Frc consts  --      0.1356                 0.1827                 0.5145
 IR Inten    --      5.3272                 0.1790                 0.5377

                      7                      8                      9
                      A                      A                      A
 Frequencies --    592.1775               652.4887               770.2906
 Red. masses --      3.2527                 3.0135                 2.6269
 Frc consts  --      0.6720                 0.7559                 0.9183
 IR Inten    --      3.8970                 4.7699                 4.5032

                     10                     11                     12
                      A                      A                      A
 Frequencies --    808.2991               849.4056               862.8036
 Red. masses --      1.7898                 3.2622                 2.1116
 Frc consts  --      0.6890                 1.3867                 0.9262
 IR Inten    --      4.8942                 0.9937                 7.1871

                     13                     14                     15
                      A                      A                      A
 Frequencies --    884.4986               899.3464               944.7783
 Red. masses --      2.1853                 3.5157                 2.2850
 Frc consts  --      1.0073                 1.6754                 1.2017
 IR Inten    --      2.3582                 5.5634                 2.1332

                     16                     17                     18
                      A                      A                      A
 Frequencies --    962.3673               970.8919               996.6978
 Red. masses --      2.8343                 2.9393                 2.0062
 Frc consts  --      1.5466                 1.6324                 1.1742
 IR Inten    --      5.4254                37.7685                 2.3904

                     19                     20                     21
                      A                      A                      A
 Frequencies --   1014.0462              1023.6139              1036.7751
 Red. masses --      1.8021                 3.5407                 2.8538
 Frc consts  --      1.0918                 2.1858                 1.8073
 IR Inten    --     18.8968                62.3578                33.5950

                     22                     23                     24
                      A                      A                      A
 Frequencies --   1071.9764              1107.6570              1135.2810
 Red. masses --      1.8936                 3.4092                 2.6462
 Frc consts  --      1.2820                 2.4644                 2.0095
 IR Inten    --      0.5291                64.9253                37.3541

                     25                     26                     27
                      A                      A                      A
 Frequencies --   1157.1417              1167.8771              1193.8732
 Red. masses --      1.4543                 1.4332                 1.6663
 Frc consts  --      1.1473                 1.1517                 1.3993
 IR Inten    --      1.7183                 6.7902                 0.1957

                     28                     29                     30
                      A                      A                      A
 Frequencies --   1215.2738              1230.2772              1238.7951
 Red. masses --      1.4853                 1.4045                 1.4016
 Frc consts  --      1.2925                 1.2525                 1.2672
 IR Inten    --      1.7310                 6.7535                 0.7047

                     31                     32                     33
                      A                      A                      A
 Frequencies --   1260.5278              1274.5976              1278.3463
 Red. masses --      1.3946                 1.3822                 1.3711
 Frc consts  --      1.3056                 1.3231                 1.3202
 IR Inten    --      4.6971                 3.1961                 2.1324

                     34                     35                     36
                      A                      A                      A
 Frequencies --   1310.5571              1328.5814              1343.7388
 Red. masses --      1.4714                 1.4470                 1.5075
 Frc consts  --      1.4890                 1.5049                 1.6037
 IR Inten    --      2.4301                 0.6361                 4.6471

                     37                     38                     39
                      A                      A                      A
 Frequencies --   1366.7107              1391.1722              1483.4207
 Red. masses --      1.4268                 1.3821                 1.0954
 Frc consts  --      1.5702                 1.5760                 1.4203
 IR Inten    --      0.9169                 4.8680                 2.4209

                     40                     41                     42
                      A                      A                      A
 Frequencies --   1521.1576              1522.8824              2981.5004
 Red. masses --      1.0990                 1.0917                 1.0716
 Frc consts  --      1.4982                 1.4917                 5.6123
 IR Inten    --      0.8921                 0.8467                51.1234

                     43                     44                     45
                      A                      A                      A
 Frequencies --   3006.5525              3049.5936              3052.0568
 Red. masses --      1.0547                 1.1104                 1.0612
 Frc consts  --      5.6173                 6.0841                 5.8243
 IR Inten    --     86.2236                39.1723                15.2843

                     46                     47                     48
                      A                      A                      A
 Frequencies --   3070.8706              3084.1288              3090.1768
 Red. masses --      1.0882                 1.0871                 1.0915
 Frc consts  --      6.0462                 6.0926                 6.1409
 IR Inten    --     49.0961                22.3536                42.1002

                     49                     50                     51
                      A                      A                      A
 Frequencies --   3097.6862              3103.5509              3106.5443
 Red. masses --      1.0915                 1.1014                 1.0927
 Frc consts  --      6.1710                 6.2502                 6.2130
 IR Inten    --     21.3152                23.4306                44.4422

 - Thermochemistry -
 -------------------
 Temperature   298.150 Kelvin.  Pressure   1.00000 Atm.
 Atom     1 has atomic number  6 and mass  12.00000

 Molecular mass:   126.06808 amu.
 Principal axes and moments of inertia in atomic units:
                           1         2         3
     Eigenvalues --   472.611431263.525031498.97795
           X            0.99999   0.00036   0.00531
           Y           -0.00027   0.99988  -0.01557
           Z           -0.00532   0.01557   0.99986
 This molecule is an asymmetric top.
 Rotational symmetry number  1.
 Warning -- assumption of classical behavior for rotation
           may cause significant error
 Rotational temperatures (Kelvin)      0.18327     0.06855     0.05778
 Rotational constants (GHZ):           3.81866     1.42834     1.20398
 Zero-point vibrational energy     425167.8 (Joules/Mol)
                                  101.61755 (Kcal/Mol)
 Warning -- explicit consideration of   7 degrees of freedom as
           vibrations may cause significant error
 Vibrational temperatures:    143.32   258.59   368.99   421.18   469.15
          (Kelvin)            599.84   852.01   938.78  1108.27  1162.96
                             1222.10  1241.38  1272.59  1293.96  1359.32
                             1384.63  1396.90  1434.02  1458.98  1472.75
                             1491.69  1542.33  1593.67  1633.41  1664.87
                             1680.31  1717.72  1748.51  1770.09  1782.35
                             1813.62  1833.86  1839.25  1885.60  1911.53
                             1933.34  1966.39  2001.58  2134.31  2188.60
                             2191.09  4289.71  4325.75  4387.68  4391.22
                             4418.29  4437.37  4446.07  4456.87  4465.31
                             4469.62

 Zero-point correction=                           0.161938 (Hartree/Particle)
 Thermal correction to Energy=                    0.168928
 Thermal correction to Enthalpy=                  0.169872
 Thermal correction to Gibbs Free Energy=         0.130413
 Sum of electronic and zero-point Energies=           -422.994194
 Sum of electronic and thermal Energies=              -422.987205
 Sum of electronic and thermal Enthalpies=            -422.986260
 Sum of electronic and thermal Free Energies=         -423.025720

                     E (Thermal)             CV                S
                      KCal/Mol        Cal/Mol-Kelvin    Cal/Mol-Kelvin
 Total                  106.004             27.840             83.049
 Electronic               0.000              0.000              0.000
 Translational            0.889              2.981             40.409
 Rotational               0.889              2.981             28.284
 Vibrational            104.226             21.879             14.357
 Vibration     1          0.604              1.949              3.462
 Vibration     2          0.629              1.867              2.331
 Vibration     3          0.666              1.752              1.686
 Vibration     4          0.688              1.687              1.458
 Vibration     5          0.710              1.623              1.279
 Vibration     6          0.780              1.434              0.903
 Vibration     7          0.950              1.048              0.463

 Optimization completed.
    -- Stationary point found.
 Normal termination of Gaussian 09 at Mon Jan 27 13:05:22 2020.
