 Gaussian 09, Revision D.01,
 Gaussian 09:  ES64L-G09RevD.01 24-Apr-2013

 -----------------------------
 # b3lyp 6-31G(2df,p) opt Freq
 -----------------------------

 -----
 titel
 -----
 Symbolic Z-matrix:
 Charge =  0 Multiplicity = 1

 SCF Done:  E(RB3LYP) =  -423.102146045     A.U. after   14 cycles
 Optimization completed.
    -- Stationary point found.
 Normal termination of Gaussian 09 at Mon Jan 27 22:06:13 2020.

 ----------------------------------------------------------------------
 #N Geom=AllCheck Guess=TCheck SCRF=Check GenChk RB3LYP/6-31G(2df,p) Fr
 eq
 ----------------------------------------------------------------------

 Structure from the checkpoint file:  "/scratch/puck/g09_8d21a616-aadc-4887-83e6-cc214eede310/Gau-46583.chk"
 -----
 titel
 -----
 Charge =  0 Multiplicity = 1

                         Standard orientation:
 ---------------------------------------------------------------------
 Center     Atomic      Atomic             Coordinates (Angstroms)
 Number     Number       Type             X           Y           Z
 ---------------------------------------------------------------------
      1          6           0        0.905786   -1.550689    1.224287
      2          6           0        0.712037   -0.529216    0.152427
      3          8           0        1.884413    0.148150   -0.413713
      4          6           0        0.751387    0.719330   -1.127650
      5          6           0       -0.042546   -0.613832   -1.219081
      6          6           0       -1.302957    0.047831   -0.625403
      7          8           0       -2.131305   -0.724389    0.220626
      8          6           0       -0.179872    0.776187    0.126342
      9          6           0       -0.253842    1.845990    1.174819
     10          1           0        1.534685   -2.371350    0.864685
     11          1           0        1.391071   -1.103920    2.098005
     12          1           0       -0.066938   -1.948694    1.522854
     13          1           0        0.939202    1.473750   -1.890653
     14          1           0        0.061978   -1.388498   -1.979165
     15          1           0       -1.896758    0.661933   -1.317219
     16          1           0       -2.716743   -1.254640   -0.328845
     17          1           0       -0.824628    1.502449    2.043600
     18          1           0        0.753886    2.116390    1.506947
     19          1           0       -0.740587    2.748883    0.790039
 ---------------------------------------------------------------------

 SCF Done:  E(RB3LYP) =  -423.102146045     A.U. after    1 cycles

 The electronic state is 1-A.
 Alpha  occ. eigenvalues --  -19.14203 -19.12044 -10.24472 -10.24124 -10.23583
 Alpha  occ. eigenvalues --  -10.19781 -10.19178 -10.17693 -10.17640  -1.05536
 Alpha  occ. eigenvalues --   -1.02191  -0.85719  -0.74015  -0.73059  -0.63717
 Alpha  occ. eigenvalues --   -0.61208  -0.60879  -0.51793  -0.48103  -0.47811
 Alpha  occ. eigenvalues --   -0.45868  -0.45050  -0.42724  -0.41783  -0.39981
 Alpha  occ. eigenvalues --   -0.39005  -0.37020  -0.36174  -0.33167  -0.31098
 Alpha  occ. eigenvalues --   -0.29383  -0.28458  -0.26505  -0.22449
 Alpha virt. eigenvalues --    0.07268   0.09680   0.11007   0.11695   0.12795
 Alpha virt. eigenvalues --    0.13512   0.14762   0.15463   0.15931   0.16006
 Alpha virt. eigenvalues --    0.16769   0.18000   0.19127   0.19326   0.21858

 Mulliken charges:
               1
     1  C   -0.530770
     2  C    0.438106
     3  O   -0.364136
     4  C    0.026330
     5  C   -0.193883
     6  C    0.042495
     7  O   -0.439686
     8  C    0.252936
     9  C   -0.535619
    10  H    0.129113
    11  H    0.129750
    12  H    0.144442
    13  H    0.089426
    14  H    0.076139
    15  H    0.064816
    16  H    0.285447
    17  H    0.132541
    18  H    0.133190
    19  H    0.119363
 Sum of Mulliken charges =   0.00000

 Dipole moment (field-independent basis, Debye):
    X=             -2.0106    Y=             -0.3553    Z=             -0.9517  Tot=              2.2527
 Quadrupole moment (field-independent basis, Debye-Ang):
   XX=            -56.3240   YY=            -49.5186   ZZ=            -50.8455
   XY=              1.2296   XZ=              4.1502   YZ=              0.1945

  Exact polarizability:  74.262  -0.434  77.063   1.521  -0.695  74.667
 Approx polarizability: 112.020   1.447 109.537   0.405  -2.105 109.680

                      1                      2                      3
                      A                      A                      A
 Frequencies --    169.4094               181.3174               195.3899
 Red. masses --      3.3773                 2.5224                 2.3694
 Frc consts  --      0.0571                 0.0489                 0.0533
 IR Inten    --      1.0706                 0.0185                 2.6985

                      4                      5                      6
                      A                      A                      A
 Frequencies --    203.5997               218.3282               273.0711
 Red. masses --      1.0626                 1.1328                 1.1630
 Frc consts  --      0.0260                 0.0318                 0.0511
 IR Inten    --      1.9448                 0.2683                82.2983

                      7                      8                      9
                      A                      A                      A
 Frequencies --    296.0237               337.2248               408.4962
 Red. masses --      3.3085                 3.4175                 2.7112
 Frc consts  --      0.1708                 0.2290                 0.2666
 IR Inten    --     26.9353                 0.8702                 1.0738

                     10                     11                     12
                      A                      A                      A
 Frequencies --    540.8501               569.2654               655.5978
 Red. masses --      5.6010                 3.2282                 3.7831
 Frc consts  --      0.9653                 0.6164                 0.9580
 IR Inten    --      6.9984                 2.2422                 1.0216

                     13                     14                     15
                      A                      A                      A
 Frequencies --    686.1004               742.1167               788.2962
 Red. masses --      3.3895                 3.7102                 3.9731
 Frc consts  --      0.9401                 1.2039                 1.4547
 IR Inten    --      2.6468                 0.5593                15.6879

                     16                     17                     18
                      A                      A                      A
 Frequencies --    792.1134               840.0888               882.2287
 Red. masses --      2.9077                 2.1818                 2.3086
 Frc consts  --      1.0749                 0.9072                 1.0587
 IR Inten    --      6.4783                 1.0461                32.1835

                     19                     20                     21
                      A                      A                      A
 Frequencies --    916.0587               941.9110               960.2321
 Red. masses --      2.2288                 1.8332                 2.3491
 Frc consts  --      1.1019                 0.9583                 1.2761
 IR Inten    --      6.8053                 2.7050                17.7751

                     22                     23                     24
                      A                      A                      A
 Frequencies --   1037.5975              1088.5750              1099.5742
 Red. masses --      1.7146                 2.1880                 1.6698
 Frc consts  --      1.0876                 1.5276                 1.1895
 IR Inten    --     11.8497                57.1988                 9.5706

                     25                     26                     27
                      A                      A                      A
 Frequencies --   1116.4586              1130.5598              1144.7792
 Red. masses --      1.7627                 1.9570                 2.0960
 Frc consts  --      1.2945                 1.4737                 1.6184
 IR Inten    --     13.1726                 8.2417                16.0030

                     28                     29                     30
                      A                      A                      A
 Frequencies --   1160.5056              1199.1108              1239.3762
 Red. masses --      1.9780                 1.7909                 2.0493
 Frc consts  --      1.5695                 1.5172                 1.8546
 IR Inten    --     18.5591                27.5441                 3.1266

                     31                     32                     33
                      A                      A                      A
 Frequencies --   1256.9405              1288.8603              1339.7067
 Red. masses --      1.8263                 1.8368                 1.7854
 Frc consts  --      1.7000                 1.7977                 1.8880
 IR Inten    --     70.5554                 4.2820                20.0300

                     34                     35                     36
                      A                      A                      A
 Frequencies --   1366.2460              1400.7865              1415.3559
 Red. masses --      1.8621                 1.3672                 2.0337
 Frc consts  --      2.0479                 1.5806                 2.4003
 IR Inten    --      5.1599                 5.7289                19.2241

                     37                     38                     39
                      A                      A                      A
 Frequencies --   1447.1284              1482.0354              1486.7633
 Red. masses --      1.9315                 1.0548                 1.0496
 Frc consts  --      2.3831                 1.3650                 1.3670
 IR Inten    --      2.9428                 4.1153                 1.7244

                     40                     41                     42
                      A                      A                      A
 Frequencies --   1490.1417              1493.8738              3000.9894
 Red. masses --      1.0474                 1.0592                 1.0842
 Frc consts  --      1.3703                 1.3927                 5.7531
 IR Inten    --      8.0227                 4.6174                73.1017

                     43                     44                     45
                      A                      A                      A
 Frequencies --   3030.5345              3039.7659              3096.2262
 Red. masses --      1.0348                 1.0353                 1.1005
 Frc consts  --      5.5996                 5.6365                 6.2158
 IR Inten    --     26.9790                18.1735                17.3340

                     46                     47                     48
                      A                      A                      A
 Frequencies --   3105.9186              3106.1900              3113.7209
 Red. masses --      1.1012                 1.1013                 1.0890
 Frc consts  --      6.2588                 6.2606                 6.2207
 IR Inten    --     12.6293                13.2739                40.4566

                     49                     50                     51
                      A                      A                      A
 Frequencies --   3128.8364              3134.5453              3820.0966
 Red. masses --      1.0956                 1.1002                 1.0663
 Frc consts  --      6.3192                 6.3688                 9.1677
 IR Inten    --     47.1332                 6.3637                27.4017

 - Thermochemistry -
 -------------------
 Temperature   298.150 Kelvin.  Pressure   1.00000 Atm.
 Atom     1 has atomic number  6 and mass  12.00000

 Molecular mass:   126.06808 amu.
 Principal axes and moments of inertia in atomic units:
                           1         2         3
     Eigenvalues --   825.045651043.672871153.94540
           X            0.99740  -0.05409   0.04763
           Y            0.05346   0.99846   0.01449
           Z           -0.04834  -0.01191   0.99876
 This molecule is an asymmetric top.
 Rotational symmetry number  1.
 Warning -- assumption of classical behavior for rotation
           may cause significant error
 Rotational temperatures (Kelvin)      0.10498     0.08299     0.07506
 Rotational constants (GHZ):           2.18744     1.72922     1.56397
 Zero-point vibrational energy     411867.8 (Joules/Mol)
                                   98.43877 (Kcal/Mol)
 Warning -- explicit consideration of  11 degrees of freedom as
           vibrations may cause significant error
 Vibrational temperatures:    243.74   260.87   281.12   292.93   314.13
          (Kelvin)            392.89   425.91   485.19   587.73   778.16
                              819.04   943.26   987.14  1067.74  1134.18
                             1139.67  1208.70  1269.33  1318.00  1355.20
                             1381.56  1492.87  1566.21  1582.04  1606.33
                             1626.62  1647.08  1669.71  1725.25  1783.18
                             1808.45  1854.38  1927.54  1965.72  2015.42
                             2036.38  2082.09  2132.32  2139.12  2143.98
                             2149.35  4317.75  4360.26  4373.54  4454.77
                             4468.72  4469.11  4479.94  4501.69  4509.91
                             5496.26

 Zero-point correction=                           0.156872 (Hartree/Particle)
 Thermal correction to Energy=                    0.165550
 Thermal correction to Enthalpy=                  0.166495
 Thermal correction to Gibbs Free Energy=         0.124298
 Sum of electronic and zero-point Energies=           -422.945274
 Sum of electronic and thermal Energies=              -422.936596
 Sum of electronic and thermal Enthalpies=            -422.935651
 Sum of electronic and thermal Free Energies=         -422.977848

                     E (Thermal)             CV                S
                      KCal/Mol        Cal/Mol-Kelvin    Cal/Mol-Kelvin
 Total                  103.884             33.705             88.810
 Electronic               0.000              0.000              0.000
 Translational            0.889              2.981             40.409
 Rotational               0.889              2.981             28.387
 Vibrational            102.107             27.743             20.014
 Vibration     1          0.625              1.880              2.442
 Vibration     2          0.630              1.865              2.315
 Vibration     3          0.636              1.846              2.176
 Vibration     4          0.639              1.835              2.100
 Vibration     5          0.646              1.813              1.973
 Vibration     6          0.676              1.723              1.577
 Vibration     7          0.690              1.681              1.439
 Vibration     8          0.718              1.601              1.225
 Vibration     9          0.773              1.452              0.932
 Vibration    10          0.896              1.160              0.563
 Vibration    11          0.925              1.098              0.506

 Normal termination of Gaussian 09 at Mon Jan 27 22:58:04 2020.
