 Gaussian 09, Revision D.01,
 Gaussian 09:  ES64L-G09RevD.01 24-Apr-2013

 -----------------------------
 # b3lyp 6-31G(2df,p) opt Freq
 -----------------------------

 -----
 titel
 -----
 Symbolic Z-matrix:
 Charge =  0 Multiplicity = 1

 SCF Done:  E(RB3LYP) =  -423.160146209     A.U. after   13 cycles
 Optimization completed.
    -- Stationary point found.
 Normal termination of Gaussian 09 at Mon Jan 27 23:06:04 2020.

 ----------------------------------------------------------------------
 #N Geom=AllCheck Guess=TCheck SCRF=Check GenChk RB3LYP/6-31G(2df,p) Fr
 eq
 ----------------------------------------------------------------------

 Structure from the checkpoint file:  "/scratch/puck/g09_5bced10d-1926-446e-a484-7afe97799d3c/Gau-49615.chk"
 -----
 titel
 -----
 Charge =  0 Multiplicity = 1

                         Standard orientation:
 ---------------------------------------------------------------------
 Center     Atomic      Atomic             Coordinates (Angstroms)
 Number     Number       Type             X           Y           Z
 ---------------------------------------------------------------------
      1          8           0       -0.791759    1.983815   -0.120588
      2          6           0       -0.020520    0.930831    0.401795
      3          6           0        1.343999    0.743084   -0.277993
      4          6           0        2.396415   -0.005622    0.495494
      5          6           0        1.571360   -0.736342   -0.530884
      6          6           0        0.347682   -1.506329   -0.024456
      7          6           0       -0.712255   -0.436046    0.199063
      8          6           0       -2.100736   -0.670402    0.590289
      9          8           0       -1.769267   -0.381626   -0.780499
     10          1           0       -1.361196    1.578911   -0.792357
     11          1           0        0.111730    1.129211    1.474167
     12          1           0        1.639390    1.507918   -0.985884
     13          1           0        3.436121    0.197031    0.261703
     14          1           0        2.212288   -0.213476    1.547545
     15          1           0        2.057325   -1.083338   -1.435063
     16          1           0       -0.018430   -2.229930   -0.756755
     17          1           0        0.561295   -2.052305    0.902194
     18          1           0       -2.455754   -1.683868    0.769907
     19          1           0       -2.650229    0.117292    1.103396
 ---------------------------------------------------------------------

 SCF Done:  E(RB3LYP) =  -423.160146209     A.U. after    1 cycles

 The electronic state is 1-A.
 Alpha  occ. eigenvalues --  -19.16202 -19.12726 -10.24475 -10.23880 -10.23310
 Alpha  occ. eigenvalues --  -10.19321 -10.19245 -10.18687 -10.18549  -1.08021
 Alpha  occ. eigenvalues --   -1.01078  -0.87719  -0.75004  -0.70226  -0.67002
 Alpha  occ. eigenvalues --   -0.59756  -0.57264  -0.56368  -0.52874  -0.49295
 Alpha  occ. eigenvalues --   -0.47725  -0.45258  -0.44248  -0.42317  -0.40795
 Alpha  occ. eigenvalues --   -0.39378  -0.36852  -0.35702  -0.32018  -0.31037
 Alpha  occ. eigenvalues --   -0.29698  -0.28244  -0.27638  -0.25638
 Alpha virt. eigenvalues --    0.06940   0.08802   0.10480   0.10657   0.11578
 Alpha virt. eigenvalues --    0.12086   0.14708   0.15171   0.15830   0.16929
 Alpha virt. eigenvalues --    0.17680   0.18636   0.19642   0.21617   0.23122

 Mulliken charges:
               1
     1  O   -0.443879
     2  C    0.056576
     3  C   -0.067329
     4  C   -0.284845
     5  C   -0.038546
     6  C   -0.327886
     7  C    0.375276
     8  C   -0.245526
     9  O   -0.276356
    10  H    0.290840
    11  H    0.085018
    12  H    0.096205
    13  H    0.112344
    14  H    0.103589
    15  H    0.089619
    16  H    0.122342
    17  H    0.107784
    18  H    0.119309
    19  H    0.125464
 Sum of Mulliken charges =   0.00000

 Dipole moment (field-independent basis, Debye):
    X=              0.5624    Y=             -1.8836    Z=              0.8750  Tot=              2.1517
 Quadrupole moment (field-independent basis, Debye-Ang):
   XX=            -50.9634   YY=            -56.6761   ZZ=            -51.9673
   XY=              1.5420   XZ=             -2.9387   YZ=             -1.5347

  Exact polarizability:  86.798   1.555  72.206  -1.748  -0.595  63.382
 Approx polarizability: 113.589   0.470 105.898   1.884  -1.071 103.377

                      1                      2                      3
                      A                      A                      A
 Frequencies --     69.0459               216.8504               265.5798
 Red. masses --      3.4758                 2.9714                 3.2628
 Frc consts  --      0.0098                 0.0823                 0.1356
 IR Inten    --      0.8156                 2.5686                 1.0311

                      4                      5                      6
                      A                      A                      A
 Frequencies --    314.0748               325.9448               379.1237
 Red. masses --      3.4687                 3.4283                 2.6298
 Frc consts  --      0.2016                 0.2146                 0.2227
 IR Inten    --      7.3366                14.4027                 7.0974

                      7                      8                      9
                      A                      A                      A
 Frequencies --    430.7507               486.0358               533.0119
 Red. masses --      2.5407                 1.1917                 3.7960
 Frc consts  --      0.2778                 0.1659                 0.6354
 IR Inten    --      5.8845                70.3217                 2.8894

                     10                     11                     12
                      A                      A                      A
 Frequencies --    558.3538               686.3617               750.8027
 Red. masses --      3.7503                 3.4543                 5.2345
 Frc consts  --      0.6889                 0.9588                 1.7385
 IR Inten    --      4.4669                 4.9901                30.8277

                     13                     14                     15
                      A                      A                      A
 Frequencies --    804.4527               818.6087               828.0825
 Red. masses --      2.0189                 1.6570                 2.4651
 Frc consts  --      0.7698                 0.6542                 0.9959
 IR Inten    --      5.9135                 6.6135                 3.0221

                     16                     17                     18
                      A                      A                      A
 Frequencies --    885.9673               898.7695               910.6449
 Red. masses --      1.8452                 1.9104                 1.6187
 Frc consts  --      0.8534                 0.9092                 0.7909
 IR Inten    --      1.3751                 6.4203                 1.2230

                     19                     20                     21
                      A                      A                      A
 Frequencies --    954.0795              1005.7653              1029.2002
 Red. masses --      4.5235                 2.7878                 2.4441
 Frc consts  --      2.4260                 1.6615                 1.5254
 IR Inten    --     39.0810                 2.0806                 1.7417

                     22                     23                     24
                      A                      A                      A
 Frequencies --   1067.5076              1077.7091              1098.6545
 Red. masses --      1.4298                 1.4800                 1.6053
 Frc consts  --      0.9600                 1.0128                 1.1416
 IR Inten    --      2.3086                 4.0722                25.9155

                     25                     26                     27
                      A                      A                      A
 Frequencies --   1108.7705              1123.6660              1131.7000
 Red. masses --      1.3503                 1.3095                 2.5207
 Frc consts  --      0.9781                 0.9742                 1.9021
 IR Inten    --      6.9295                 1.1665                78.4970

                     28                     29                     30
                      A                      A                      A
 Frequencies --   1168.8897              1191.5364              1204.7916
 Red. masses --      1.3740                 1.4922                 1.6329
 Frc consts  --      1.1060                 1.2483                 1.3965
 IR Inten    --      2.1703                 1.2097                 4.2901

                     31                     32                     33
                      A                      A                      A
 Frequencies --   1242.8908              1262.1242              1281.9024
 Red. masses --      2.0486                 1.3821                 1.5145
 Frc consts  --      1.8646                 1.2972                 1.4664
 IR Inten    --      5.8540                15.3444                 3.7698

                     34                     35                     36
                      A                      A                      A
 Frequencies --   1315.4055              1351.5332              1371.3328
 Red. masses --      1.3690                 1.5705                 2.2116
 Frc consts  --      1.3956                 1.6902                 2.4504
 IR Inten    --      3.7747                 9.2431                 0.5300

                     37                     38                     39
                      A                      A                      A
 Frequencies --   1417.2908              1447.7916              1473.7744
 Red. masses --      2.2757                 1.2720                 1.1250
 Frc consts  --      2.6933                 1.5709                 1.4397
 IR Inten    --      2.9441                81.8966                 7.5384

                     40                     41                     42
                      A                      A                      A
 Frequencies --   1489.0801              1522.6408              3009.1680
 Red. masses --      1.2088                 1.4507                 1.0842
 Frc consts  --      1.5792                 1.9817                 5.7843
 IR Inten    --      3.8894                 2.2342                34.3153

                     43                     44                     45
                      A                      A                      A
 Frequencies --   3036.2649              3087.3265              3102.6901
 Red. masses --      1.0670                 1.0506                 1.0961
 Frc consts  --      5.7958                 5.9002                 6.2169
 IR Inten    --     25.3111                23.9586                 5.4976

                     46                     47                     48
                      A                      A                      A
 Frequencies --   3107.1584              3175.7605              3176.1251
 Red. masses --      1.0574                 1.0906                 1.1194
 Frc consts  --      6.0149                 6.4803                 6.6534
 IR Inten    --     21.4356                13.0200                12.7858

                     49                     50                     51
                      A                      A                      A
 Frequencies --   3186.7154              3202.0232              3707.7062
 Red. masses --      1.0962                 1.1085                 1.0647
 Frc consts  --      6.5591                 6.6964                 8.6233
 IR Inten    --      3.1189                19.0973                63.2836

 - Thermochemistry -
 -------------------
 Temperature   298.150 Kelvin.  Pressure   1.00000 Atm.
 Atom     1 has atomic number  8 and mass  15.99491

 Molecular mass:   126.06808 amu.
 Principal axes and moments of inertia in atomic units:
                           1         2         3
     Eigenvalues --   637.328581125.802491510.82151
           X            0.99989   0.00742  -0.01316
           Y           -0.00756   0.99991  -0.01092
           Z            0.01307   0.01102   0.99985
 This molecule is an asymmetric top.
 Rotational symmetry number  1.
 Warning -- assumption of classical behavior for rotation
           may cause significant error
 Rotational temperatures (Kelvin)      0.13590     0.07694     0.05733
 Rotational constants (GHZ):           2.83173     1.60307     1.19454
 Zero-point vibrational energy     420436.2 (Joules/Mol)
                                  100.48665 (Kcal/Mol)
 Warning -- explicit consideration of  10 degrees of freedom as
           vibrations may cause significant error
 Vibrational temperatures:     99.34   312.00   382.11   451.88   468.96
          (Kelvin)            545.47   619.75   699.30   766.88   803.35
                              987.52  1080.24  1157.43  1177.79  1191.42
                             1274.71  1293.13  1310.21  1372.71  1447.07
                             1480.79  1535.90  1550.58  1580.72  1595.27
                             1616.70  1628.26  1681.77  1714.35  1733.42
                             1788.24  1815.91  1844.37  1892.57  1944.55
                             1973.04  2039.16  2083.05  2120.43  2142.45
                             2190.74  4329.52  4368.50  4441.97  4464.07
                             4470.50  4569.21  4569.73  4584.97  4606.99
                             5334.56

 Zero-point correction=                           0.160136 (Hartree/Particle)
 Thermal correction to Energy=                    0.167792
 Thermal correction to Enthalpy=                  0.168737
 Thermal correction to Gibbs Free Energy=         0.128068
 Sum of electronic and zero-point Energies=           -423.000011
 Sum of electronic and thermal Energies=              -422.992354
 Sum of electronic and thermal Enthalpies=            -422.991410
 Sum of electronic and thermal Free Energies=         -423.032078

                     E (Thermal)             CV                S
                      KCal/Mol        Cal/Mol-Kelvin    Cal/Mol-Kelvin
 Total                  105.291             30.985             85.595
 Electronic               0.000              0.000              0.000
 Translational            0.889              2.981             40.409
 Rotational               0.889              2.981             28.474
 Vibrational            103.514             25.023             16.712
 Vibration     1          0.598              1.969              4.180
 Vibration     2          0.646              1.815              1.985
 Vibration     3          0.671              1.736              1.625
 Vibration     4          0.702              1.647              1.341
 Vibration     5          0.710              1.624              1.280
 Vibration     6          0.749              1.515              1.043
 Vibration     7          0.792              1.403              0.856
 Vibration     8          0.842              1.281              0.694
 Vibration     9          0.888              1.177              0.581
 Vibration    10          0.914              1.121              0.527

 Optimization completed.
    -- Stationary point found.
 Normal termination of Gaussian 09 at Mon Jan 27 23:56:54 2020.
