 Gaussian 09, Revision D.01,
 Gaussian 09:  ES64L-G09RevD.01 24-Apr-2013

 -----------------------------
 # b3lyp 6-31G(2df,p) opt Freq
 -----------------------------

 -----
 titel
 -----
 Symbolic Z-matrix:
 Charge =  0 Multiplicity = 1

 SCF Done:  E(RB3LYP) =  -423.213652940     A.U. after   14 cycles
 Optimization completed.
    -- Stationary point found.
 Normal termination of Gaussian 09 at Tue Jan 28 03:58:04 2020.

 ----------------------------------------------------------------------
 #N Geom=AllCheck Guess=TCheck SCRF=Check GenChk RB3LYP/6-31G(2df,p) Fr
 eq
 ----------------------------------------------------------------------

 Structure from the checkpoint file:  "/scratch/puck/g09_5f7416e7-b3c1-43ab-a19a-851bdee08952/Gau-68007.chk"
 -----
 titel
 -----
 Charge =  0 Multiplicity = 1

                         Standard orientation:
 ---------------------------------------------------------------------
 Center     Atomic      Atomic             Coordinates (Angstroms)
 Number     Number       Type             X           Y           Z
 ---------------------------------------------------------------------
      1          6           0        2.630994   -0.109330    0.635657
      2          6           0        1.486128   -0.264431   -0.367485
      3          8           0        0.912055   -1.562274   -0.241715
      4          6           0       -0.506020   -1.474803   -0.125295
      5          6           0       -0.799981    0.000062   -0.036748
      6          6           0       -2.155793    0.505824    0.151781
      7          8           0       -3.127604   -0.214085    0.255796
      8          6           0        0.337247    0.701970   -0.179483
      9          6           0        0.553645    2.179090   -0.198352
     10          1           0        3.154084    0.841694    0.493825
     11          1           0        2.253626   -0.159732    1.661342
     12          1           0        3.350467   -0.919565    0.492547
     13          1           0        1.898313   -0.141011   -1.386601
     14          1           0       -0.997146   -1.934345   -0.995977
     15          1           0       -0.841506   -2.025814    0.762861
     16          1           0       -2.261133    1.610791    0.197667
     17          1           0        1.065992    2.477899   -1.121373
     18          1           0       -0.377404    2.743546   -0.128024
     19          1           0        1.201786    2.487114    0.630634
 ---------------------------------------------------------------------

 SCF Done:  E(RB3LYP) =  -423.213652940     A.U. after    1 cycles

 The electronic state is 1-A.
 Alpha  occ. eigenvalues --  -19.13946 -19.13367 -10.26841 -10.24658 -10.23138
 Alpha  occ. eigenvalues --  -10.22119 -10.20764 -10.19701 -10.18606  -1.04215
 Alpha  occ. eigenvalues --   -1.03680  -0.83147  -0.77973  -0.72931  -0.67488
 Alpha  occ. eigenvalues --   -0.65004  -0.57826  -0.53937  -0.49340  -0.48605
 Alpha  occ. eigenvalues --   -0.47168  -0.44457  -0.43626  -0.42583  -0.41556
 Alpha  occ. eigenvalues --   -0.39682  -0.38951  -0.38684  -0.38162  -0.35886
 Alpha  occ. eigenvalues --   -0.32287  -0.27849  -0.25222  -0.24279
 Alpha virt. eigenvalues --   -0.05926   0.06320   0.07572   0.10172   0.11834
 Alpha virt. eigenvalues --    0.12499   0.12950   0.14892   0.15731   0.16198
 Alpha virt. eigenvalues --    0.16972   0.18328   0.19071   0.20954   0.21974

 Mulliken charges:
               1
     1  C   -0.397806
     2  C    0.070490
     3  O   -0.282314
     4  C   -0.165147
     5  C    0.101585
     6  C    0.068601
     7  O   -0.271249
     8  C    0.186210
     9  C   -0.505647
    10  H    0.114153
    11  H    0.123405
    12  H    0.136172
    13  H    0.085481
    14  H    0.116368
    15  H    0.122392
    16  H    0.067521
    17  H    0.142235
    18  H    0.140497
    19  H    0.147053
 Sum of Mulliken charges =   0.00000

 Dipole moment (field-independent basis, Debye):
    X=              2.7416    Y=              2.7190    Z=             -0.2886  Tot=              3.8720
 Quadrupole moment (field-independent basis, Debye-Ang):
   XX=            -62.3196   YY=            -52.2622   ZZ=            -52.3951
   XY=              0.5223   XZ=              0.9282   YZ=             -0.4598

  Exact polarizability: 108.836  11.061  82.226  -3.212  -1.225  56.133
 Approx polarizability: 167.990  29.230 120.685 -10.002  -3.560  86.420

                      1                      2                      3
                      A                      A                      A
 Frequencies --     58.0322               118.9841               151.5825
 Red. masses --      3.8194                 3.1975                 1.2346
 Frc consts  --      0.0076                 0.0267                 0.0167
 IR Inten    --      0.1357                 6.4206                 0.6095

                      4                      5                      6
                      A                      A                      A
 Frequencies --    181.8895               188.1415               218.5070
 Red. masses --      4.2648                 1.9292                 1.3905
 Frc consts  --      0.0831                 0.0402                 0.0391
 IR Inten    --      5.3854                 1.9690                 1.9487

                      7                      8                      9
                      A                      A                      A
 Frequencies --    251.0796               300.1475               358.7369
 Red. masses --      1.5821                 2.8349                 2.9517
 Frc consts  --      0.0588                 0.1505                 0.2238
 IR Inten    --      0.6710                 1.4973                 2.6083

                     10                     11                     12
                      A                      A                      A
 Frequencies --    407.9316               501.8866               582.9824
 Red. masses --      2.8777                 3.9452                 4.1225
 Frc consts  --      0.2821                 0.5855                 0.8255
 IR Inten    --      3.4116                 0.3774                 0.9970

                     13                     14                     15
                      A                      A                      A
 Frequencies --    614.1698               708.1439               787.2073
 Red. masses --      3.2248                 5.7421                 2.8753
 Frc consts  --      0.7167                 1.6965                 1.0498
 IR Inten    --      7.7129                31.7886                 4.7875

                     16                     17                     18
                      A                      A                      A
 Frequencies --    870.1038               899.2753               982.9958
 Red. masses --      2.6668                 2.0984                 1.3984
 Frc consts  --      1.1895                 0.9998                 0.7961
 IR Inten    --      9.6525                 4.7691                 0.8125

                     19                     20                     21
                      A                      A                      A
 Frequencies --   1023.4899              1035.0272              1057.9994
 Red. masses --      1.8704                 1.8089                 1.8526
 Frc consts  --      1.1544                 1.1417                 1.2218
 IR Inten    --      1.9748                 5.4115                 3.7041

                     22                     23                     24
                      A                      A                      A
 Frequencies --   1074.4752              1094.5791              1118.5216
 Red. masses --      2.7022                 2.2661                 2.3375
 Frc consts  --      1.8381                 1.5997                 1.7230
 IR Inten    --     35.8076                 7.1886                 2.1354

                     25                     26                     27
                      A                      A                      A
 Frequencies --   1126.3099              1191.7782              1216.4420
 Red. masses --      3.5407                 1.0918                 2.7034
 Frc consts  --      2.6464                 0.9136                 2.3569
 IR Inten    --     22.9621                 1.4193                 9.7527

                     28                     29                     30
                      A                      A                      A
 Frequencies --   1284.0069              1356.8390              1360.8060
 Red. masses --      1.6627                 1.8860                 1.3853
 Frc consts  --      1.6151                 2.0457                 1.5114
 IR Inten    --     67.4000                 2.4766                29.7005

                     31                     32                     33
                      A                      A                      A
 Frequencies --   1387.0294              1401.9212              1412.3780
 Red. masses --      1.6569                 1.2940                 1.5001
 Frc consts  --      1.8781                 1.4985                 1.7630
 IR Inten    --     17.0482                 9.6989                19.5496

                     34                     35                     36
                      A                      A                      A
 Frequencies --   1429.5891              1475.5262              1480.5982
 Red. masses --      1.2178                 1.0489                 1.0632
 Frc consts  --      1.4664                 1.3455                 1.3732
 IR Inten    --      1.9822                10.7761                11.5990

                     37                     38                     39
                      A                      A                      A
 Frequencies --   1489.0131              1495.7235              1523.0231
 Red. masses --      1.0648                 1.0500                 1.0840
 Frc consts  --      1.3909                 1.3841                 1.4814
 IR Inten    --      0.3269                 2.8715                 0.4900

                     40                     41                     42
                      A                      A                      A
 Frequencies --   1707.8325              1770.3393              2896.9757
 Red. masses --      7.7272                10.1268                 1.0819
 Frc consts  --     13.2790                18.6997                 5.3497
 IR Inten    --     59.2437               272.5716               101.1821

                     43                     44                     45
                      A                      A                      A
 Frequencies --   2923.4619              2995.3606              3028.3773
 Red. masses --      1.0807                 1.0657                 1.0401
 Frc consts  --      5.4419                 5.6336                 5.6200
 IR Inten    --     57.3096                51.4851                13.7514

                     46                     47                     48
                      A                      A                      A
 Frequencies --   3033.3919              3040.5116              3075.7791
 Red. masses --      1.0964                 1.0349                 1.0976
 Frc consts  --      5.9441                 5.6371                 6.1178
 IR Inten    --     30.5696                17.3917                10.2819

                     49                     50                     51
                      A                      A                      A
 Frequencies --   3115.3896              3125.6348              3134.7969
 Red. masses --      1.1018                 1.1022                 1.0976
 Frc consts  --      6.3004                 6.3442                 6.3548
 IR Inten    --     21.5922                16.7390                12.1681

 - Thermochemistry -
 -------------------
 Temperature   298.150 Kelvin.  Pressure   1.00000 Atm.
 Atom     1 has atomic number  6 and mass  12.00000

 Molecular mass:   126.06808 amu.
 Principal axes and moments of inertia in atomic units:
                           1         2         3
     Eigenvalues --   653.400191458.470251981.44106
           X            0.99980   0.01709   0.01026
           Y           -0.01703   0.99984  -0.00612
           Z           -0.01037   0.00595   0.99993
 This molecule is an asymmetric top.
 Rotational symmetry number  1.
 Warning -- assumption of classical behavior for rotation
           may cause significant error
 Rotational temperatures (Kelvin)      0.13256     0.05939     0.04371
 Rotational constants (GHZ):           2.76208     1.23742     0.91082
 Zero-point vibrational energy     413098.8 (Joules/Mol)
                                   98.73298 (Kcal/Mol)
 Warning -- explicit consideration of  13 degrees of freedom as
           vibrations may cause significant error
 Vibrational temperatures:     83.50   171.19   218.09   261.70   270.69
          (Kelvin)            314.38   361.25   431.84   516.14   586.92
                              722.10   838.78   883.65  1018.86  1132.61
                             1251.88  1293.85  1414.31  1472.57  1489.17
                             1522.22  1545.93  1574.85  1609.30  1620.51
                             1714.70  1750.19  1847.40  1952.19  1957.89
                             1995.62  2017.05  2032.09  2056.86  2122.95
                             2130.25  2142.36  2152.01  2191.29  2457.19
                             2547.12  4168.10  4206.20  4309.65  4357.15
                             4364.37  4374.61  4425.35  4482.35  4497.09
                             4510.27

 Zero-point correction=                           0.157341 (Hartree/Particle)
 Thermal correction to Energy=                    0.166796
 Thermal correction to Enthalpy=                  0.167740
 Thermal correction to Gibbs Free Energy=         0.122743
 Sum of electronic and zero-point Energies=           -423.056312
 Sum of electronic and thermal Energies=              -423.046857
 Sum of electronic and thermal Enthalpies=            -423.045913
 Sum of electronic and thermal Free Energies=         -423.090910

                     E (Thermal)             CV                S
                      KCal/Mol        Cal/Mol-Kelvin    Cal/Mol-Kelvin
 Total                  104.666             33.777             94.704
 Electronic               0.000              0.000              0.000
 Translational            0.889              2.981             40.409
 Rotational               0.889              2.981             29.025
 Vibrational            102.888             27.816             25.270
 Vibration     1          0.596              1.974              4.523
 Vibration     2          0.609              1.933              3.117
 Vibration     3          0.619              1.901              2.652
 Vibration     4          0.630              1.864              2.309
 Vibration     5          0.633              1.856              2.246
 Vibration     6          0.646              1.813              1.971
 Vibration     7          0.663              1.761              1.723
 Vibration     8          0.693              1.673              1.416
 Vibration     9          0.734              1.557              1.128
 Vibration    10          0.772              1.453              0.934
 Vibration    11          0.857              1.246              0.653
 Vibration    12          0.940              1.068              0.480
 Vibration    13          0.974              1.002              0.426

 Optimization completed.
    -- Stationary point found.
 Normal termination of Gaussian 09 at Tue Jan 28 04:38:45 2020.
