 Gaussian 09, Revision D.01,
 Gaussian 09:  ES64L-G09RevD.01 24-Apr-2013

 -----------------------------
 # b3lyp 6-31G(2df,p) opt Freq
 -----------------------------

 -----
 titel
 -----
 Symbolic Z-matrix:
 Charge =  0 Multiplicity = 1

 SCF Done:  E(RB3LYP) =  -423.159512454     A.U. after   13 cycles
 Optimization completed.
    -- Stationary point found.
 Normal termination of Gaussian 09 at Tue Jan 28 09:18:39 2020.

 ----------------------------------------------------------------------
 #N Geom=AllCheck Guess=TCheck SCRF=Check GenChk RB3LYP/6-31G(2df,p) Fr
 eq
 ----------------------------------------------------------------------

 Structure from the checkpoint file:  "/scratch/puck/g09_b41e6fdb-b27d-4780-b985-29f4bd4339c2/Gau-46296.chk"
 -----
 titel
 -----
 Charge =  0 Multiplicity = 1

                         Standard orientation:
 ---------------------------------------------------------------------
 Center     Atomic      Atomic             Coordinates (Angstroms)
 Number     Number       Type             X           Y           Z
 ---------------------------------------------------------------------
      1          6           0        2.251920   -0.415855   -0.775096
      2          8           0        1.657591   -0.366760    0.515852
      3          6           0        0.271942   -0.345374    0.512153
      4          6           0       -0.358849    0.606902    1.493281
      5          6           0       -0.533467    0.853382    0.003617
      6          8           0        0.084904    1.944863   -0.605349
      7          6           0       -1.759154    0.260947   -0.611966
      8          6           0       -1.762585   -1.071284   -0.521789
      9          6           0       -0.514012   -1.607504    0.145910
     10          1           0        1.963127    0.452823   -1.375918
     11          1           0        3.333049   -0.409142   -0.617556
     12          1           0        1.986305   -1.334074   -1.317286
     13          1           0       -1.213648    0.301664    2.088827
     14          1           0        0.362394    1.248670    1.990472
     15          1           0       -0.160322    2.741899   -0.125116
     16          1           0       -2.535020    0.873611   -1.057290
     17          1           0       -2.562779   -1.720465   -0.857491
     18          1           0       -0.744328   -2.205165    1.036414
     19          1           0        0.056492   -2.261934   -0.525742
 ---------------------------------------------------------------------

 SCF Done:  E(RB3LYP) =  -423.159512454     A.U. after    1 cycles

 The electronic state is 1-A.
 Alpha  occ. eigenvalues --  -19.14632 -19.14049 -10.23518 -10.23239 -10.21472
 Alpha  occ. eigenvalues --  -10.18536 -10.18194 -10.18099 -10.17873  -1.04187
 Alpha  occ. eigenvalues --   -1.02290  -0.86923  -0.76728  -0.70657  -0.67449
 Alpha  occ. eigenvalues --   -0.61333  -0.55279  -0.55008  -0.52310  -0.47406
 Alpha  occ. eigenvalues --   -0.45459  -0.44419  -0.43675  -0.43128  -0.40328
 Alpha  occ. eigenvalues --   -0.38903  -0.37969  -0.35550  -0.33684  -0.32316
 Alpha  occ. eigenvalues --   -0.29568  -0.26384  -0.25319  -0.21804
 Alpha virt. eigenvalues --    0.01667   0.07787   0.10506   0.10618   0.13563
 Alpha virt. eigenvalues --    0.14067   0.14724   0.15814   0.16651   0.16946
 Alpha virt. eigenvalues --    0.18512   0.19510   0.21090   0.21981   0.23574

 Mulliken charges:
               1
     1  C   -0.263533
     2  O   -0.292711
     3  C    0.401606
     4  C   -0.402443
     5  C    0.279546
     6  O   -0.464867
     7  C   -0.132028
     8  C   -0.078144
     9  C   -0.349164
    10  H    0.139184
    11  H    0.122951
    12  H    0.104699
    13  H    0.108979
    14  H    0.119254
    15  H    0.286902
    16  H    0.094535
    17  H    0.096813
    18  H    0.116080
    19  H    0.112339
 Sum of Mulliken charges =   0.00000

 Dipole moment (field-independent basis, Debye):
    X=             -1.0595    Y=              0.3217    Z=              0.0781  Tot=              1.1101
 Quadrupole moment (field-independent basis, Debye-Ang):
   XX=            -52.0801   YY=            -47.5425   ZZ=            -54.3874
   XY=             -0.6884   XZ=             -2.0474   YZ=              2.8901

  Exact polarizability:  79.497   0.747  83.237   1.332   2.345  65.308
 Approx polarizability: 106.893  -0.269 131.723   3.269   0.643  99.491

                      1                      2                      3
                      A                      A                      A
 Frequencies --    122.7040               149.5815               168.6871
 Red. masses --      1.6943                 3.0275                 1.7720
 Frc consts  --      0.0150                 0.0399                 0.0297
 IR Inten    --      3.0246                 2.1973                 3.8496

                      4                      5                      6
                      A                      A                      A
 Frequencies --    207.1940               246.5176               276.1966
 Red. masses --      1.2683                 2.0871                 3.6764
 Frc consts  --      0.0321                 0.0747                 0.1652
 IR Inten    --     73.3672                10.9768                 1.6331

                      7                      8                      9
                      A                      A                      A
 Frequencies --    321.8490               410.6636               450.6695
 Red. masses --      2.6674                 3.0712                 2.7745
 Frc consts  --      0.1628                 0.3052                 0.3320
 IR Inten    --      2.2551                 0.1187                10.2930

                     10                     11                     12
                      A                      A                      A
 Frequencies --    480.3210               543.6931               577.1944
 Red. masses --      2.1703                 4.1053                 3.2478
 Frc consts  --      0.2950                 0.7150                 0.6375
 IR Inten    --      5.2804                 9.0269                 1.3188

                     13                     14                     15
                      A                      A                      A
 Frequencies --    684.7480               735.3496               748.6061
 Red. masses --      3.6566                 1.6678                 4.0266
 Frc consts  --      1.0102                 0.5314                 1.3295
 IR Inten    --      3.3456                26.3052                 4.8882

                     16                     17                     18
                      A                      A                      A
 Frequencies --    794.9361               902.6178               917.7047
 Red. masses --      3.3669                 1.4837                 3.5731
 Frc consts  --      1.2536                 0.7122                 1.7730
 IR Inten    --      7.8800                15.8389                 7.2082

                     19                     20                     21
                      A                      A                      A
 Frequencies --    945.5263               948.5168               959.2959
 Red. masses --      1.6627                 1.5551                 1.5678
 Frc consts  --      0.8758                 0.8243                 0.8500
 IR Inten    --      0.8852                 3.8794                 1.9985

                     22                     23                     24
                      A                      A                      A
 Frequencies --    995.8651              1052.7418              1067.4043
 Red. masses --      2.2417                 2.2680                 1.6878
 Frc consts  --      1.3099                 1.4809                 1.1330
 IR Inten    --      5.6332                27.8849                22.5038

                     25                     26                     27
                      A                      A                      A
 Frequencies --   1104.6686              1150.8751              1171.2582
 Red. masses --      1.6988                 1.4416                 1.7570
 Frc consts  --      1.2214                 1.1250                 1.4201
 IR Inten    --     21.6249                22.9899                 6.3004

                     28                     29                     30
                      A                      A                      A
 Frequencies --   1179.4104              1200.3092              1232.6170
 Red. masses --      1.2865                 1.9176                 1.8615
 Frc consts  --      1.0544                 1.6278                 1.6664
 IR Inten    --      1.1383                68.3131                69.3296

                     31                     32                     33
                      A                      A                      A
 Frequencies --   1253.6543              1304.7718              1322.9828
 Red. masses --      1.8369                 2.7483                 1.6261
 Frc consts  --      1.7009                 2.7567                 1.6768
 IR Inten    --     38.9356                26.6787                20.0394

                     34                     35                     36
                      A                      A                      A
 Frequencies --   1363.4690              1395.6307              1455.7071
 Red. masses --      2.2766                 1.7440                 1.3155
 Frc consts  --      2.4936                 2.0015                 1.6424
 IR Inten    --     58.5639                10.5054                 5.6739

                     37                     38                     39
                      A                      A                      A
 Frequencies --   1474.9173              1483.5182              1493.3500
 Red. masses --      1.1744                 1.3011                 1.0543
 Frc consts  --      1.5053                 1.6872                 1.3853
 IR Inten    --     10.0363                 8.6123                 6.6317

                     40                     41                     42
                      A                      A                      A
 Frequencies --   1508.7106              1664.9787              3002.9071
 Red. masses --      1.0505                 6.3553                 1.0416
 Frc consts  --      1.4089                10.3801                 5.5342
 IR Inten    --      7.6063                 3.7419                41.2508

                     43                     44                     45
                      A                      A                      A
 Frequencies --   3026.9292              3055.3444              3079.7934
 Red. masses --      1.0589                 1.1009                 1.0923
 Frc consts  --      5.7165                 6.0552                 6.1045
 IR Inten    --     35.1404                21.3987                30.2159

                     46                     47                     48
                      A                      A                      A
 Frequencies --   3115.9169              3124.3137              3186.6255
 Red. masses --      1.0531                 1.1037                 1.0850
 Frc consts  --      6.0243                 6.3474                 6.4914
 IR Inten    --     10.5553                24.9454                 5.7439

                     49                     50                     51
                      A                      A                      A
 Frequencies --   3211.2918              3213.5054              3810.9371
 Red. masses --      1.1039                 1.1176                 1.0666
 Frc consts  --      6.7071                 6.7997                 9.1269
 IR Inten    --     22.5331                 4.6807                27.4262

 - Thermochemistry -
 -------------------
 Temperature   298.150 Kelvin.  Pressure   1.00000 Atm.
 Atom     1 has atomic number  6 and mass  12.00000

 Molecular mass:   126.06808 amu.
 Principal axes and moments of inertia in atomic units:
                           1         2         3
     Eigenvalues --   788.650451047.990111332.46385
           X            0.99943   0.00613  -0.03310
           Y           -0.00463   0.99897   0.04504
           Z            0.03334  -0.04486   0.99844
 This molecule is an asymmetric top.
 Rotational symmetry number  1.
 Warning -- assumption of classical behavior for rotation
           may cause significant error
 Rotational temperatures (Kelvin)      0.10983     0.08265     0.06500
 Rotational constants (GHZ):           2.28839     1.72210     1.35444
 Zero-point vibrational energy     414488.0 (Joules/Mol)
                                   99.06500 (Kcal/Mol)
 Warning -- explicit consideration of  12 degrees of freedom as
           vibrations may cause significant error
 Vibrational temperatures:    176.54   215.21   242.70   298.11   354.68
          (Kelvin)            397.38   463.07   590.85   648.41   691.07
                              782.25   830.45   985.20  1058.00  1077.08
                             1143.73  1298.66  1320.37  1360.40  1364.70
                             1380.21  1432.83  1514.66  1535.75  1589.37
                             1655.85  1685.18  1696.91  1726.98  1773.46
                             1803.73  1877.27  1903.47  1961.73  2008.00
                             2094.44  2122.07  2134.45  2148.59  2170.70
                             2395.53  4320.51  4355.07  4395.95  4431.13
                             4483.10  4495.18  4584.84  4620.33  4623.51
                             5483.08

 Zero-point correction=                           0.157870 (Hartree/Particle)
 Thermal correction to Energy=                    0.166623
 Thermal correction to Enthalpy=                  0.167567
 Thermal correction to Gibbs Free Energy=         0.124984
 Sum of electronic and zero-point Energies=           -423.001642
 Sum of electronic and thermal Energies=              -422.992890
 Sum of electronic and thermal Enthalpies=            -422.991946
 Sum of electronic and thermal Free Energies=         -423.034528

                     E (Thermal)             CV                S
                      KCal/Mol        Cal/Mol-Kelvin    Cal/Mol-Kelvin
 Total                  104.557             33.737             89.622
 Electronic               0.000              0.000              0.000
 Translational            0.889              2.981             40.409
 Rotational               0.889              2.981             28.489
 Vibrational            102.780             27.775             20.724
 Vibration     1          0.610              1.930              3.057
 Vibration     2          0.618              1.903              2.678
 Vibration     3          0.625              1.881              2.450
 Vibration     4          0.641              1.830              2.068
 Vibration     5          0.661              1.769              1.755
 Vibration     6          0.678              1.717              1.557
 Vibration     7          0.707              1.632              1.301
 Vibration     8          0.775              1.447              0.924
 Vibration     9          0.809              1.359              0.794
 Vibration    10          0.837              1.294              0.709
 Vibration    11          0.899              1.154              0.557
 Vibration    12          0.934              1.081              0.491

 Optimization completed.
    -- Stationary point found.
 Normal termination of Gaussian 09 at Tue Jan 28 10:05:32 2020.
