 Gaussian 09, Revision D.01,
 Gaussian 09:  ES64L-G09RevD.01 24-Apr-2013

 -----------------------------
 # b3lyp 6-31G(2df,p) opt Freq
 -----------------------------

 -----
 titel
 -----
 Symbolic Z-matrix:
 Charge =  0 Multiplicity = 1

 SCF Done:  E(RB3LYP) =  -423.187722627     A.U. after   14 cycles
 Optimization completed.
    -- Stationary point found.
 Normal termination of Gaussian 09 at Mon Jan 27 17:40:29 2020.

 ----------------------------------------------------------------------
 #N Geom=AllCheck Guess=TCheck SCRF=Check GenChk RB3LYP/6-31G(2df,p) Fr
 eq
 ----------------------------------------------------------------------

 Structure from the checkpoint file:  "/scratch/puck/g09_41bcbba6-9b13-473f-abbf-e271516bc4f9/Gau-60761.chk"
 -----
 titel
 -----
 Charge =  0 Multiplicity = 1

                         Standard orientation:
 ---------------------------------------------------------------------
 Center     Atomic      Atomic             Coordinates (Angstroms)
 Number     Number       Type             X           Y           Z
 ---------------------------------------------------------------------
      1          6           0       -2.277146   -1.281222   -0.533694
      2          6           0       -1.317324   -0.276135    0.034376
      3          6           0       -1.764923    0.976933    0.746607
      4          6           0       -0.981356    1.065061   -0.556302
      5          6           0        0.523548    1.220759   -0.448993
      6          6           0        0.922500    0.074411    0.514118
      7          8           0       -0.133584   -0.884574    0.512382
      8          6           0        2.202252   -0.653913    0.142549
      9          8           0        3.161500   -0.121358   -0.351287
     10          1           0       -2.589546   -1.995595    0.234972
     11          1           0       -3.171153   -0.782444   -0.917278
     12          1           0       -1.812169   -1.842093   -1.350681
     13          1           0       -2.820943    1.221571    0.705391
     14          1           0       -1.278395    1.261819    1.674089
     15          1           0       -1.481334    1.430834   -1.445754
     16          1           0        0.999280    1.080689   -1.424224
     17          1           0        0.844946    2.191424   -0.063185
     18          1           0        1.064168    0.467688    1.534869
     19          1           0        2.176517   -1.741795    0.371077
 ---------------------------------------------------------------------

 SCF Done:  E(RB3LYP) =  -423.187722627     A.U. after    1 cycles

 The electronic state is 1-A.
 Alpha  occ. eigenvalues --  -19.15125 -19.14544 -10.27297 -10.24524 -10.24495
 Alpha  occ. eigenvalues --  -10.19608 -10.19570 -10.18816 -10.18430  -1.05900
 Alpha  occ. eigenvalues --   -1.04697  -0.85671  -0.78414  -0.71373  -0.68233
 Alpha  occ. eigenvalues --   -0.59677  -0.56617  -0.56069  -0.50690  -0.49589
 Alpha  occ. eigenvalues --   -0.47179  -0.44389  -0.43618  -0.42030  -0.40653
 Alpha  occ. eigenvalues --   -0.39400  -0.39193  -0.38776  -0.35582  -0.34660
 Alpha  occ. eigenvalues --   -0.32090  -0.28527  -0.26485  -0.23340
 Alpha virt. eigenvalues --   -0.02733   0.08334   0.09283   0.11499   0.12387
 Alpha virt. eigenvalues --    0.12797   0.13356   0.14921   0.15805   0.16679
 Alpha virt. eigenvalues --    0.17660   0.18585   0.19999   0.20194   0.22692

 Mulliken charges:
               1
     1  C   -0.465170
     2  C    0.452316
     3  C   -0.353376
     4  C   -0.112726
     5  C   -0.253579
     6  C    0.021987
     7  O   -0.313057
     8  C    0.130455
     9  O   -0.242198
    10  H    0.130136
    11  H    0.120032
    12  H    0.125040
    13  H    0.113881
    14  H    0.114815
    15  H    0.093566
    16  H    0.122752
    17  H    0.116919
    18  H    0.102296
    19  H    0.095910
 Sum of Mulliken charges =   0.00000

 Dipole moment (field-independent basis, Debye):
    X=             -2.4480    Y=              0.5149    Z=              0.2946  Tot=              2.5188
 Quadrupole moment (field-independent basis, Debye-Ang):
   XX=            -59.7828   YY=            -52.9739   ZZ=            -51.7910
   XY=             -1.0977   XZ=              3.7449   YZ=              0.8078

  Exact polarizability:  89.027   0.926  73.410  -2.080  -0.196  64.079
 Approx polarizability: 117.937   3.754 108.624  -6.825  -3.181  99.973

                      1                      2                      3
                      A                      A                      A
 Frequencies --     35.8284               103.5094               172.6898
 Red. masses --      4.6110                 2.5236                 2.8567
 Frc consts  --      0.0035                 0.0159                 0.0502
 IR Inten    --      5.1538                 6.6847                 3.1702

                      4                      5                      6
                      A                      A                      A
 Frequencies --    209.0114               217.9976               311.5949
 Red. masses --      1.1408                 2.9582                 2.7911
 Frc consts  --      0.0294                 0.0828                 0.1597
 IR Inten    --      0.3817                 4.0155                 1.1271

                      7                      8                      9
                      A                      A                      A
 Frequencies --    361.9943               404.0294               445.4131
 Red. masses --      3.0948                 2.2669                 2.4481
 Frc consts  --      0.2389                 0.2180                 0.2862
 IR Inten    --      2.6302                 0.3035                 1.5341

                     10                     11                     12
                      A                      A                      A
 Frequencies --    533.1004               623.2416               689.3560
 Red. masses --      3.5356                 3.3284                 5.0152
 Frc consts  --      0.5920                 0.7617                 1.4042
 IR Inten    --      4.9612                 1.5283                27.4641

                     13                     14                     15
                      A                      A                      A
 Frequencies --    725.8722               810.6755               834.3196
 Red. masses --      4.0078                 3.0168                 2.0540
 Frc consts  --      1.2442                 1.1681                 0.8424
 IR Inten    --      2.9850                 6.2112                 8.4392

                     16                     17                     18
                      A                      A                      A
 Frequencies --    855.3835               910.7110               942.1427
 Red. masses --      1.5877                 1.7809                 2.1485
 Frc consts  --      0.6845                 0.8703                 1.1236
 IR Inten    --      1.0947                 7.6410                20.8390

                     19                     20                     21
                      A                      A                      A
 Frequencies --    947.3045               982.9857              1032.4348
 Red. masses --      1.4987                 1.6162                 1.5886
 Frc consts  --      0.7924                 0.9201                 0.9976
 IR Inten    --      8.0598                 2.7810                35.7695

                     22                     23                     24
                      A                      A                      A
 Frequencies --   1045.5951              1090.8622              1097.2157
 Red. masses --      1.3379                 2.5812                 2.0907
 Frc consts  --      0.8618                 1.8097                 1.4829
 IR Inten    --      4.4712                10.6000                 4.1431

                     25                     26                     27
                      A                      A                      A
 Frequencies --   1103.6974              1120.1715              1130.9574
 Red. masses --      2.8245                 2.2155                 1.8268
 Frc consts  --      2.0272                 1.6379                 1.3767
 IR Inten    --     41.3288                 7.5271                27.1914

                     28                     29                     30
                      A                      A                      A
 Frequencies --   1204.0681              1241.1445              1276.6775
 Red. masses --      1.3234                 2.3703                 1.6715
 Frc consts  --      1.1304                 2.1513                 1.6051
 IR Inten    --      1.1232                75.6706                 3.3139

                     31                     32                     33
                      A                      A                      A
 Frequencies --   1302.6837              1328.0588              1359.8026
 Red. masses --      1.4511                 1.4495                 1.5694
 Frc consts  --      1.4509                 1.5062                 1.7097
 IR Inten    --     10.7232                 2.1764                 1.5025

                     34                     35                     36
                      A                      A                      A
 Frequencies --   1393.0956              1404.4656              1430.2711
 Red. masses --      1.4896                 1.2428                 1.7194
 Frc consts  --      1.7033                 1.4444                 2.0723
 IR Inten    --     12.5421                 4.1477                 6.4947

                     37                     38                     39
                      A                      A                      A
 Frequencies --   1477.7474              1488.0230              1498.6627
 Red. masses --      1.0453                 1.2772                 1.0826
 Frc consts  --      1.3449                 1.6661                 1.4326
 IR Inten    --      2.2797                10.6154                 1.9567

                     40                     41                     42
                      A                      A                      A
 Frequencies --   1507.4232              1835.7205              2902.0999
 Red. masses --      1.2252                10.7745                 1.0845
 Frc consts  --      1.6403                21.3925                 5.3816
 IR Inten    --      4.4756               149.1874                87.1152

                     43                     44                     45
                      A                      A                      A
 Frequencies --   2959.3390              3038.0640              3061.1396
 Red. masses --      1.0806                 1.0354                 1.0594
 Frc consts  --      5.5760                 5.6307                 5.8491
 IR Inten    --     34.5862                25.1813                19.8970

                     46                     47                     48
                      A                      A                      A
 Frequencies --   3103.1419              3103.5423              3119.9389
 Red. masses --      1.1015                 1.1054                 1.1002
 Frc consts  --      6.2496                 6.2730                 6.3096
 IR Inten    --     16.8695                16.7815                14.5191

                     49                     50                     51
                      A                      A                      A
 Frequencies --   3128.7472              3175.4174              3214.7911
 Red. masses --      1.0553                 1.0918                 1.1160
 Frc consts  --      6.0866                 6.4862                 6.7957
 IR Inten    --     11.4489                10.0795                10.2367

 - Thermochemistry -
 -------------------
 Temperature   298.150 Kelvin.  Pressure   1.00000 Atm.
 Atom     1 has atomic number  6 and mass  12.00000

 Molecular mass:   126.06808 amu.
 Principal axes and moments of inertia in atomic units:
                           1         2         3
     Eigenvalues --   508.929661577.002951811.15255
           X            0.99989   0.01076   0.01052
           Y           -0.01109   0.99945   0.03121
           Z           -0.01017  -0.03132   0.99946
 This molecule is an asymmetric top.
 Rotational symmetry number  1.
 Warning -- assumption of classical behavior for rotation
           may cause significant error
 Rotational temperatures (Kelvin)      0.17019     0.05492     0.04782
 Rotational constants (GHZ):           3.54615     1.14441     0.99646
 Zero-point vibrational energy     414459.2 (Joules/Mol)
                                   99.05812 (Kcal/Mol)
 Warning -- explicit consideration of  10 degrees of freedom as
           vibrations may cause significant error
 Vibrational temperatures:     51.55   148.93   248.46   300.72   313.65
          (Kelvin)            448.32   520.83   581.31   640.85   767.01
                              896.70   991.83  1044.37  1166.38  1200.40
                             1230.70  1310.31  1355.53  1362.96  1414.30
                             1485.44  1504.38  1569.51  1578.65  1587.97
                             1611.67  1627.19  1732.38  1785.73  1836.85
                             1874.27  1910.78  1956.45  2004.35  2020.71
                             2057.84  2126.15  2140.93  2156.24  2168.84
                             2641.19  4175.47  4257.82  4371.09  4404.29
                             4464.72  4465.30  4488.89  4501.56  4568.71
                             4625.36

 Zero-point correction=                           0.157859 (Hartree/Particle)
 Thermal correction to Energy=                    0.166555
 Thermal correction to Enthalpy=                  0.167499
 Thermal correction to Gibbs Free Energy=         0.123767
 Sum of electronic and zero-point Energies=           -423.029863
 Sum of electronic and thermal Energies=              -423.021168
 Sum of electronic and thermal Enthalpies=            -423.020223
 Sum of electronic and thermal Free Energies=         -423.063956

                     E (Thermal)             CV                S
                      KCal/Mol        Cal/Mol-Kelvin    Cal/Mol-Kelvin
 Total                  104.515             32.411             92.042
 Electronic               0.000              0.000              0.000
 Translational            0.889              2.981             40.409
 Rotational               0.889              2.981             28.765
 Vibrational            102.737             26.449             22.868
 Vibration     1          0.594              1.982              5.477
 Vibration     2          0.605              1.946              3.387
 Vibration     3          0.626              1.876              2.406
 Vibration     4          0.642              1.827              2.052
 Vibration     5          0.646              1.814              1.976
 Vibration     6          0.700              1.652              1.354
 Vibration     7          0.736              1.551              1.114
 Vibration     8          0.769              1.461              0.948
 Vibration     9          0.805              1.371              0.810
 Vibration    10          0.888              1.177              0.580

 Optimization completed.
    -- Stationary point found.
 Normal termination of Gaussian 09 at Mon Jan 27 18:20:49 2020.
