 Gaussian 09, Revision D.01,
 Gaussian 09:  ES64L-G09RevD.01 24-Apr-2013

 -----------------------------
 # b3lyp 6-31G(2df,p) opt Freq
 -----------------------------

 -----
 titel
 -----
 Symbolic Z-matrix:
 Charge =  0 Multiplicity = 1

 SCF Done:  E(RB3LYP) =  -423.196972301     A.U. after   14 cycles
 Optimization completed.
    -- Stationary point found.
 Normal termination of Gaussian 09 at Mon Jan 27 13:06:26 2020.

 ----------------------------------------------------------------------
 #N Geom=AllCheck Guess=TCheck SCRF=Check GenChk RB3LYP/6-31G(2df,p) Fr
 eq
 ----------------------------------------------------------------------

 Structure from the checkpoint file:  "/scratch/puck/g09_39e6fdeb-198c-4bcb-b0ee-5e987cbfd8c2/Gau-47871.chk"
 -----
 titel
 -----
 Charge =  0 Multiplicity = 1

                         Standard orientation:
 ---------------------------------------------------------------------
 Center     Atomic      Atomic             Coordinates (Angstroms)
 Number     Number       Type             X           Y           Z
 ---------------------------------------------------------------------
      1          8           0       -2.897910   -0.814073    0.184623
      2          6           0       -1.826627   -0.295037    0.014841
      3          6           0       -1.501278    1.191788    0.212079
      4          6           0       -0.105885    1.369255   -0.403634
      5          6           0        0.582367    0.005095   -0.195357
      6          6           0        1.396188   -0.142493    1.119323
      7          8           0        2.635291   -0.245304    0.394521
      8          6           0        1.952957   -0.202640   -0.873743
      9          6           0       -0.542388   -1.004235   -0.437409
     10          1           0       -2.283933    1.825990   -0.210148
     11          1           0       -1.487356    1.380739    1.293860
     12          1           0       -0.192367    1.567396   -1.479532
     13          1           0        0.465594    2.193146    0.032046
     14          1           0        1.385261    0.723016    1.794925
     15          1           0        1.185153   -1.049877    1.701508
     16          1           0        2.302656    0.626912   -1.502339
     17          1           0        2.061711   -1.142394   -1.431891
     18          1           0       -0.648378   -1.212600   -1.511692
     19          1           0       -0.419395   -1.967703    0.063507
 ---------------------------------------------------------------------

 SCF Done:  E(RB3LYP) =  -423.196972301     A.U. after    1 cycles

 The electronic state is 1-A.
 Alpha  occ. eigenvalues --  -19.13685 -19.13325 -10.27315 -10.23532 -10.23499
 Alpha  occ. eigenvalues --  -10.21106 -10.19968 -10.19787 -10.19727  -1.04504
 Alpha  occ. eigenvalues --   -1.04284  -0.84987  -0.74400  -0.71256  -0.69833
 Alpha  occ. eigenvalues --   -0.63765  -0.54983  -0.54119  -0.49966  -0.49279
 Alpha  occ. eigenvalues --   -0.48143  -0.44726  -0.43720  -0.42943  -0.41156
 Alpha  occ. eigenvalues --   -0.40525  -0.38915  -0.38087  -0.35348  -0.34300
 Alpha  occ. eigenvalues --   -0.32136  -0.30580  -0.25400  -0.24251
 Alpha virt. eigenvalues --   -0.02233   0.05815   0.08586   0.10686   0.11428
 Alpha virt. eigenvalues --    0.12120   0.13875   0.14190   0.15018   0.15412
 Alpha virt. eigenvalues --    0.17604   0.18234   0.18982   0.20198   0.21411

 Mulliken charges:
               1
     1  O   -0.308092
     2  C    0.406241
     3  C   -0.322530
     4  C   -0.291824
     5  C    0.293033
     6  C   -0.114807
     7  O   -0.269040
     8  C   -0.136507
     9  C   -0.406117
    10  H    0.131988
    11  H    0.135267
    12  H    0.107535
    13  H    0.112237
    14  H    0.099578
    15  H    0.099923
    16  H    0.099974
    17  H    0.098776
    18  H    0.132488
    19  H    0.131878
 Sum of Mulliken charges =   0.00000

 Dipole moment (field-independent basis, Debye):
    X=              0.6955    Y=              1.3928    Z=             -0.8839  Tot=              1.7902
 Quadrupole moment (field-independent basis, Debye-Ang):
   XX=            -70.6411   YY=            -51.9333   ZZ=            -49.8513
   XY=             -3.6418   XZ=             -0.8551   YZ=              0.7219

  Exact polarizability:  82.319   0.566  72.364  -3.226   0.968  68.831
 Approx polarizability: 114.449   5.030 105.415  -4.102   0.827 104.474

                      1                      2                      3
                      A                      A                      A
 Frequencies --     51.5813                70.7095               134.7246
 Red. masses --      4.3036                 3.9655                 2.2415
 Frc consts  --      0.0067                 0.0117                 0.0240
 IR Inten    --      7.2157                 5.8854                 0.4003

                      4                      5                      6
                      A                      A                      A
 Frequencies --    257.9910               359.3000               370.3386
 Red. masses --      2.2246                 2.3695                 2.0445
 Frc consts  --      0.0872                 0.1802                 0.1652
 IR Inten    --      0.2545                 0.1907                 1.2084

                      7                      8                      9
                      A                      A                      A
 Frequencies --    429.3025               466.7627               494.9281
 Red. masses --      3.9920                 2.1473                 3.5742
 Frc consts  --      0.4335                 0.2756                 0.5158
 IR Inten    --      0.7843                 0.8885                 6.1448

                     10                     11                     12
                      A                      A                      A
 Frequencies --    578.3611               712.6330               737.3104
 Red. masses --      2.9726                 2.1130                 3.0938
 Frc consts  --      0.5858                 0.6322                 0.9909
 IR Inten    --      4.6156                 0.5364                 3.4784

                     13                     14                     15
                      A                      A                      A
 Frequencies --    811.1888               854.5239               885.4587
 Red. masses --      2.6741                 3.6178                 2.0915
 Frc consts  --      1.0368                 1.5565                 0.9661
 IR Inten    --      1.7955                12.9457                 7.0112

                     16                     17                     18
                      A                      A                      A
 Frequencies --    917.2610               948.1226               981.9537
 Red. masses --      1.8100                 1.3576                 1.9108
 Frc consts  --      0.8972                 0.7191                 1.0856
 IR Inten    --      2.4622                 0.5335                 4.5771

                     19                     20                     21
                      A                      A                      A
 Frequencies --    992.3552               997.6081              1029.8937
 Red. masses --      1.9998                 2.7522                 1.6858
 Frc consts  --      1.1603                 1.6138                 1.0535
 IR Inten    --      4.1431                12.1036                 0.0967

                     22                     23                     24
                      A                      A                      A
 Frequencies --   1045.5517              1110.5992              1154.6973
 Red. masses --     10.7515                 3.5238                 1.3134
 Frc consts  --      6.9249                 2.5608                 1.0318
 IR Inten    --     83.7471                42.2634                 0.2963

                     25                     26                     27
                      A                      A                      A
 Frequencies --   1163.6221              1165.0220              1173.5949
 Red. masses --      1.1365                 1.5749                 2.0598
 Frc consts  --      0.9066                 1.2594                 1.6715
 IR Inten    --      2.1426                 7.1304                30.1755

                     28                     29                     30
                      A                      A                      A
 Frequencies --   1207.3265              1244.2585              1273.9827
 Red. masses --      1.6170                 1.7916                 1.7907
 Frc consts  --      1.3887                 1.6343                 1.7124
 IR Inten    --      0.0957                 0.3736                10.4411

                     31                     32                     33
                      A                      A                      A
 Frequencies --   1285.6738              1308.5593              1314.0279
 Red. masses --      2.1267                 1.3168                 1.2866
 Frc consts  --      2.0711                 1.3284                 1.3089
 IR Inten    --      1.8745                 3.3175                 1.3977

                     34                     35                     36
                      A                      A                      A
 Frequencies --   1342.3989              1390.4533              1445.6287
 Red. masses --      1.7266                 1.6157                 1.0907
 Frc consts  --      1.8332                 1.8404                 1.3430
 IR Inten    --      0.2912                 2.1120                12.7309

                     37                     38                     39
                      A                      A                      A
 Frequencies --   1449.6870              1495.8569              1513.5622
 Red. masses --      1.0834                 1.0910                 1.0824
 Frc consts  --      1.3415                 1.4383                 1.4610
 IR Inten    --      4.7281                 2.1999                 1.4784

                     40                     41                     42
                      A                      A                      A
 Frequencies --   1536.6288              1851.2709              2993.5015
 Red. masses --      1.1094                12.7123                 1.0522
 Frc consts  --      1.5434                25.6694                 5.5554
 IR Inten    --      0.8504               228.1160               120.3990

                     43                     44                     45
                      A                      A                      A
 Frequencies --   3004.9984              3020.1922              3029.3875
 Red. masses --      1.0577                 1.0686                 1.0704
 Frc consts  --      5.6272                 5.7432                 5.7876
 IR Inten    --      4.0330                 7.1122                 8.1169

                     46                     47                     48
                      A                      A                      A
 Frequencies --   3035.1955              3040.9448              3043.1937
 Red. masses --      1.0660                 1.1097                 1.1098
 Frc consts  --      5.7862                 6.0459                 6.0554
 IR Inten    --     19.4842                20.5154                69.1855

                     49                     50                     51
                      A                      A                      A
 Frequencies --   3092.9784              3103.3861              3110.9806
 Red. masses --      1.0972                 1.0932                 1.0948
 Frc consts  --      6.1843                 6.2031                 6.2427
 IR Inten    --     22.0504                 8.3724                11.7611

 - Thermochemistry -
 -------------------
 Temperature   298.150 Kelvin.  Pressure   1.00000 Atm.
 Atom     1 has atomic number  8 and mass  15.99491

 Molecular mass:   126.06808 amu.
 Principal axes and moments of inertia in atomic units:
                           1         2         3
     Eigenvalues --   483.497851642.430441774.68581
           X            0.99987  -0.01505  -0.00621
           Y            0.01522   0.99948   0.02857
           Z            0.00578  -0.02866   0.99957
 This molecule is an asymmetric top.
 Rotational symmetry number  1.
 Warning -- assumption of classical behavior for rotation
           may cause significant error
 Rotational temperatures (Kelvin)      0.17914     0.05274     0.04881
 Rotational constants (GHZ):           3.73268     1.09882     1.01694
 Zero-point vibrational energy     418869.2 (Joules/Mol)
                                  100.11215 (Kcal/Mol)
 Warning -- explicit consideration of  10 degrees of freedom as
           vibrations may cause significant error
 Vibrational temperatures:     74.21   101.74   193.84   371.19   516.95
          (Kelvin)            532.83   617.67   671.57   712.09   832.13
                             1025.32  1060.82  1167.12  1229.47  1273.98
                             1319.73  1364.14  1412.81  1427.78  1435.33
                             1481.79  1504.31  1597.90  1661.35  1674.19
                             1676.20  1688.54  1737.07  1790.21  1832.97
                             1849.80  1882.72  1890.59  1931.41  2000.55
                             2079.93  2085.77  2152.20  2177.68  2210.86
                             2663.56  4306.98  4323.52  4345.38  4358.61
                             4366.96  4375.24  4378.47  4450.10  4465.07
                             4476.00

 Zero-point correction=                           0.159539 (Hartree/Particle)
 Thermal correction to Energy=                    0.167661
 Thermal correction to Enthalpy=                  0.168606
 Thermal correction to Gibbs Free Energy=         0.125906
 Sum of electronic and zero-point Energies=           -423.037433
 Sum of electronic and thermal Energies=              -423.029311
 Sum of electronic and thermal Enthalpies=            -423.028367
 Sum of electronic and thermal Free Energies=         -423.071066

                     E (Thermal)             CV                S
                      KCal/Mol        Cal/Mol-Kelvin    Cal/Mol-Kelvin
 Total                  105.209             30.591             89.868
 Electronic               0.000              0.000              0.000
 Translational            0.889              2.981             40.409
 Rotational               0.889              2.981             28.735
 Vibrational            103.432             24.629             20.725
 Vibration     1          0.596              1.977              4.756
 Vibration     2          0.598              1.968              4.134
 Vibration     3          0.613              1.919              2.877
 Vibration     4          0.667              1.749              1.675
 Vibration     5          0.734              1.556              1.125
 Vibration     6          0.742              1.533              1.078
 Vibration     7          0.791              1.406              0.861
 Vibration     8          0.824              1.324              0.747
 Vibration     9          0.851              1.261              0.671
 Vibration    10          0.935              1.078              0.488

 Optimization completed.
    -- Stationary point found.
 Normal termination of Gaussian 09 at Mon Jan 27 13:50:06 2020.
