 Gaussian 09, Revision D.01,
 Gaussian 09:  ES64L-G09RevD.01 24-Apr-2013

 -----------------------------
 # b3lyp 6-31G(2df,p) opt Freq
 -----------------------------

 -----
 titel
 -----
 Symbolic Z-matrix:
 Charge =  0 Multiplicity = 1

 SCF Done:  E(RB3LYP) =  -423.124703330     A.U. after   14 cycles
 Optimization completed.
    -- Stationary point found.
 Normal termination of Gaussian 09 at Tue Jan 28 02:58:39 2020.

 ----------------------------------------------------------------------
 #N Geom=AllCheck Guess=TCheck SCRF=Check GenChk RB3LYP/6-31G(2df,p) Fr
 eq
 ----------------------------------------------------------------------

 Structure from the checkpoint file:  "/scratch/puck/g09_d36cadc5-1ec6-488a-833c-a875767ccd0e/Gau-77852.chk"
 -----
 titel
 -----
 Charge =  0 Multiplicity = 1

                         Standard orientation:
 ---------------------------------------------------------------------
 Center     Atomic      Atomic             Coordinates (Angstroms)
 Number     Number       Type             X           Y           Z
 ---------------------------------------------------------------------
      1          6           0       -2.323857   -0.255831    0.853967
      2          6           0       -1.571056    0.041202   -0.445944
      3          6           0       -0.766208    1.354965   -0.382839
      4          6           0        0.652267    1.103222    0.122012
      5          6           0        0.934738   -0.174010    0.967668
      6          8           0        2.327221   -0.169562    0.492831
      7          6           0        1.526436    0.129208   -0.708345
      8          6           0        0.565222   -1.022813   -0.291186
      9          8           0       -0.734750   -1.074093   -0.791354
     10          1           0       -1.654885   -0.265964    1.720352
     11          1           0       -3.091868    0.504263    1.031621
     12          1           0       -2.810171   -1.232477    0.787470
     13          1           0       -2.301045    0.096942   -1.259700
     14          1           0       -0.710894    1.820245   -1.374143
     15          1           0       -1.287105    2.065434    0.267677
     16          1           0        1.182495    1.994139    0.465226
     17          1           0        0.771475   -0.367191    2.028642
     18          1           0        2.056178    0.300230   -1.646174
     19          1           0        1.000806   -2.022046   -0.324786
 ---------------------------------------------------------------------

 SCF Done:  E(RB3LYP) =  -423.124703330     A.U. after    1 cycles

 The electronic state is 1-A.
 Alpha  occ. eigenvalues --  -19.14479 -19.13502 -10.24385 -10.24020 -10.23942
 Alpha  occ. eigenvalues --  -10.23896 -10.20042 -10.19148 -10.17976  -1.06698
 Alpha  occ. eigenvalues --   -1.03142  -0.80526  -0.77992  -0.70216  -0.65371
 Alpha  occ. eigenvalues --   -0.64501  -0.61586  -0.52261  -0.50861  -0.48561
 Alpha  occ. eigenvalues --   -0.47788  -0.45209  -0.42109  -0.41075  -0.39898
 Alpha  occ. eigenvalues --   -0.38541  -0.37955  -0.36348  -0.34736  -0.33531
 Alpha  occ. eigenvalues --   -0.31259  -0.30191  -0.25214  -0.23415
 Alpha virt. eigenvalues --    0.06811   0.10520   0.11164   0.11801   0.11933
 Alpha virt. eigenvalues --    0.13145   0.13894   0.14528   0.15323   0.16848
 Alpha virt. eigenvalues --    0.17115   0.18029   0.18439   0.20224   0.21249

 Mulliken charges:
               1
     1  C   -0.392273
     2  C    0.128044
     3  C   -0.280191
     4  C   -0.011453
     5  C   -0.017208
     6  O   -0.308446
     7  C    0.011963
     8  C    0.126867
     9  O   -0.282141
    10  H    0.121270
    11  H    0.114982
    12  H    0.127460
    13  H    0.086718
    14  H    0.108145
    15  H    0.107691
    16  H    0.080569
    17  H    0.090209
    18  H    0.090245
    19  H    0.097548
 Sum of Mulliken charges =   0.00000

 Dipole moment (field-independent basis, Debye):
    X=             -1.7956    Y=              1.3596    Z=              0.0179  Tot=              2.2523
 Quadrupole moment (field-independent basis, Debye-Ang):
   XX=            -57.4642   YY=            -53.0510   ZZ=            -51.7856
   XY=             -1.0296   XZ=             -2.9312   YZ=             -1.5631

  Exact polarizability:  82.296  -1.655  70.582  -1.880  -1.602  68.798
 Approx polarizability: 114.517  -2.635 105.516   0.709  -0.646 108.543

                      1                      2                      3
                      A                      A                      A
 Frequencies --    120.8894               205.3026               235.4240
 Red. masses --      3.3097                 1.8162                 1.2505
 Frc consts  --      0.0285                 0.0451                 0.0408
 IR Inten    --      0.1165                 0.1419                 0.1165

                      4                      5                      6
                      A                      A                      A
 Frequencies --    357.7115               363.2211               423.4166
 Red. masses --      2.2147                 3.1685                 4.9926
 Frc consts  --      0.1670                 0.2463                 0.5274
 IR Inten    --      0.3611                 0.1946                 6.9307

                      7                      8                      9
                      A                      A                      A
 Frequencies --    465.4848               544.4267               585.1940
 Red. masses --      4.4116                 3.6121                 6.8434
 Frc consts  --      0.5632                 0.6308                 1.3808
 IR Inten    --      5.2009                 1.3250                 1.3883

                     10                     11                     12
                      A                      A                      A
 Frequencies --    737.7916               757.7453               807.1010
 Red. masses --      4.6170                 4.0181                 2.3941
 Frc consts  --      1.4807                 1.3593                 0.9188
 IR Inten    --      2.4580                12.4437                 0.8204

                     13                     14                     15
                      A                      A                      A
 Frequencies --    820.7220               857.8384               887.2809
 Red. masses --      2.8405                 2.2793                 3.2186
 Frc consts  --      1.1273                 0.9882                 1.4929
 IR Inten    --      7.7787                10.4256                 2.4121

                     16                     17                     18
                      A                      A                      A
 Frequencies --    894.1104               927.3373               935.1054
 Red. masses --      2.9174                 1.9533                 1.7960
 Frc consts  --      1.3741                 0.9897                 0.9253
 IR Inten    --     18.6802                 8.0039                 8.7106

                     19                     20                     21
                      A                      A                      A
 Frequencies --    990.6419              1014.0427              1039.8793
 Red. masses --      2.5921                 1.2587                 1.8333
 Frc consts  --      1.4988                 0.7626                 1.1680
 IR Inten    --      8.2581                 1.6761                 2.6805

                     22                     23                     24
                      A                      A                      A
 Frequencies --   1082.3251              1106.7696              1119.8728
 Red. masses --      2.6329                 1.5966                 3.3083
 Frc consts  --      1.8172                 1.1523                 2.4445
 IR Inten    --      1.8737                 3.2444                70.5603

                     25                     26                     27
                      A                      A                      A
 Frequencies --   1147.0733              1150.4645              1160.9047
 Red. masses --      2.5620                 1.3568                 2.6436
 Frc consts  --      1.9862                 1.0581                 2.0992
 IR Inten    --     34.9223                 4.1570                81.2350

                     28                     29                     30
                      A                      A                      A
 Frequencies --   1189.0466              1208.8560              1249.2709
 Red. masses --      1.4105                 1.5123                 1.7164
 Frc consts  --      1.1750                 1.3021                 1.5782
 IR Inten    --      0.7178                 5.2645                 8.0427

                     31                     32                     33
                      A                      A                      A
 Frequencies --   1267.3851              1278.1775              1296.9474
 Red. masses --      1.4451                 1.5833                 1.5090
 Frc consts  --      1.3676                 1.5241                 1.4955
 IR Inten    --      4.3821                19.4543                30.8802

                     34                     35                     36
                      A                      A                      A
 Frequencies --   1354.9891              1372.1501              1383.1042
 Red. masses --      1.5603                 1.3021                 1.5260
 Frc consts  --      1.6878                 1.4444                 1.7199
 IR Inten    --     19.1143                10.9591                 3.1779

                     37                     38                     39
                      A                      A                      A
 Frequencies --   1407.7186              1410.0061              1484.9347
 Red. masses --      1.2819                 1.4362                 1.0640
 Frc consts  --      1.4967                 1.6823                 1.3824
 IR Inten    --     13.1667                17.6010                 2.1400

                     40                     41                     42
                      A                      A                      A
 Frequencies --   1494.5032              1495.8784              3031.5171
 Red. masses --      1.0701                 1.0554                 1.0630
 Frc consts  --      1.4082                 1.3915                 5.7556
 IR Inten    --      0.2267                 4.5844                17.8206

                     43                     44                     45
                      A                      A                      A
 Frequencies --   3039.4071              3054.5380              3074.9395
 Red. masses --      1.0373                 1.0835                 1.1013
 Frc consts  --      5.6458                 5.9561                 6.1354
 IR Inten    --     10.4193                36.4616                20.5591

                     46                     47                     48
                      A                      A                      A
 Frequencies --   3094.0213              3106.2283              3110.4608
 Red. masses --      1.0859                 1.0930                 1.0971
 Frc consts  --      6.1249                 6.2136                 6.2540
 IR Inten    --     26.6579                58.5083                50.6027

                     49                     50                     51
                      A                      A                      A
 Frequencies --   3112.6654              3123.3460              3125.8328
 Red. masses --      1.0893                 1.1017                 1.0960
 Frc consts  --      6.2180                 6.3322                 6.3093
 IR Inten    --     29.0438                25.3907                21.1047

 - Thermochemistry -
 -------------------
 Temperature   298.150 Kelvin.  Pressure   1.00000 Atm.
 Atom     1 has atomic number  6 and mass  12.00000

 Molecular mass:   126.06808 amu.
 Principal axes and moments of inertia in atomic units:
                           1         2         3
     Eigenvalues --   527.666681211.864851309.10854
           X            0.99955  -0.00988  -0.02833
           Y            0.00719   0.99561  -0.09336
           Z            0.02913   0.09312   0.99523
 This molecule is an asymmetric top.
 Rotational symmetry number  1.
 Warning -- assumption of classical behavior for rotation
           may cause significant error
 Rotational temperatures (Kelvin)      0.16414     0.07147     0.06616
 Rotational constants (GHZ):           3.42023     1.48923     1.37860
 Zero-point vibrational energy     421707.6 (Joules/Mol)
                                  100.79053 (Kcal/Mol)
 Warning -- explicit consideration of   9 degrees of freedom as
           vibrations may cause significant error
 Vibrational temperatures:    173.93   295.38   338.72   514.67   522.59
          (Kelvin)            609.20   669.73   783.31   841.96  1061.52
                             1090.23  1161.24  1180.83  1234.24  1276.60
                             1286.42  1334.23  1345.41  1425.31  1458.98
                             1496.15  1557.22  1592.39  1611.25  1650.38
                             1655.26  1670.28  1710.77  1739.27  1797.42
                             1823.48  1839.01  1866.02  1949.52  1974.22
                             1989.98  2025.39  2028.68  2136.49  2150.25
                             2152.23  4361.67  4373.02  4394.79  4424.15
                             4451.60  4469.16  4475.25  4478.43  4493.79
                             4497.37

 Zero-point correction=                           0.160620 (Hartree/Particle)
 Thermal correction to Energy=                    0.167795
 Thermal correction to Enthalpy=                  0.168739
 Thermal correction to Gibbs Free Energy=         0.129266
 Sum of electronic and zero-point Energies=           -422.964083
 Sum of electronic and thermal Energies=              -422.956908
 Sum of electronic and thermal Enthalpies=            -422.955964
 Sum of electronic and thermal Free Energies=         -422.995437

                     E (Thermal)             CV                S
                      KCal/Mol        Cal/Mol-Kelvin    Cal/Mol-Kelvin
 Total                  105.293             29.303             83.079
 Electronic               0.000              0.000              0.000
 Translational            0.889              2.981             40.409
 Rotational               0.889              2.981             28.217
 Vibrational            103.516             23.342             14.453
 Vibration     1          0.609              1.932              3.086
 Vibration     2          0.640              1.832              2.085
 Vibration     3          0.655              1.787              1.837
 Vibration     4          0.733              1.559              1.132
 Vibration     5          0.737              1.548              1.108
 Vibration     6          0.786              1.419              0.880
 Vibration     7          0.823              1.327              0.750
 Vibration     8          0.900              1.152              0.556
 Vibration     9          0.942              1.063              0.476

 Normal termination of Gaussian 09 at Tue Jan 28 03:44:18 2020.
