 Gaussian 09, Revision D.01,
 Gaussian 09:  ES64L-G09RevD.01 24-Apr-2013

 -----------------------------
 # b3lyp 6-31G(2df,p) opt Freq
 -----------------------------

 -----
 titel
 -----
 Symbolic Z-matrix:
 Charge =  0 Multiplicity = 1

 SCF Done:  E(RB3LYP) =  -423.148414385     A.U. after   13 cycles
 Optimization completed.
    -- Stationary point found.
 Normal termination of Gaussian 09 at Mon Jan 27 11:15:42 2020.

 ----------------------------------------------------------------------
 #N Geom=AllCheck Guess=TCheck SCRF=Check GenChk RB3LYP/6-31G(2df,p) Fr
 eq
 ----------------------------------------------------------------------

 Structure from the checkpoint file:  "/scratch/puck/g09_3ee21fc3-a531-4e66-b099-a26128152783/Gau-68779.chk"
 -----
 titel
 -----
 Charge =  0 Multiplicity = 1

                         Standard orientation:
 ---------------------------------------------------------------------
 Center     Atomic      Atomic             Coordinates (Angstroms)
 Number     Number       Type             X           Y           Z
 ---------------------------------------------------------------------
      1          6           0       -2.097221   -0.461304   -0.429442
      2          6           0       -1.391277    0.501433    0.487216
      3          8           0       -0.643535    1.499698   -0.144623
      4          6           0        0.731417    1.601104    0.159919
      5          6           0        1.539834    0.333759   -0.218935
      6          6           0        1.519835   -0.816157    0.808260
      7          6           0        0.378958   -1.347801   -0.084276
      8          8           0        0.807751   -0.482037   -1.166551
      9          6           0       -0.977619   -0.955286    0.453197
     10          1           0       -3.114818   -0.764664   -0.210887
     11          1           0       -1.858144   -0.331559   -1.478943
     12          1           0       -1.912609    0.849914    1.378937
     13          1           0        1.077894    2.454538   -0.430742
     14          1           0        0.904528    1.838045    1.223032
     15          1           0        2.523369    0.620450   -0.605831
     16          1           0        2.421536   -1.430171    0.767196
     17          1           0        1.276984   -0.573736    1.845261
     18          1           0        0.411179   -2.401673   -0.380837
     19          1           0       -1.267215   -1.536915    1.326574
 ---------------------------------------------------------------------

 SCF Done:  E(RB3LYP) =  -423.148414385     A.U. after    1 cycles

 The electronic state is 1-A.
 Alpha  occ. eigenvalues --  -19.13965 -19.13266 -10.23826 -10.23551 -10.23234
 Alpha  occ. eigenvalues --  -10.22816 -10.19107 -10.18726 -10.17971  -1.05116
 Alpha  occ. eigenvalues --   -1.02254  -0.85148  -0.75751  -0.71910  -0.67664
 Alpha  occ. eigenvalues --   -0.59884  -0.55722  -0.54804  -0.52330  -0.49663
 Alpha  occ. eigenvalues --   -0.48745  -0.45148  -0.43716  -0.42060  -0.41203
 Alpha  occ. eigenvalues --   -0.38883  -0.37047  -0.36131  -0.32954  -0.30823
 Alpha  occ. eigenvalues --   -0.29793  -0.26424  -0.25422  -0.24442
 Alpha virt. eigenvalues --    0.07068   0.09681   0.09699   0.10947   0.12711
 Alpha virt. eigenvalues --    0.13412   0.14821   0.15726   0.16583   0.16862
 Alpha virt. eigenvalues --    0.17210   0.18549   0.19955   0.21134   0.22805

 Mulliken charges:
               1
     1  C   -0.319843
     2  C    0.096603
     3  O   -0.235764
     4  C   -0.096114
     5  C    0.089800
     6  C   -0.265300
     7  C    0.073028
     8  O   -0.278026
     9  C   -0.050733
    10  H    0.109272
    11  H    0.138640
    12  H    0.084430
    13  H    0.112677
    14  H    0.087012
    15  H    0.080416
    16  H    0.106826
    17  H    0.099882
    18  H    0.079302
    19  H    0.087891
 Sum of Mulliken charges =   0.00000

 Dipole moment (field-independent basis, Debye):
    X=              0.7739    Y=             -0.7903    Z=              2.1159  Tot=              2.3876
 Quadrupole moment (field-independent basis, Debye-Ang):
   XX=            -49.8187   YY=            -52.8828   ZZ=            -54.5028
   XY=              2.9242   XZ=             -0.0765   YZ=             -0.4285

  Exact polarizability:  83.022   3.965  74.813   0.933  -0.441  64.667
 Approx polarizability: 110.338   4.705 108.190   1.627  -1.260 103.222

                      1                      2                      3
                      A                      A                      A
 Frequencies --    164.1569               187.3404               323.2197
 Red. masses --      2.4285                 3.3927                 4.7638
 Frc consts  --      0.0386                 0.0702                 0.2932
 IR Inten    --      0.1580                 3.6209                 2.8834

                      4                      5                      6
                      A                      A                      A
 Frequencies --    333.8118               386.1058               400.1998
 Red. masses --      2.7786                 2.8831                 3.6128
 Frc consts  --      0.1824                 0.2532                 0.3409
 IR Inten    --      1.0947                 0.9052                 0.7917

                      7                      8                      9
                      A                      A                      A
 Frequencies --    478.6397               603.4919               712.2761
 Red. masses --      2.9266                 3.5882                 3.1109
 Frc consts  --      0.3950                 0.7700                 0.9299
 IR Inten    --      2.5409                 9.0017                 7.0562

                     10                     11                     12
                      A                      A                      A
 Frequencies --    740.9534               771.5446               805.2647
 Red. masses --      2.4355                 2.6530                 2.4813
 Frc consts  --      0.7878                 0.9305                 0.9480
 IR Inten    --      6.1472                 2.2174                13.6789

                     13                     14                     15
                      A                      A                      A
 Frequencies --    840.7446               891.0463               916.9700
 Red. masses --      1.4198                 3.6441                 2.1213
 Frc consts  --      0.5913                 1.7047                 1.0509
 IR Inten    --      7.4480                19.2786                11.3570

                     16                     17                     18
                      A                      A                      A
 Frequencies --    923.7327               952.6954               983.3920
 Red. masses --      2.5349                 2.8578                 2.2541
 Frc consts  --      1.2744                 1.5282                 1.2843
 IR Inten    --      2.4162                22.9876                11.9199

                     19                     20                     21
                      A                      A                      A
 Frequencies --   1013.5297              1015.1215              1067.4309
 Red. masses --      2.5909                 2.9620                 1.3552
 Frc consts  --      1.5681                 1.7983                 0.9098
 IR Inten    --     16.2126                 6.3366                11.2433

                     22                     23                     24
                      A                      A                      A
 Frequencies --   1075.2497              1105.7769              1113.5395
 Red. masses --      2.1313                 1.9207                 1.7481
 Frc consts  --      1.4518                 1.3837                 1.2771
 IR Inten    --      5.1992                30.4082                16.7466

                     25                     26                     27
                      A                      A                      A
 Frequencies --   1123.8185              1130.9433              1150.8308
 Red. masses --      1.8811                 1.5197                 1.3679
 Frc consts  --      1.3998                 1.1452                 1.0674
 IR Inten    --      5.5169                 5.2886                 3.4132

                     28                     29                     30
                      A                      A                      A
 Frequencies --   1187.8696              1224.8337              1241.0029
 Red. masses --      1.8104                 1.4093                 1.8238
 Frc consts  --      1.5051                 1.2457                 1.6549
 IR Inten    --     38.5956                 7.8226                31.9754

                     31                     32                     33
                      A                      A                      A
 Frequencies --   1261.1491              1283.9926              1325.7830
 Red. masses --      1.4866                 1.4650                 1.2717
 Frc consts  --      1.3930                 1.4230                 1.3170
 IR Inten    --      7.8064                26.7641                 2.1397

                     34                     35                     36
                      A                      A                      A
 Frequencies --   1348.6622              1360.6949              1382.6231
 Red. masses --      1.4644                 1.4075                 1.3848
 Frc consts  --      1.5694                 1.5354                 1.5597
 IR Inten    --      6.4855                 5.7655                19.5278

                     37                     38                     39
                      A                      A                      A
 Frequencies --   1399.2771              1412.4591              1474.7385
 Red. masses --      1.6782                 1.3147                 1.4520
 Frc consts  --      1.9360                 1.5454                 1.8605
 IR Inten    --      2.6535                 9.8017                10.6330

                     40                     41                     42
                      A                      A                      A
 Frequencies --   1486.5267              1497.9750              2967.5434
 Red. masses --      1.1199                 1.1336                 1.0704
 Frc consts  --      1.4581                 1.4987                 5.5540
 IR Inten    --      2.6340                 6.8892                63.0754

                     43                     44                     45
                      A                      A                      A
 Frequencies --   3046.9127              3047.9994              3069.8397
 Red. masses --      1.0853                 1.0857                 1.0623
 Frc consts  --      5.9364                 5.9425                 5.8982
 IR Inten    --     51.7278                33.0873                36.4358

                     46                     47                     48
                      A                      A                      A
 Frequencies --   3081.2319              3095.4470              3124.9367
 Red. masses --      1.0920                 1.0871                 1.0873
 Frc consts  --      6.1082                 6.1373                 6.2560
 IR Inten    --     48.5483                34.9532                18.0450

                     49                     50                     51
                      A                      A                      A
 Frequencies --   3127.1980              3139.1994              3233.8086
 Red. masses --      1.1077                 1.0561                 1.1170
 Frc consts  --      6.3823                 6.1321                 6.8822
 IR Inten    --     29.1365                12.9296                 5.7224

 - Thermochemistry -
 -------------------
 Temperature   298.150 Kelvin.  Pressure   1.00000 Atm.
 Atom     1 has atomic number  6 and mass  12.00000

 Molecular mass:   126.06808 amu.
 Principal axes and moments of inertia in atomic units:
                           1         2         3
     Eigenvalues --   679.24121 908.155781226.86448
           X            0.99795   0.06225   0.01451
           Y           -0.06216   0.99804  -0.00683
           Z           -0.01490   0.00591   0.99987
 This molecule is an asymmetric top.
 Rotational symmetry number  1.
 Warning -- assumption of classical behavior for rotation
           may cause significant error
 Rotational temperatures (Kelvin)      0.12752     0.09537     0.07060
 Rotational constants (GHZ):           2.65700     1.98726     1.47102
 Zero-point vibrational energy     424874.9 (Joules/Mol)
                                  101.54753 (Kcal/Mol)
 Warning -- explicit consideration of   8 degrees of freedom as
           vibrations may cause significant error
 Vibrational temperatures:    236.18   269.54   465.04   480.28   555.52
          (Kelvin)            575.80   688.65   868.29  1024.81  1066.07
                             1110.08  1158.59  1209.64  1282.02  1319.31
                             1329.04  1370.71  1414.88  1458.24  1460.53
                             1535.79  1547.04  1590.96  1602.13  1616.92
                             1627.17  1655.79  1709.08  1762.26  1785.52
                             1814.51  1847.38  1907.50  1940.42  1957.73
                             1989.28  2013.25  2032.21  2121.82  2138.78
                             2155.25  4269.63  4383.82  4385.39  4416.81
                             4433.20  4453.65  4496.08  4499.33  4516.60
                             4652.72

 Zero-point correction=                           0.161826 (Hartree/Particle)
 Thermal correction to Energy=                    0.168714
 Thermal correction to Enthalpy=                  0.169658
 Thermal correction to Gibbs Free Energy=         0.130856
 Sum of electronic and zero-point Energies=           -422.986588
 Sum of electronic and thermal Energies=              -422.979701
 Sum of electronic and thermal Enthalpies=            -422.978757
 Sum of electronic and thermal Free Energies=         -423.017559

                     E (Thermal)             CV                S
                      KCal/Mol        Cal/Mol-Kelvin    Cal/Mol-Kelvin
 Total                  105.869             28.483             81.666
 Electronic               0.000              0.000              0.000
 Translational            0.889              2.981             40.409
 Rotational               0.889              2.981             28.117
 Vibrational            104.092             22.521             13.141
 Vibration     1          0.623              1.886              2.501
 Vibration     2          0.632              1.857              2.254
 Vibration     3          0.708              1.629              1.294
 Vibration     4          0.715              1.608              1.242
 Vibration     5          0.755              1.500              1.015
 Vibration     6          0.766              1.470              0.962
 Vibration     7          0.835              1.297              0.714
 Vibration     8          0.962              1.024              0.444

 Optimization completed.
    -- Stationary point found.
 Normal termination of Gaussian 09 at Mon Jan 27 12:04:54 2020.
