 Gaussian 09, Revision D.01,
 Gaussian 09:  ES64L-G09RevD.01 24-Apr-2013

 -----------------------------
 # b3lyp 6-31G(2df,p) opt Freq
 -----------------------------

 -----
 titel
 -----
 Symbolic Z-matrix:
 Charge =  0 Multiplicity = 1

 SCF Done:  E(RB3LYP) =  -423.162527707     A.U. after   13 cycles
 SCF Done:  E(RB3LYP) =  -423.162527650     A.U. after    6 cycles
 Optimization completed.
    -- Stationary point found.
 Normal termination of Gaussian 09 at Tue Jan 28 03:47:04 2020.

 ----------------------------------------------------------------------
 #N Geom=AllCheck Guess=TCheck SCRF=Check GenChk RB3LYP/6-31G(2df,p) Fr
 eq
 ----------------------------------------------------------------------

 Structure from the checkpoint file:  "/scratch/puck/g09_946d407b-fd62-47ba-9eed-1a8268c7c532/Gau-8578.chk"
 -----
 titel
 -----
 Charge =  0 Multiplicity = 1

                         Standard orientation:
 ---------------------------------------------------------------------
 Center     Atomic      Atomic             Coordinates (Angstroms)
 Number     Number       Type             X           Y           Z
 ---------------------------------------------------------------------
      1          8           0       -2.205260    0.208006   -0.488491
      2          6           0       -1.144252    0.665994    0.331415
      3          6           0       -0.652046   -0.435995    1.313530
      4          6           0        0.491851   -1.161954    0.617329
      5          8           0        0.077034   -1.390376   -0.778396
      6          6           0        0.758040   -0.165673   -1.118008
      7          6           0        1.624044   -0.176743    0.152618
      8          6           0        1.309396    1.310549    0.397585
      9          6           0        0.059783    1.119121   -0.515271
     10          1           0       -1.867118   -0.591942   -0.913566
     11          1           0       -1.545246    1.518809    0.888637
     12          1           0       -0.313745   -0.015612    2.266924
     13          1           0       -1.482495   -1.115165    1.526600
     14          1           0        0.803539   -2.094089    1.093392
     15          1           0        1.111705   -0.134795   -2.149448
     16          1           0        2.641001   -0.565227    0.200409
     17          1           0        1.142850    1.662117    1.420053
     18          1           0        2.068630    1.943715   -0.069594
     19          1           0       -0.214199    1.919346   -1.203503
 ---------------------------------------------------------------------

 SCF Done:  E(RB3LYP) =  -423.162527650     A.U. after    1 cycles

 The electronic state is 1-A.
 Alpha  occ. eigenvalues --  -19.14262 -19.11841 -10.24310 -10.23789 -10.22946
 Alpha  occ. eigenvalues --  -10.19578 -10.19011 -10.18771 -10.18269  -1.05173
 Alpha  occ. eigenvalues --   -1.00235  -0.84700  -0.76248  -0.71479  -0.64867
 Alpha  occ. eigenvalues --   -0.61239  -0.60029  -0.54092  -0.50157  -0.49357
 Alpha  occ. eigenvalues --   -0.46691  -0.44838  -0.44042  -0.40374  -0.39642
 Alpha  occ. eigenvalues --   -0.37867  -0.37580  -0.36229  -0.34617  -0.31554
 Alpha  occ. eigenvalues --   -0.30222  -0.29055  -0.25343  -0.24197
 Alpha virt. eigenvalues --    0.07039   0.08620   0.10435   0.12254   0.12743
 Alpha virt. eigenvalues --    0.13946   0.14692   0.14978   0.16044   0.16653
 Alpha virt. eigenvalues --    0.16915   0.18683   0.19296   0.20973   0.21504

 Mulliken charges:
               1
     1  O   -0.447745
     2  C    0.157485
     3  C   -0.267665
     4  C    0.092954
     5  O   -0.322180
     6  C    0.119889
     7  C   -0.071477
     8  C   -0.265256
     9  C   -0.096366
    10  H    0.284127
    11  H    0.079905
    12  H    0.103672
    13  H    0.113546
    14  H    0.081751
    15  H    0.082390
    16  H    0.075150
    17  H    0.099584
    18  H    0.106070
    19  H    0.074167
 Sum of Mulliken charges =   0.00000

 Dipole moment (field-independent basis, Debye):
    X=              2.3576    Y=              0.4278    Z=              1.0411  Tot=              2.6125
 Quadrupole moment (field-independent basis, Debye-Ang):
   XX=            -57.2928   YY=            -53.2895   ZZ=            -50.9781
   XY=              1.3271   XZ=             -1.5828   YZ=             -1.5216

  Exact polarizability:  74.694   0.748  72.028  -0.832  -1.696  70.544
 Approx polarizability: 106.377   1.424 108.166   2.086   0.724 108.083

                      1                      2                      3
                      A                      A                      A
 Frequencies --    191.4363               292.7857               360.9487
 Red. masses --      4.4332                 3.9619                 2.3203
 Frc consts  --      0.0957                 0.2001                 0.1781
 IR Inten    --      4.4586                 1.5070                 0.1577

                      4                      5                      6
                      A                      A                      A
 Frequencies --    414.8595               435.4368               463.9769
 Red. masses --      3.6637                 2.5853                 3.2491
 Frc consts  --      0.3715                 0.2888                 0.4121
 IR Inten    --      0.2055                 4.5493                 5.7670

                      7                      8                      9
                      A                      A                      A
 Frequencies --    571.3398               604.4941               700.6817
 Red. masses --      1.2076                 3.3153                 3.7251
 Frc consts  --      0.2322                 0.7138                 1.0775
 IR Inten    --     46.5478                27.0386                 3.1936

                     10                     11                     12
                      A                      A                      A
 Frequencies --    718.0293               772.1459               794.8471
 Red. masses --      4.8329                 2.4409                 3.1493
 Frc consts  --      1.4681                 0.8574                 1.1723
 IR Inten    --      2.3479                 2.4861                 9.1829

                     13                     14                     15
                      A                      A                      A
 Frequencies --    829.7011               855.3695               872.9152
 Red. masses --      2.5706                 1.9004                 2.3214
 Frc consts  --      1.0426                 0.8192                 1.0422
 IR Inten    --     14.3150                 1.3945                 4.8656

                     16                     17                     18
                      A                      A                      A
 Frequencies --    929.9050               941.3013               966.8103
 Red. masses --      2.3324                 2.0500                 1.8282
 Frc consts  --      1.1883                 1.0702                 1.0069
 IR Inten    --     24.2616                 1.4034                 2.9088

                     19                     20                     21
                      A                      A                      A
 Frequencies --    986.1644               994.3781              1037.0502
 Red. masses --      3.6520                 3.2739                 2.3119
 Frc consts  --      2.0926                 1.9073                 1.4649
 IR Inten    --     31.5453                16.9695                 3.0562

                     22                     23                     24
                      A                      A                      A
 Frequencies --   1045.1293              1057.2116              1090.5728
 Red. masses --      1.7850                 2.0710                 1.7417
 Frc consts  --      1.1487                 1.3638                 1.2205
 IR Inten    --     35.4417                39.7641                32.0430

                     25                     26                     27
                      A                      A                      A
 Frequencies --   1107.8116              1139.1735              1172.4108
 Red. masses --      1.6068                 1.6525                 1.2531
 Frc consts  --      1.1618                 1.2635                 1.0148
 IR Inten    --     14.4769                 3.9369                37.9224

                     28                     29                     30
                      A                      A                      A
 Frequencies --   1209.9906              1222.2896              1236.6356
 Red. masses --      1.4086                 1.5708                 1.6908
 Frc consts  --      1.2150                 1.3827                 1.5234
 IR Inten    --      2.1275                 3.7063                10.5660

                     31                     32                     33
                      A                      A                      A
 Frequencies --   1256.4625              1282.8403              1300.6343
 Red. masses --      1.3269                 1.6074                 1.5908
 Frc consts  --      1.2342                 1.5585                 1.5855
 IR Inten    --      0.5513                 5.3400                 3.0752

                     34                     35                     36
                      A                      A                      A
 Frequencies --   1313.3608              1324.7893              1341.2408
 Red. masses --      1.4529                 1.5582                 1.6467
 Frc consts  --      1.4766                 1.6113                 1.7453
 IR Inten    --      1.8199                 3.2693                 7.0269

                     37                     38                     39
                      A                      A                      A
 Frequencies --   1358.0505              1362.6789              1451.0309
 Red. masses --      1.5062                 1.4863                 1.2074
 Frc consts  --      1.6367                 1.6261                 1.4978
 IR Inten    --      2.7279                 3.3327                84.8683

                     40                     41                     42
                      A                      A                      A
 Frequencies --   1473.1499              1500.3154              3043.6908
 Red. masses --      1.1113                 1.0992                 1.0664
 Frc consts  --      1.4210                 1.4578                 5.8209
 IR Inten    --      7.2169                 5.2239                 9.7034

                     43                     44                     45
                      A                      A                      A
 Frequencies --   3051.3538              3058.5979              3084.9448
 Red. masses --      1.0626                 1.0774                 1.0906
 Frc consts  --      5.8292                 5.9384                 6.1150
 IR Inten    --     19.3906                56.1230                35.8710

                     46                     47                     48
                      A                      A                      A
 Frequencies --   3097.0458              3098.3887              3102.3050
 Red. masses --      1.1006                 1.0927                 1.1026
 Frc consts  --      6.2199                 6.1804                 6.2521
 IR Inten    --     32.0756                25.8227                 1.6230

                     49                     50                     51
                      A                      A                      A
 Frequencies --   3108.7139              3118.4012              3751.9850
 Red. masses --      1.0888                 1.0935                 1.0650
 Frc consts  --      6.1996                 6.2654                 8.8332
 IR Inten    --     72.0823                41.9099                46.1586

 - Thermochemistry -
 -------------------
 Temperature   298.150 Kelvin.  Pressure   1.00000 Atm.
 Atom     1 has atomic number  8 and mass  15.99491

 Molecular mass:   126.06808 amu.
 Principal axes and moments of inertia in atomic units:
                           1         2         3
     Eigenvalues --   676.86246 937.312411051.39044
           X            0.99923   0.03435  -0.01883
           Y           -0.03547   0.99738  -0.06297
           Z            0.01662   0.06359   0.99784
 This molecule is an asymmetric top.
 Rotational symmetry number  1.
 Warning -- assumption of classical behavior for rotation
           may cause significant error
 Rotational temperatures (Kelvin)      0.12796     0.09241     0.08238
 Rotational constants (GHZ):           2.66633     1.92544     1.71653
 Zero-point vibrational energy     427639.7 (Joules/Mol)
                                  102.20835 (Kcal/Mol)
 Warning -- explicit consideration of   8 degrees of freedom as
           vibrations may cause significant error
 Vibrational temperatures:    275.43   421.25   519.32   596.89   626.50
          (Kelvin)            667.56   822.03   869.73  1008.12  1033.08
                             1110.94  1143.61  1193.75  1230.68  1255.93
                             1337.92  1354.32  1391.02  1418.87  1430.69
                             1492.08  1503.71  1521.09  1569.09  1593.89
                             1639.01  1686.84  1740.90  1758.60  1779.24
                             1807.77  1845.72  1871.32  1889.63  1906.07
                             1929.74  1953.93  1960.59  2087.71  2119.53
                             2158.62  4379.19  4390.21  4400.63  4438.54
                             4455.95  4457.88  4463.52  4472.74  4486.68
                             5398.26

 Zero-point correction=                           0.162879 (Hartree/Particle)
 Thermal correction to Energy=                    0.169343
 Thermal correction to Enthalpy=                  0.170287
 Thermal correction to Gibbs Free Energy=         0.132496
 Sum of electronic and zero-point Energies=           -422.999648
 Sum of electronic and thermal Energies=              -422.993185
 Sum of electronic and thermal Enthalpies=            -422.992241
 Sum of electronic and thermal Free Energies=         -423.030031

                     E (Thermal)             CV                S
                      KCal/Mol        Cal/Mol-Kelvin    Cal/Mol-Kelvin
 Total                  106.264             28.076             79.537
 Electronic               0.000              0.000              0.000
 Translational            0.889              2.981             40.409
 Rotational               0.889              2.981             27.991
 Vibrational            104.487             22.114             11.138
 Vibration     1          0.634              1.852              2.214
 Vibration     2          0.688              1.687              1.458
 Vibration     3          0.735              1.553              1.118
 Vibration     4          0.778              1.438              0.910
 Vibration     5          0.796              1.393              0.841
 Vibration     6          0.822              1.330              0.755
 Vibration     7          0.927              1.093              0.502
 Vibration     8          0.963              1.022              0.442

 Optimization completed.
    -- Stationary point found.
 Normal termination of Gaussian 09 at Tue Jan 28 04:34:16 2020.
