 Gaussian 09, Revision D.01,
 Gaussian 09:  ES64L-G09RevD.01 24-Apr-2013

 -----------------------------
 # b3lyp 6-31G(2df,p) opt Freq
 -----------------------------

 -----
 titel
 -----
 Symbolic Z-matrix:
 Charge =  0 Multiplicity = 1

 SCF Done:  E(RB3LYP) =  -423.200203196     A.U. after   14 cycles
 Optimization completed.
    -- Stationary point found.
 Normal termination of Gaussian 09 at Tue Jan 28 14:07:44 2020.

 ----------------------------------------------------------------------
 #N Geom=AllCheck Guess=TCheck SCRF=Check GenChk RB3LYP/6-31G(2df,p) Fr
 eq
 ----------------------------------------------------------------------

 Structure from the checkpoint file:  "/scratch/puck/g09_f155e1c4-d4cf-4a4b-9a43-636850e1e669/Gau-15565.chk"
 -----
 titel
 -----
 Charge =  0 Multiplicity = 1

                         Standard orientation:
 ---------------------------------------------------------------------
 Center     Atomic      Atomic             Coordinates (Angstroms)
 Number     Number       Type             X           Y           Z
 ---------------------------------------------------------------------
      1          8           0        3.076536   -0.777562   -0.430420
      2          6           0        2.405939    0.452226   -0.191343
      3          6           0        0.924395    0.210694   -0.295327
      4          6           0       -0.022391    1.079095    0.497161
      5          6           0       -1.427348    1.241256   -0.044356
      6          6           0       -1.983425   -0.188149   -0.180462
      7          8           0       -2.972861   -0.494870   -0.790942
      8          6           0       -1.072696   -1.157278    0.593331
      9          6           0        0.193276   -0.379376    0.884141
     10          1           0        4.021576   -0.601613   -0.465277
     11          1           0        2.642220    0.847402    0.810999
     12          1           0        2.710721    1.218099   -0.922335
     13          1           0        0.599396   -0.105795   -1.285449
     14          1           0        0.398411    1.873970    1.102979
     15          1           0       -2.067743    1.785570    0.661878
     16          1           0       -1.498398    1.760693   -1.004995
     17          1           0       -1.591533   -1.441528    1.518183
     18          1           0       -0.926815   -2.074263    0.014373
     19          1           0        0.776264   -0.633891    1.761667
 ---------------------------------------------------------------------

 SCF Done:  E(RB3LYP) =  -423.200203196     A.U. after    1 cycles

 The electronic state is 1-A.
 Alpha  occ. eigenvalues --  -19.13629 -19.12755 -10.26720 -10.23478 -10.19867
 Alpha  occ. eigenvalues --  -10.19564 -10.19422 -10.19206 -10.19014  -1.03905
 Alpha  occ. eigenvalues --   -1.01761  -0.88966  -0.76059  -0.72727  -0.68367
 Alpha  occ. eigenvalues --   -0.58230  -0.56882  -0.53480  -0.50928  -0.49123
 Alpha  occ. eigenvalues --   -0.46753  -0.44882  -0.42627  -0.42395  -0.40900
 Alpha  occ. eigenvalues --   -0.40736  -0.37526  -0.36875  -0.34910  -0.33324
 Alpha  occ. eigenvalues --   -0.29033  -0.27954  -0.26823  -0.23876
 Alpha virt. eigenvalues --   -0.01507   0.07068   0.09637   0.10709   0.11645
 Alpha virt. eigenvalues --    0.12263   0.13574   0.16525   0.16665   0.17106
 Alpha virt. eigenvalues --    0.17691   0.18984   0.19178   0.21415   0.22865

 Mulliken charges:
               1
     1  O   -0.419203
     2  C   -0.111395
     3  C   -0.001707
     4  C   -0.074420
     5  C   -0.337698
     6  C    0.379358
     7  O   -0.304388
     8  C   -0.338813
     9  C   -0.039778
    10  H    0.286688
    11  H    0.080939
    12  H    0.089462
    13  H    0.091527
    14  H    0.085519
    15  H    0.129290
    16  H    0.129687
    17  H    0.128739
    18  H    0.135415
    19  H    0.090779
 Sum of Mulliken charges =   0.00000

 Dipole moment (field-independent basis, Debye):
    X=              2.9775    Y=              1.8311    Z=              1.5841  Tot=              3.8377
 Quadrupole moment (field-independent basis, Debye-Ang):
   XX=            -55.1953   YY=            -53.0708   ZZ=            -52.5362
   XY=              0.4917   XZ=             -4.4503   YZ=             -1.2538

  Exact polarizability:  90.018   0.803  72.881   1.505  -0.954  64.438
 Approx polarizability: 116.651   1.495 108.974   5.136   0.720 102.293

                      1                      2                      3
                      A                      A                      A
 Frequencies --     64.6452                90.1331               148.6667
 Red. masses --      5.8568                 3.3857                 3.7474
 Frc consts  --      0.0144                 0.0162                 0.0488
 IR Inten    --      3.4830                 0.5960                 2.6198

                      4                      5                      6
                      A                      A                      A
 Frequencies --    232.3184               273.9670               288.3192
 Red. masses --      1.5558                 1.3775                 2.0386
 Frc consts  --      0.0495                 0.0609                 0.0998
 IR Inten    --     49.4708                54.3694                 4.1758

                      7                      8                      9
                      A                      A                      A
 Frequencies --    368.1211               444.4478               470.8672
 Red. masses --      3.3302                 3.2007                 2.8687
 Frc consts  --      0.2659                 0.3725                 0.3747
 IR Inten    --      4.2528                12.3074                 3.7594

                     10                     11                     12
                      A                      A                      A
 Frequencies --    496.0628               643.5384               647.2610
 Red. masses --      3.5383                 4.2915                 3.6245
 Frc consts  --      0.5130                 1.0472                 0.8947
 IR Inten    --      2.0897                 0.5878                 0.4784

                     13                     14                     15
                      A                      A                      A
 Frequencies --    770.9199               786.4389               812.2156
 Red. masses --      3.3797                 2.1275                 2.2473
 Frc consts  --      1.1834                 0.7753                 0.8735
 IR Inten    --      4.7761                 8.0627                 0.7883

                     16                     17                     18
                      A                      A                      A
 Frequencies --    857.0266               906.1051               972.2951
 Red. masses --      1.7216                 2.5468                 1.5760
 Frc consts  --      0.7450                 1.2320                 0.8778
 IR Inten    --      9.6236                22.3219                 9.7285

                     19                     20                     21
                      A                      A                      A
 Frequencies --   1007.0884              1016.2013              1058.8769
 Red. masses --      1.5345                 1.6265                 3.1170
 Frc consts  --      0.9169                 0.9896                 2.0591
 IR Inten    --      0.6108                 3.0185                 5.7729

                     22                     23                     24
                      A                      A                      A
 Frequencies --   1071.0882              1081.7911              1091.0584
 Red. masses --      1.6764                 3.4405                 1.1942
 Frc consts  --      1.1332                 2.3722                 0.8376
 IR Inten    --      3.3841                56.4378                16.0716

                     25                     26                     27
                      A                      A                      A
 Frequencies --   1132.7941              1142.9503              1171.3612
 Red. masses --      1.9632                 3.3528                 1.3724
 Frc consts  --      1.4843                 2.5805                 1.1094
 IR Inten    --     35.8554                48.3544                 0.7944

                     28                     29                     30
                      A                      A                      A
 Frequencies --   1198.8260              1213.0369              1252.2874
 Red. masses --      1.4725                 1.2839                 1.1771
 Frc consts  --      1.2468                 1.1131                 1.0876
 IR Inten    --      1.9904                 1.2122                37.7884

                     31                     32                     33
                      A                      A                      A
 Frequencies --   1258.5352              1280.9481              1291.3962
 Red. masses --      1.4498                 1.6601                 1.4853
 Frc consts  --      1.3530                 1.6049                 1.4594
 IR Inten    --      2.3368                19.5481                11.7450

                     34                     35                     36
                      A                      A                      A
 Frequencies --   1328.6497              1339.3967              1438.6569
 Red. masses --      1.2638                 1.6665                 1.7406
 Frc consts  --      1.3144                 1.7614                 2.1225
 IR Inten    --      6.4729                 0.4809                 3.2003

                     37                     38                     39
                      A                      A                      A
 Frequencies --   1449.6209              1457.0645              1479.2164
 Red. masses --      1.0947                 1.1160                 1.9796
 Frc consts  --      1.3553                 1.3960                 2.5521
 IR Inten    --     10.1387                 1.2626                18.6111

                     40                     41                     42
                      A                      A                      A
 Frequencies --   1518.2891              1848.3883              2957.4712
 Red. masses --      1.0837                12.7555                 1.0573
 Frc consts  --      1.4718                25.6764                 5.4488
 IR Inten    --      3.1412               215.5129                56.0304

                     43                     44                     45
                      A                      A                      A
 Frequencies --   2987.9161              3032.0983              3035.4550
 Red. masses --      1.1030                 1.0643                 1.0651
 Frc consts  --      5.8020                 5.7650                 5.7820
 IR Inten    --     61.9130                 9.2273                25.1945

                     46                     47                     48
                      A                      A                      A
 Frequencies --   3085.6630              3087.8956              3118.7459
 Red. masses --      1.0972                 1.0965                 1.0883
 Frc consts  --      6.1549                 6.1600                 6.2370
 IR Inten    --      9.0680                 8.0303                12.7974

                     49                     50                     51
                      A                      A                      A
 Frequencies --   3166.3008              3177.2974              3825.7127
 Red. masses --      1.0889                 1.0914                 1.0663
 Frc consts  --      6.4318                 6.4918                 9.1946
 IR Inten    --     10.6075                16.5370                18.1465

 - Thermochemistry -
 -------------------
 Temperature   298.150 Kelvin.  Pressure   1.00000 Atm.
 Atom     1 has atomic number  8 and mass  15.99491

 Molecular mass:   126.06808 amu.
 Principal axes and moments of inertia in atomic units:
                           1         2         3
     Eigenvalues --   462.197471938.806242095.01463
           X            0.99997   0.00277  -0.00747
           Y           -0.00308   0.99913  -0.04170
           Z            0.00735   0.04172   0.99910
 This molecule is an asymmetric top.
 Rotational symmetry number  1.
 Warning -- assumption of classical behavior for rotation
           may cause significant error
 Rotational temperatures (Kelvin)      0.18740     0.04467     0.04134
 Rotational constants (GHZ):           3.90470     0.93085     0.86145
 Zero-point vibrational energy     417947.9 (Joules/Mol)
                                   99.89194 (Kcal/Mol)
 Warning -- explicit consideration of  10 degrees of freedom as
           vibrations may cause significant error
 Vibrational temperatures:     93.01   129.68   213.90   334.25   394.18
          (Kelvin)            414.83   529.64   639.46   677.47   713.72
                              925.91   931.26  1109.18  1131.51  1168.60
                             1233.07  1303.68  1398.91  1448.97  1462.09
                             1523.49  1541.06  1556.45  1569.79  1629.84
                             1644.45  1685.33  1724.84  1745.29  1801.76
                             1810.75  1843.00  1858.03  1911.63  1927.09
                             2069.90  2085.68  2096.39  2128.26  2184.48
                             2659.42  4255.14  4298.94  4362.51  4367.34
                             4439.58  4442.79  4487.17  4555.59  4571.42
                             5504.34

 Zero-point correction=                           0.159188 (Hartree/Particle)
 Thermal correction to Energy=                    0.167758
 Thermal correction to Enthalpy=                  0.168702
 Thermal correction to Gibbs Free Energy=         0.125444
 Sum of electronic and zero-point Energies=           -423.041015
 Sum of electronic and thermal Energies=              -423.032445
 Sum of electronic and thermal Enthalpies=            -423.031501
 Sum of electronic and thermal Free Energies=         -423.074759

                     E (Thermal)             CV                S
                      KCal/Mol        Cal/Mol-Kelvin    Cal/Mol-Kelvin
 Total                  105.270             32.246             91.044
 Electronic               0.000              0.000              0.000
 Translational            0.889              2.981             40.409
 Rotational               0.889              2.981             29.019
 Vibrational            103.492             26.284             21.616
 Vibration     1          0.597              1.971              4.310
 Vibration     2          0.602              1.956              3.657
 Vibration     3          0.618              1.904              2.689
 Vibration     4          0.653              1.792              1.861
 Vibration     5          0.676              1.721              1.571
 Vibration     6          0.685              1.695              1.484
 Vibration     7          0.741              1.538              1.088
 Vibration     8          0.804              1.373              0.813
 Vibration     9          0.828              1.315              0.735
 Vibration    10          0.852              1.259              0.668

 Normal termination of Gaussian 09 at Tue Jan 28 15:28:30 2020.
