 Gaussian 09, Revision D.01,
 Gaussian 09:  ES64L-G09RevD.01 24-Apr-2013

 -----------------------------
 # b3lyp 6-31G(2df,p) opt Freq
 -----------------------------

 -----
 titel
 -----
 Symbolic Z-matrix:
 Charge =  0 Multiplicity = 1

 SCF Done:  E(RB3LYP) =  -423.222097313     A.U. after   14 cycles
 Optimization completed.
    -- Stationary point found.
 Normal termination of Gaussian 09 at Mon Jan 27 15:35:45 2020.

 ----------------------------------------------------------------------
 #N Geom=AllCheck Guess=TCheck SCRF=Check GenChk RB3LYP/6-31G(2df,p) Fr
 eq
 ----------------------------------------------------------------------

 Structure from the checkpoint file:  "/scratch/puck/g09_6ae6c0ad-d0df-487b-a7d5-36ea4284d7bd/Gau-45496.chk"
 -----
 titel
 -----
 Charge =  0 Multiplicity = 1

                         Standard orientation:
 ---------------------------------------------------------------------
 Center     Atomic      Atomic             Coordinates (Angstroms)
 Number     Number       Type             X           Y           Z
 ---------------------------------------------------------------------
      1          6           0        2.672093    0.892978   -0.185646
      2          6           0        1.572264   -0.154381   -0.357000
      3          8           0        2.081377   -1.466838   -0.149094
      4          6           0        0.337855    0.094868    0.543808
      5          6           0       -0.768962   -0.963733    0.351417
      6          6           0       -2.023122   -0.188193   -0.077089
      7          8           0       -3.104643   -0.663678   -0.332170
      8          6           0       -1.649207    1.247424   -0.103586
      9          6           0       -0.368796    1.401301    0.250525
     10          1           0        3.000495    0.946947    0.860287
     11          1           0        3.535436    0.624721   -0.799946
     12          1           0        2.337604    1.891199   -0.483303
     13          1           0        1.234052   -0.156592   -1.400755
     14          1           0        2.446052   -1.505197    0.742500
     15          1           0        0.701344    0.106117    1.583076
     16          1           0       -0.503835   -1.704001   -0.407806
     17          1           0       -0.988015   -1.522749    1.265674
     18          1           0       -2.352360    2.026856   -0.368446
     19          1           0        0.142614    2.355257    0.324263
 ---------------------------------------------------------------------

 SCF Done:  E(RB3LYP) =  -423.222097313     A.U. after    1 cycles

 The electronic state is 1-A.
 Alpha  occ. eigenvalues --  -19.14486 -19.11735 -10.25957 -10.24549 -10.21430
 Alpha  occ. eigenvalues --  -10.20643 -10.19371 -10.18857 -10.18580  -1.02844
 Alpha  occ. eigenvalues --   -1.02720  -0.85673  -0.76726  -0.72816  -0.68229
 Alpha  occ. eigenvalues --   -0.62531  -0.57450  -0.53575  -0.49728  -0.48731
 Alpha  occ. eigenvalues --   -0.46411  -0.45537  -0.42142  -0.41275  -0.40356
 Alpha  occ. eigenvalues --   -0.39169  -0.38931  -0.36744  -0.36078  -0.35111
 Alpha  occ. eigenvalues --   -0.32986  -0.29070  -0.26582  -0.23630
 Alpha virt. eigenvalues --   -0.04590   0.05211   0.06839   0.10157   0.11331
 Alpha virt. eigenvalues --    0.11574   0.12595   0.14831   0.15759   0.16423
 Alpha virt. eigenvalues --    0.18705   0.19041   0.19291   0.21720   0.22391

 Mulliken charges:
               1
     1  C   -0.413442
     2  C    0.129589
     3  O   -0.423349
     4  C   -0.068421
     5  C   -0.353199
     6  C    0.380943
     7  O   -0.329153
     8  C   -0.188744
     9  C   -0.058019
    10  H    0.108759
    11  H    0.132037
    12  H    0.121172
    13  H    0.096817
    14  H    0.277984
    15  H    0.077063
    16  H    0.147782
    17  H    0.129119
    18  H    0.116778
    19  H    0.116284
 Sum of Mulliken charges =   0.00000

 Dipole moment (field-independent basis, Debye):
    X=              3.4317    Y=              2.2474    Z=              1.6695  Tot=              4.4289
 Quadrupole moment (field-independent basis, Debye-Ang):
   XX=            -63.5107   YY=            -53.0261   ZZ=            -51.2968
   XY=             -2.3604   XZ=              1.3094   YZ=             -2.9010

  Exact polarizability: 101.321   3.834  77.096   6.762  -1.649  57.878
 Approx polarizability: 149.957  11.935 115.107  16.508   0.875  93.775

                      1                      2                      3
                      A                      A                      A
 Frequencies --     44.9945                79.0763               172.0000
 Red. masses --      3.9526                 3.3040                 4.0340
 Frc consts  --      0.0047                 0.0122                 0.0703
 IR Inten    --      2.4828                 0.4297                 0.9926

                      4                      5                      6
                      A                      A                      A
 Frequencies --    227.9135               245.3699               295.1732
 Red. masses --      1.5130                 1.8107                 1.0797
 Frc consts  --      0.0463                 0.0642                 0.0554
 IR Inten    --      3.0037                 0.4787                87.1285

                      7                      8                      9
                      A                      A                      A
 Frequencies --    331.4971               384.5125               422.1581
 Red. masses --      2.8810                 2.1409                 5.5636
 Frc consts  --      0.1865                 0.1865                 0.5842
 IR Inten    --     12.3605                 3.0701                16.1772

                     10                     11                     12
                      A                      A                      A
 Frequencies --    466.2020               505.4609               569.1079
 Red. masses --      2.7192                 3.5981                 2.3809
 Frc consts  --      0.3482                 0.5416                 0.4543
 IR Inten    --      9.7502                 8.8432                 3.2558

                     13                     14                     15
                      A                      A                      A
 Frequencies --    656.3959               760.6138               801.9515
 Red. masses --      5.2798                 3.8578                 1.6609
 Frc consts  --      1.3403                 1.3150                 0.6293
 IR Inten    --      1.8135                 9.8732                16.0791

                     16                     17                     18
                      A                      A                      A
 Frequencies --    826.3465               837.2709               910.5543
 Red. masses --      2.7099                 2.1991                 2.2598
 Frc consts  --      1.0903                 0.9083                 1.1039
 IR Inten    --      6.1198                 5.6184                 9.8666

                     19                     20                     21
                      A                      A                      A
 Frequencies --    950.9913               975.8589              1007.8181
 Red. masses --      1.9325                 1.8743                 1.3754
 Frc consts  --      1.0297                 1.0516                 0.8231
 IR Inten    --     15.7051                11.5363                 1.9173

                     22                     23                     24
                      A                      A                      A
 Frequencies --   1044.9854              1057.4120              1100.8511
 Red. masses --      2.2170                 1.8358                 1.6444
 Frc consts  --      1.4264                 1.2094                 1.1741
 IR Inten    --      3.2529                45.5120                18.9994

                     25                     26                     27
                      A                      A                      A
 Frequencies --   1117.9576              1131.1866              1178.0522
 Red. masses --      1.8641                 1.3544                 3.0301
 Frc consts  --      1.3727                 1.0211                 2.4776
 IR Inten    --     57.5204                 8.4364                58.3388

                     28                     29                     30
                      A                      A                      A
 Frequencies --   1195.2311              1234.7982              1258.9774
 Red. masses --      1.6179                 1.4171                 1.6216
 Frc consts  --      1.3618                 1.2730                 1.5144
 IR Inten    --     10.5569                 4.6280                 1.2785

                     31                     32                     33
                      A                      A                      A
 Frequencies --   1304.2847              1327.4878              1362.5110
 Red. masses --      1.5769                 1.4126                 1.5793
 Frc consts  --      1.5805                 1.4666                 1.7274
 IR Inten    --      4.1171                13.8757                21.7370

                     34                     35                     36
                      A                      A                      A
 Frequencies --   1371.5055              1404.3033              1423.3275
 Red. masses --      1.4873                 1.2426                 1.2082
 Frc consts  --      1.6484                 1.4437                 1.4421
 IR Inten    --      2.3295                 7.4626                42.3466

                     37                     38                     39
                      A                      A                      A
 Frequencies --   1453.7949              1491.2956              1496.9614
 Red. masses --      1.0834                 1.0564                 1.0494
 Frc consts  --      1.3491                 1.3842                 1.3855
 IR Inten    --      8.3537                 1.6174                 8.0475

                     40                     41                     42
                      A                      A                      A
 Frequencies --   1649.6124              1816.7181              2982.4924
 Red. masses --      6.5960                12.4291                 1.0814
 Frc consts  --     10.5754                24.1693                 5.6678
 IR Inten    --     22.1213               299.4771                20.4912

                     43                     44                     45
                      A                      A                      A
 Frequencies --   3025.0004              3040.7071              3071.1546
 Red. masses --      1.0448                 1.0810                 1.0623
 Frc consts  --      5.6328                 5.8886                 5.9032
 IR Inten    --     10.7612                27.2978                 7.4322

                     46                     47                     48
                      A                      A                      A
 Frequencies --   3098.2180              3112.4863              3122.5379
 Red. masses --      1.0954                 1.1010                 1.1015
 Frc consts  --      6.1951                 6.2844                 6.3277
 IR Inten    --     29.0798                 4.2358                19.9342

                     49                     50                     51
                      A                      A                      A
 Frequencies --   3187.6989              3225.8891              3793.9805
 Red. masses --      1.0882                 1.1019                 1.0658
 Frc consts  --      6.5147                 6.7559                 9.0393
 IR Inten    --      7.9209                 6.0289                16.1130

 - Thermochemistry -
 -------------------
 Temperature   298.150 Kelvin.  Pressure   1.00000 Atm.
 Atom     1 has atomic number  6 and mass  12.00000

 Molecular mass:   126.06808 amu.
 Principal axes and moments of inertia in atomic units:
                           1         2         3
     Eigenvalues --   521.640811752.511052140.69147
           X            0.99994   0.01100  -0.00065
           Y           -0.01101   0.99968  -0.02294
           Z            0.00040   0.02295   0.99974
 This molecule is an asymmetric top.
 Rotational symmetry number  1.
 Warning -- assumption of classical behavior for rotation
           may cause significant error
 Rotational temperatures (Kelvin)      0.16604     0.04942     0.04046
 Rotational constants (GHZ):           3.45974     1.02980     0.84306
 Zero-point vibrational energy     416017.4 (Joules/Mol)
                                   99.43056 (Kcal/Mol)
 Warning -- explicit consideration of  12 degrees of freedom as
           vibrations may cause significant error
 Vibrational temperatures:     64.74   113.77   247.47   327.92   353.03
          (Kelvin)            424.69   476.95   553.23   607.39   670.76
                              727.24   818.82   944.41  1094.35  1153.83
                             1188.93  1204.64  1310.08  1368.26  1404.04
                             1450.02  1503.50  1521.38  1583.88  1608.49
                             1627.52  1694.95  1719.67  1776.60  1811.39
                             1876.57  1909.96  1960.35  1973.29  2020.48
                             2047.85  2091.68  2145.64  2153.79  2373.42
                             2613.85  4291.14  4352.30  4374.89  4418.70
                             4457.64  4478.17  4492.63  4586.38  4641.33
                             5458.68

 Zero-point correction=                           0.158453 (Hartree/Particle)
 Thermal correction to Energy=                    0.167471
 Thermal correction to Enthalpy=                  0.168415
 Thermal correction to Gibbs Free Energy=         0.124105
 Sum of electronic and zero-point Energies=           -423.063645
 Sum of electronic and thermal Energies=              -423.054627
 Sum of electronic and thermal Enthalpies=            -423.053682
 Sum of electronic and thermal Free Energies=         -423.097992

                     E (Thermal)             CV                S
                      KCal/Mol        Cal/Mol-Kelvin    Cal/Mol-Kelvin
 Total                  105.089             33.662             93.257
 Electronic               0.000              0.000              0.000
 Translational            0.889              2.981             40.409
 Rotational               0.889              2.981             29.061
 Vibrational            103.312             27.701             23.788
 Vibration     1          0.595              1.979              5.026
 Vibration     2          0.600              1.963              3.914
 Vibration     3          0.626              1.877              2.414
 Vibration     4          0.651              1.798              1.895
 Vibration     5          0.660              1.770              1.764
 Vibration     6          0.689              1.683              1.444
 Vibration     7          0.714              1.613              1.253
 Vibration     8          0.753              1.503              1.021
 Vibration     9          0.784              1.422              0.885
 Vibration    10          0.824              1.325              0.748
 Vibration    11          0.861              1.238              0.645
 Vibration    12          0.925              1.098              0.506

 Optimization completed.
    -- Stationary point found.
 Normal termination of Gaussian 09 at Mon Jan 27 16:15:41 2020.
