 Gaussian 09, Revision D.01,
 Gaussian 09:  ES64L-G09RevD.01 24-Apr-2013

 -----------------------------
 # b3lyp 6-31G(2df,p) opt Freq
 -----------------------------

 -----
 titel
 -----
 Symbolic Z-matrix:
 Charge =  0 Multiplicity = 1

 SCF Done:  E(RB3LYP) =  -423.143059207     A.U. after   13 cycles
 Optimization completed.
    -- Stationary point found.
 Normal termination of Gaussian 09 at Mon Jan 27 23:50:34 2020.

 ----------------------------------------------------------------------
 #N Geom=AllCheck Guess=TCheck SCRF=Check GenChk RB3LYP/6-31G(2df,p) Fr
 eq
 ----------------------------------------------------------------------

 Structure from the checkpoint file:  "/scratch/puck/g09_c4264510-29b4-4d51-9308-4ce76f2420df/Gau-194064.chk"
 -----
 titel
 -----
 Charge =  0 Multiplicity = 1

                         Standard orientation:
 ---------------------------------------------------------------------
 Center     Atomic      Atomic             Coordinates (Angstroms)
 Number     Number       Type             X           Y           Z
 ---------------------------------------------------------------------
      1          6           0        2.093959   -1.439450   -0.402600
      2          6           0        1.059779   -0.435594    0.051687
      3          6           0        1.335808    0.450432    1.257304
      4          6           0        1.218013    1.056764   -0.118754
      5          8           0       -0.009530    1.636598   -0.497985
      6          6           0       -0.966457    0.629602   -0.725285
      7          6           0       -1.532357   -0.127039    0.453849
      8          8           0       -2.743644   -0.800195    0.264599
      9          6           0       -0.383569   -0.709784   -0.331547
     10          1           0        1.984044   -1.666900   -1.469048
     11          1           0        3.107979   -1.059561   -0.244969
     12          1           0        2.004131   -2.380406    0.151963
     13          1           0        0.561629    0.649685    1.987954
     14          1           0        2.334612    0.389168    1.679195
     15          1           0        2.072065    1.529825   -0.592879
     16          1           0       -1.584170    0.791828   -1.603338
     17          1           0       -1.360218    0.256838    1.457802
     18          1           0       -3.452587   -0.148544    0.300821
     19          1           0       -0.593154   -1.602749   -0.908343
 ---------------------------------------------------------------------

 SCF Done:  E(RB3LYP) =  -423.143059207     A.U. after    1 cycles

 The electronic state is 1-A.
 Alpha  occ. eigenvalues --  -19.14727 -19.14608 -10.23324 -10.23058 -10.22919
 Alpha  occ. eigenvalues --  -10.20260 -10.19088 -10.18306 -10.18253  -1.05168
 Alpha  occ. eigenvalues --   -1.02790  -0.85948  -0.82831  -0.71684  -0.63487
 Alpha  occ. eigenvalues --   -0.61977  -0.57751  -0.55513  -0.53357  -0.48804
 Alpha  occ. eigenvalues --   -0.46048  -0.44911  -0.43732  -0.41301  -0.40969
 Alpha  occ. eigenvalues --   -0.39760  -0.37543  -0.36442  -0.34719  -0.31692
 Alpha  occ. eigenvalues --   -0.29547  -0.27612  -0.24951  -0.22525
 Alpha virt. eigenvalues --    0.07632   0.08949   0.09702   0.11960   0.12139
 Alpha virt. eigenvalues --    0.12621   0.14646   0.15505   0.16454   0.17702
 Alpha virt. eigenvalues --    0.18091   0.19529   0.20425   0.20982   0.23391

 Mulliken charges:
               1
     1  C   -0.487377
     2  C    0.313656
     3  C   -0.375432
     4  C    0.065940
     5  O   -0.259255
     6  C    0.037894
     7  C    0.018245
     8  O   -0.423849
     9  C   -0.159599
    10  H    0.120999
    11  H    0.116268
    12  H    0.124474
    13  H    0.118569
    14  H    0.109177
    15  H    0.097391
    16  H    0.101273
    17  H    0.091675
    18  H    0.289031
    19  H    0.100919
 Sum of Mulliken charges =   0.00000

 Dipole moment (field-independent basis, Debye):
    X=              0.2955    Y=             -0.1043    Z=              0.0819  Tot=              0.3239
 Quadrupole moment (field-independent basis, Debye-Ang):
   XX=            -46.5813   YY=            -58.0525   ZZ=            -52.1900
   XY=             -3.7912   XZ=              0.0874   YZ=              1.6384

  Exact polarizability:  87.740  -0.745  68.560   2.254   1.583  66.706
 Approx polarizability: 115.124   0.784 107.256   2.883  -0.084 101.822

                      1                      2                      3
                      A                      A                      A
 Frequencies --    174.4791               201.9240               217.2636
 Red. masses --      3.1363                 1.7944                 1.4703
 Frc consts  --      0.0563                 0.0431                 0.0409
 IR Inten    --      1.8674                 4.6693                 1.6191

                      4                      5                      6
                      A                      A                      A
 Frequencies --    239.4260               283.3093               316.1713
 Red. masses --      2.4949                 4.0951                 1.3075
 Frc consts  --      0.0843                 0.1937                 0.0770
 IR Inten    --      4.4772                15.6684                63.1155

                      7                      8                      9
                      A                      A                      A
 Frequencies --    356.6181               389.9606               468.4809
 Red. masses --      2.5353                 2.6036                 3.6462
 Frc consts  --      0.1900                 0.2333                 0.4715
 IR Inten    --     12.1465                22.2518                 0.2911

                     10                     11                     12
                      A                      A                      A
 Frequencies --    485.3566               596.3328               706.3659
 Red. masses --      2.8159                 3.4866                 5.2613
 Frc consts  --      0.3908                 0.7305                 1.5467
 IR Inten    --      1.9848                 1.0148                 8.6340

                     13                     14                     15
                      A                      A                      A
 Frequencies --    768.6403               825.8910               844.3249
 Red. masses --      3.0030                 2.0724                 1.8847
 Frc consts  --      1.0453                 0.8328                 0.7916
 IR Inten    --      6.8231                 7.8443                 5.6982

                     16                     17                     18
                      A                      A                      A
 Frequencies --    877.3539               914.9242               936.9776
 Red. masses --      1.8875                 3.1563                 2.8873
 Frc consts  --      0.8560                 1.5567                 1.4935
 IR Inten    --     11.5838                19.2546                 2.8470

                     19                     20                     21
                      A                      A                      A
 Frequencies --    965.7239               988.7970              1011.1519
 Red. masses --      1.5926                 1.8130                 1.7178
 Frc consts  --      0.8751                 1.0444                 1.0348
 IR Inten    --      2.9952                 3.0420                 1.0619

                     22                     23                     24
                      A                      A                      A
 Frequencies --   1022.3794              1036.0074              1074.5861
 Red. masses --      1.4445                 1.6662                 1.3519
 Frc consts  --      0.8896                 1.0537                 0.9198
 IR Inten    --     22.9892                 2.4232                20.2171

                     25                     26                     27
                      A                      A                      A
 Frequencies --   1079.0625              1105.0401              1125.5221
 Red. masses --      1.9159                 1.8248                 1.9477
 Frc consts  --      1.3144                 1.3128                 1.4537
 IR Inten    --     37.1578                11.9660                 4.4312

                     28                     29                     30
                      A                      A                      A
 Frequencies --   1135.8135              1170.9056              1191.9417
 Red. masses --      2.0906                 3.7873                 2.1481
 Frc consts  --      1.5891                 3.0593                 1.7981
 IR Inten    --    108.2875                13.7419                32.0122

                     31                     32                     33
                      A                      A                      A
 Frequencies --   1225.1667              1279.0537              1289.7897
 Red. masses --      1.8916                 1.3043                 1.3380
 Frc consts  --      1.6729                 1.2572                 1.3115
 IR Inten    --      3.5517                 3.4946                33.5409

                     34                     35                     36
                      A                      A                      A
 Frequencies --   1316.2126              1329.8380              1396.4731
 Red. masses --      2.2171                 1.6141                 1.7374
 Frc consts  --      2.2630                 1.6818                 1.9962
 IR Inten    --     11.5723                21.5026                 3.9029

                     37                     38                     39
                      A                      A                      A
 Frequencies --   1419.1664              1449.0149              1484.3210
 Red. masses --      1.3244                 2.2600                 1.2808
 Frc consts  --      1.5716                 2.7958                 1.6627
 IR Inten    --      0.8475                 7.8603                10.7734

                     40                     41                     42
                      A                      A                      A
 Frequencies --   1490.3109              1501.8421              3025.4014
 Red. masses --      1.0457                 1.0685                 1.0356
 Frc consts  --      1.3684                 1.4200                 5.5849
 IR Inten    --      2.9182                 2.6712                34.1070

                     43                     44                     45
                      A                      A                      A
 Frequencies --   3086.4967              3101.0530              3114.1180
 Red. masses --      1.1012                 1.1005                 1.0854
 Frc consts  --      6.1811                 6.2355                 6.2019
 IR Inten    --     22.7036                18.3498                15.8965

                     46                     47                     48
                      A                      A                      A
 Frequencies --   3132.4095              3156.3319              3161.3376
 Red. masses --      1.0582                 1.0892                 1.0927
 Frc consts  --      6.1174                 6.3932                 6.4344
 IR Inten    --     21.2527                31.3626                17.9404

                     49                     50                     51
                      A                      A                      A
 Frequencies --   3186.5079              3220.7431              3796.5403
 Red. masses --      1.0911                 1.1136                 1.0661
 Frc consts  --      6.5276                 6.8063                 9.0539
 IR Inten    --      5.0397                 9.2038                22.7036

 - Thermochemistry -
 -------------------
 Temperature   298.150 Kelvin.  Pressure   1.00000 Atm.
 Atom     1 has atomic number  6 and mass  12.00000

 Molecular mass:   126.06808 amu.
 Principal axes and moments of inertia in atomic units:
                           1         2         3
     Eigenvalues --   621.316311295.489751551.21550
           X            0.99928  -0.03788   0.00052
           Y            0.03780   0.99785   0.05353
           Z           -0.00254  -0.05347   0.99857
 This molecule is an asymmetric top.
 Rotational symmetry number  1.
 Warning -- assumption of classical behavior for rotation
           may cause significant error
 Rotational temperatures (Kelvin)      0.13940     0.06686     0.05584
 Rotational constants (GHZ):           2.90471     1.39310     1.16344
 Zero-point vibrational energy     416736.2 (Joules/Mol)
                                   99.60235 (Kcal/Mol)
 Warning -- explicit consideration of  11 degrees of freedom as
           vibrations may cause significant error
 Vibrational temperatures:    251.04   290.52   312.59   344.48   407.62
          (Kelvin)            454.90   513.09   561.07   674.04   698.32
                              857.99  1016.30  1105.90  1188.27  1214.79
                             1262.32  1316.37  1348.10  1389.46  1422.66
                             1454.82  1470.97  1490.58  1546.09  1552.53
                             1589.90  1619.37  1634.18  1684.67  1714.94
                             1762.74  1840.27  1855.72  1893.73  1913.34
                             2009.21  2041.86  2084.81  2135.60  2144.22
                             2160.81  4352.87  4440.77  4461.72  4480.52
                             4506.83  4541.25  4548.45  4584.67  4633.93
                             5462.37

 Zero-point correction=                           0.158726 (Hartree/Particle)
 Thermal correction to Energy=                    0.166844
 Thermal correction to Enthalpy=                  0.167788
 Thermal correction to Gibbs Free Energy=         0.126652
 Sum of electronic and zero-point Energies=           -422.984333
 Sum of electronic and thermal Energies=              -422.976216
 Sum of electronic and thermal Enthalpies=            -422.975271
 Sum of electronic and thermal Free Energies=         -423.016407

                     E (Thermal)             CV                S
                      KCal/Mol        Cal/Mol-Kelvin    Cal/Mol-Kelvin
 Total                  104.696             32.472             86.577
 Electronic               0.000              0.000              0.000
 Translational            0.889              2.981             40.409
 Rotational               0.889              2.981             28.614
 Vibrational            102.919             26.510             17.554
 Vibration     1          0.627              1.874              2.387
 Vibration     2          0.639              1.837              2.115
 Vibration     3          0.646              1.815              1.982
 Vibration     4          0.657              1.780              1.807
 Vibration     5          0.682              1.705              1.514
 Vibration     6          0.703              1.643              1.330
 Vibration     7          0.732              1.562              1.137
 Vibration     8          0.758              1.492              1.000
 Vibration     9          0.826              1.320              0.742
 Vibration    10          0.841              1.283              0.696
 Vibration    11          0.954              1.040              0.456

 Normal termination of Gaussian 09 at Tue Jan 28 00:34:18 2020.
