 Gaussian 09, Revision D.01,
 Gaussian 09:  ES64L-G09RevD.01 24-Apr-2013

 -----------------------------
 # b3lyp 6-31G(2df,p) opt Freq
 -----------------------------

 -----
 titel
 -----
 Symbolic Z-matrix:
 Charge =  0 Multiplicity = 1

 SCF Done:  E(RB3LYP) =  -423.176654850     A.U. after   14 cycles
 Optimization completed.
    -- Stationary point found.
 Normal termination of Gaussian 09 at Tue Jan 28 00:05:25 2020.

 ----------------------------------------------------------------------
 #N Geom=AllCheck Guess=TCheck SCRF=Check GenChk RB3LYP/6-31G(2df,p) Fr
 eq
 ----------------------------------------------------------------------

 Structure from the checkpoint file:  "/scratch/puck/g09_bda979a8-9165-4554-bca6-8bc64daf352c/Gau-84039.chk"
 -----
 titel
 -----
 Charge =  0 Multiplicity = 1

                         Standard orientation:
 ---------------------------------------------------------------------
 Center     Atomic      Atomic             Coordinates (Angstroms)
 Number     Number       Type             X           Y           Z
 ---------------------------------------------------------------------
      1          8           0        2.538441   -0.726340   -0.449458
      2          6           0        1.170391   -0.582072   -0.634275
      3          6           0        0.199263   -0.867560    0.500541
      4          6           0       -1.182769   -1.443983    0.200461
      5          6           0       -2.299182   -0.382379    0.254818
      6          6           0       -1.911962    0.893842   -0.456663
      7          6           0       -0.649238    1.315851   -0.548807
      8          6           0        0.469989    0.561658    0.059884
      9          8           0        1.383738    1.332460    0.811467
     10          1           0        2.803492   -0.008985    0.143330
     11          1           0        0.852222   -0.846459   -1.640017
     12          1           0        0.674961   -1.161385    1.431910
     13          1           0       -1.181424   -1.888826   -0.802293
     14          1           0       -1.405616   -2.258820    0.896819
     15          1           0       -3.218387   -0.788998   -0.181429
     16          1           0       -2.548258   -0.149395    1.300956
     17          1           0       -2.710757    1.483901   -0.898857
     18          1           0       -0.396293    2.243258   -1.056461
     19          1           0        0.973675    1.554601    1.654219
 ---------------------------------------------------------------------

 SCF Done:  E(RB3LYP) =  -423.176654850     A.U. after    1 cycles

 The electronic state is 1-A.
 Alpha  occ. eigenvalues --  -19.15753 -19.13034 -10.23738 -10.22962 -10.18887
 Alpha  occ. eigenvalues --  -10.18769 -10.18712 -10.18274 -10.18140  -1.04735
 Alpha  occ. eigenvalues --   -1.01050  -0.85630  -0.78423  -0.74286  -0.64387
 Alpha  occ. eigenvalues --   -0.61164  -0.59302  -0.54024  -0.51826  -0.48941
 Alpha  occ. eigenvalues --   -0.45753  -0.45300  -0.43146  -0.40163  -0.40001
 Alpha  occ. eigenvalues --   -0.38859  -0.37584  -0.35064  -0.34018  -0.32966
 Alpha  occ. eigenvalues --   -0.31193  -0.28658  -0.23522  -0.22701
 Alpha virt. eigenvalues --    0.00736   0.07428   0.09088   0.10754   0.11782
 Alpha virt. eigenvalues --    0.13930   0.14649   0.15075   0.16575   0.17881
 Alpha virt. eigenvalues --    0.18715   0.19659   0.21233   0.23143   0.24681

 Mulliken charges:
               1
     1  O   -0.444421
     2  C    0.097583
     3  C   -0.174584
     4  C   -0.232734
     5  C   -0.258712
     6  C   -0.052352
     7  C   -0.150741
     8  C    0.323669
     9  O   -0.480310
    10  H    0.293537
    11  H    0.100709
    12  H    0.085136
    13  H    0.106674
    14  H    0.101156
    15  H    0.103303
    16  H    0.108957
    17  H    0.092088
    18  H    0.093089
    19  H    0.287951
 Sum of Mulliken charges =   0.00000

 Dipole moment (field-independent basis, Debye):
    X=             -2.2179    Y=              0.7026    Z=              1.5222  Tot=              2.7802
 Quadrupole moment (field-independent basis, Debye-Ang):
   XX=            -56.2494   YY=            -53.8064   ZZ=            -49.6666
   XY=              2.5092   XZ=              2.8831   YZ=              0.5956

  Exact polarizability:  94.825   2.606  73.255   0.332  -2.667  63.253
 Approx polarizability: 139.107   7.019 106.674  -2.065  -1.813  98.532

                      1                      2                      3
                      A                      A                      A
 Frequencies --    117.1858               172.6992               261.9395
 Red. masses --      2.6780                 2.9566                 2.6737
 Frc consts  --      0.0217                 0.0520                 0.1081
 IR Inten    --      1.4866                 0.9086                 5.7470

                      4                      5                      6
                      A                      A                      A
 Frequencies --    277.0088               291.1106               314.8264
 Red. masses --      2.2238                 2.2444                 1.7448
 Frc consts  --      0.1005                 0.1121                 0.1019
 IR Inten    --      5.3255                12.0571                38.9595

                      7                      8                      9
                      A                      A                      A
 Frequencies --    364.9236               421.3650               436.6532
 Red. masses --      2.3559                 2.9977                 1.5777
 Frc consts  --      0.1848                 0.3136                 0.1772
 IR Inten    --     13.2060                11.0460                84.0182

                     10                     11                     12
                      A                      A                      A
 Frequencies --    474.8605               535.7659               603.6398
 Red. masses --      3.2239                 3.4252                 3.2972
 Frc consts  --      0.4283                 0.5793                 0.7079
 IR Inten    --      0.9686                 0.5187                 3.2584

                     13                     14                     15
                      A                      A                      A
 Frequencies --    700.4638               720.6264               774.5243
 Red. masses --      3.7450                 1.7355                 1.8138
 Frc consts  --      1.0826                 0.5310                 0.6411
 IR Inten    --     10.3930                28.2587                 5.6181

                     16                     17                     18
                      A                      A                      A
 Frequencies --    848.7227               884.9746               918.0109
 Red. masses --      2.6641                 3.0011                 3.2576
 Frc consts  --      1.1307                 1.3848                 1.6175
 IR Inten    --     10.5443                11.2181                27.2388

                     19                     20                     21
                      A                      A                      A
 Frequencies --    949.6097               982.3178              1002.4154
 Red. masses --      1.9882                 2.1639                 1.3068
 Frc consts  --      1.0564                 1.2303                 0.7737
 IR Inten    --      2.2780                 7.5533                 0.6856

                     22                     23                     24
                      A                      A                      A
 Frequencies --   1022.2662              1037.5172              1080.8117
 Red. masses --      2.1608                 1.4489                 1.7278
 Frc consts  --      1.3305                 0.9189                 1.1892
 IR Inten    --      2.3616                 3.8647                 7.4282

                     25                     26                     27
                      A                      A                      A
 Frequencies --   1096.3672              1147.6242              1181.5929
 Red. masses --      1.9188                 2.5372                 2.1224
 Frc consts  --      1.3589                 1.9688                 1.7459
 IR Inten    --      5.5502                88.4915                72.3227

                     28                     29                     30
                      A                      A                      A
 Frequencies --   1190.6058              1221.5247              1260.1405
 Red. masses --      1.3238                 1.3763                 1.4201
 Frc consts  --      1.1056                 1.2100                 1.3286
 IR Inten    --     50.8161                24.7967                15.2635

                     31                     32                     33
                      A                      A                      A
 Frequencies --   1272.3067              1295.2042              1306.0509
 Red. masses --      1.4513                 1.4368                 1.4102
 Frc consts  --      1.3842                 1.4201                 1.4173
 IR Inten    --      1.6316                22.6594                 7.0539

                     34                     35                     36
                      A                      A                      A
 Frequencies --   1351.3723              1374.2843              1397.6934
 Red. masses --      1.3734                 1.4458                 1.4843
 Frc consts  --      1.4777                 1.6089                 1.7084
 IR Inten    --      5.6293                 3.7485                43.8481

                     37                     38                     39
                      A                      A                      A
 Frequencies --   1421.6655              1456.9487              1480.2542
 Red. masses --      1.6946                 2.0183                 1.1031
 Frc consts  --      2.0180                 2.5242                 1.4241
 IR Inten    --      4.9881                94.2029                 2.3828

                     40                     41                     42
                      A                      A                      A
 Frequencies --   1490.8262              1706.3403              2997.4509
 Red. masses --      1.0938                 6.8641                 1.0708
 Frc consts  --      1.4324                11.7751                 5.6682
 IR Inten    --      4.3241                 5.0711                27.4443

                     43                     44                     45
                      A                      A                      A
 Frequencies --   3026.3299              3057.5843              3073.5865
 Red. masses --      1.0637                 1.0886                 1.1006
 Frc consts  --      5.7400                 5.9963                 6.1261
 IR Inten    --     27.3138                42.6223                27.2183

                     46                     47                     48
                      A                      A                      A
 Frequencies --   3137.5363              3148.9863              3152.4055
 Red. masses --      1.0902                 1.0835                 1.0881
 Frc consts  --      6.3229                 6.3300                 6.3712
 IR Inten    --     12.9586                 5.1565                16.5502

                     49                     50                     51
                      A                      A                      A
 Frequencies --   3171.1939              3741.8622              3804.4583
 Red. masses --      1.0973                 1.0648                 1.0665
 Frc consts  --      6.5014                 8.7839                 9.0950
 IR Inten    --     29.6435                59.3488                24.0218

 - Thermochemistry -
 -------------------
 Temperature   298.150 Kelvin.  Pressure   1.00000 Atm.
 Atom     1 has atomic number  8 and mass  15.99491

 Molecular mass:   126.06808 amu.
 Principal axes and moments of inertia in atomic units:
                           1         2         3
     Eigenvalues --   620.172551292.196511614.84269
           X            0.99982   0.01853   0.00455
           Y           -0.01843   0.99960  -0.02150
           Z           -0.00494   0.02141   0.99976
 This molecule is an asymmetric top.
 Rotational symmetry number  1.
 Warning -- assumption of classical behavior for rotation
           may cause significant error
 Rotational temperatures (Kelvin)      0.13966     0.06703     0.05364
 Rotational constants (GHZ):           2.91006     1.39665     1.11760
 Zero-point vibrational energy     419628.7 (Joules/Mol)
                                  100.29366 (Kcal/Mol)
 Warning -- explicit consideration of  12 degrees of freedom as
           vibrations may cause significant error
 Vibrational temperatures:    168.60   248.48   376.87   398.55   418.84
          (Kelvin)            452.96   525.04   606.25   628.25   683.22
                              770.85   868.50  1007.81  1036.82  1114.37
                             1221.12  1273.28  1320.81  1366.27  1413.33
                             1442.25  1470.81  1492.75  1555.05  1577.43
                             1651.17  1700.05  1713.01  1757.50  1813.06
                             1830.56  1863.51  1879.11  1944.32  1977.29
                             2010.97  2045.46  2096.22  2129.75  2144.96
                             2455.04  4312.66  4354.21  4399.18  4422.20
                             4514.21  4530.68  4535.60  4562.64  5383.70
                             5473.76

 Zero-point correction=                           0.159828 (Hartree/Particle)
 Thermal correction to Energy=                    0.168115
 Thermal correction to Enthalpy=                  0.169059
 Thermal correction to Gibbs Free Energy=         0.127500
 Sum of electronic and zero-point Energies=           -423.016827
 Sum of electronic and thermal Energies=              -423.008540
 Sum of electronic and thermal Enthalpies=            -423.007596
 Sum of electronic and thermal Free Energies=         -423.049155

                     E (Thermal)             CV                S
                      KCal/Mol        Cal/Mol-Kelvin    Cal/Mol-Kelvin
 Total                  105.494             33.002             87.469
 Electronic               0.000              0.000              0.000
 Translational            0.889              2.981             40.409
 Rotational               0.889              2.981             28.650
 Vibrational            103.716             27.040             18.410
 Vibration     1          0.608              1.935              3.146
 Vibration     2          0.626              1.876              2.406
 Vibration     3          0.669              1.742              1.649
 Vibration     4          0.678              1.716              1.552
 Vibration     5          0.687              1.690              1.468
 Vibration     6          0.702              1.645              1.337
 Vibration     7          0.738              1.544              1.101
 Vibration     8          0.784              1.424              0.887
 Vibration     9          0.797              1.390              0.837
 Vibration    10          0.832              1.306              0.724
 Vibration    11          0.891              1.171              0.574
 Vibration    12          0.962              1.024              0.443

 Normal termination of Gaussian 09 at Tue Jan 28 00:52:37 2020.
