 Gaussian 09, Revision D.01,
 Gaussian 09:  ES64L-G09RevD.01 24-Apr-2013

 -----------------------------
 # b3lyp 6-31G(2df,p) opt Freq
 -----------------------------

 -----
 titel
 -----
 Symbolic Z-matrix:
 Charge =  0 Multiplicity = 1

 SCF Done:  E(RB3LYP) =  -423.126663082     A.U. after   14 cycles
 SCF Done:  E(RB3LYP) =  -423.126663080     A.U. after    6 cycles
 SCF Done:  E(RB3LYP) =  -423.126662961     A.U. after    7 cycles
 SCF Done:  E(RB3LYP) =  -423.126663133     A.U. after    7 cycles
 SCF Done:  E(RB3LYP) =  -423.126663120     A.U. after    6 cycles
 Optimization completed.
    -- Stationary point found.
 Normal termination of Gaussian 09 at Tue Jan 28 12:27:20 2020.

 ----------------------------------------------------------------------
 #N Geom=AllCheck Guess=TCheck SCRF=Check GenChk RB3LYP/6-31G(2df,p) Fr
 eq
 ----------------------------------------------------------------------

 Structure from the checkpoint file:  "/scratch/puck/g09_7f9b7a2f-4882-40d0-9302-6227ed3ea186/Gau-36770.chk"
 -----
 titel
 -----
 Charge =  0 Multiplicity = 1

                         Standard orientation:
 ---------------------------------------------------------------------
 Center     Atomic      Atomic             Coordinates (Angstroms)
 Number     Number       Type             X           Y           Z
 ---------------------------------------------------------------------
      1          8           0       -3.627934   -0.032115   -0.345530
      2          6           0       -2.385220   -0.165299    0.327723
      3          6           0       -1.192874    0.128170   -0.591292
      4          6           0        0.132878    0.017792    0.127179
      5          8           0        0.347795   -1.269329    0.625947
      6          6           0        0.671312    1.183945    0.907555
      7          6           0        1.341728    0.785247   -0.412092
      8          6           0        2.605884    0.116866   -0.390795
      9          6           0        3.625296   -0.525117   -0.355906
     10          1           0       -3.687465   -0.741243   -0.993407
     11          1           0       -2.410829    0.561194    1.146956
     12          1           0       -2.269649   -1.160695    0.777176
     13          1           0       -1.197874   -0.581942   -1.429174
     14          1           0       -1.309811    1.132604   -1.012364
     15          1           0        1.268580   -1.512247    0.457546
     16          1           0        0.122273    2.119385    0.913857
     17          1           0        1.216407    0.958715    1.816443
     18          1           0        1.165630    1.433228   -1.265226
     19          1           0        4.549825   -1.047083   -0.329377
 ---------------------------------------------------------------------

 SCF Done:  E(RB3LYP) =  -423.126663120     A.U. after    1 cycles

 The electronic state is 1-A.
 Alpha  occ. eigenvalues --  -19.14248 -19.13099 -10.25416 -10.22218 -10.21934
 Alpha  occ. eigenvalues --  -10.19587 -10.19561 -10.18591 -10.18503  -1.03425
 Alpha  occ. eigenvalues --   -1.01142  -0.86549  -0.76934  -0.74361  -0.64579
 Alpha  occ. eigenvalues --   -0.63790  -0.57847  -0.54758  -0.51996  -0.50326
 Alpha  occ. eigenvalues --   -0.49384  -0.45417  -0.43721  -0.40185  -0.39826
 Alpha  occ. eigenvalues --   -0.38411  -0.38126  -0.35127  -0.33263  -0.31843
 Alpha  occ. eigenvalues --   -0.29194  -0.27054  -0.25359  -0.24503
 Alpha virt. eigenvalues --    0.03165   0.03746   0.07913   0.09375   0.11508
 Alpha virt. eigenvalues --    0.11755   0.12809   0.13306   0.14726   0.16035
 Alpha virt. eigenvalues --    0.17033   0.17524   0.19864   0.21176   0.21747

 Mulliken charges:
               1
     1  O   -0.420016
     2  C   -0.064275
     3  C   -0.256368
     4  C    0.423046
     5  O   -0.478123
     6  C   -0.334433
     7  C   -0.292519
     8  C    0.281993
     9  C   -0.422714
    10  H    0.281195
    11  H    0.112036
    12  H    0.112140
    13  H    0.094945
    14  H    0.104001
    15  H    0.286942
    16  H    0.121848
    17  H    0.129721
    18  H    0.117784
    19  H    0.202797
 Sum of Mulliken charges =   0.00000

 Dipole moment (field-independent basis, Debye):
    X=              1.5150    Y=             -0.2194    Z=             -0.8528  Tot=              1.7523
 Quadrupole moment (field-independent basis, Debye-Ang):
   XX=            -55.5399   YY=            -51.3515   ZZ=            -52.5595
   XY=             -0.0011   XZ=              2.7872   YZ=              1.9691

  Exact polarizability: 107.093  -9.567  69.305  -1.611   2.029  62.332
 Approx polarizability: 144.128 -21.751 110.703  -2.888   1.766  93.605

                      1                      2                      3
                      A                      A                      A
 Frequencies --     65.4766                94.7554                98.4473
 Red. masses --      4.6488                 5.3406                 1.9645
 Frc consts  --      0.0117                 0.0283                 0.0112
 IR Inten    --      0.9080                 2.2527                 4.1137

                      4                      5                      6
                      A                      A                      A
 Frequencies --    146.8622               186.5457               224.9189
 Red. masses --      3.8057                 2.4425                 1.5128
 Frc consts  --      0.0484                 0.0501                 0.0451
 IR Inten    --      3.2936                27.1202                29.5853

                      7                      8                      9
                      A                      A                      A
 Frequencies --    292.6714               305.3379               340.2420
 Red. masses --      1.3109                 3.0488                 2.5504
 Frc consts  --      0.0662                 0.1675                 0.1740
 IR Inten    --     78.0240                24.8976                 9.9428

                     10                     11                     12
                      A                      A                      A
 Frequencies --    387.8666               416.0252               452.5141
 Red. masses --      2.9632                 6.4269                 2.8872
 Frc consts  --      0.2626                 0.6554                 0.3483
 IR Inten    --      7.1072                 5.0703                 8.3791

                     13                     14                     15
                      A                      A                      A
 Frequencies --    534.1775               585.3463               657.4763
 Red. masses --      3.6315                 1.2284                 2.8522
 Frc consts  --      0.6105                 0.2480                 0.7264
 IR Inten    --      2.2080                49.3830                11.4664

                     16                     17                     18
                      A                      A                      A
 Frequencies --    668.2248               735.9588               792.1870
 Red. masses --      1.3775                 2.5036                 1.2999
 Frc consts  --      0.3624                 0.7990                 0.4806
 IR Inten    --     29.8762                 4.8379                 1.2820

                     19                     20                     21
                      A                      A                      A
 Frequencies --    825.6566               862.2324               927.7611
 Red. masses --      3.1991                 2.2293                 1.5879
 Frc consts  --      1.2849                 0.9765                 0.8053
 IR Inten    --     18.7782                18.7819                 4.0633

                     22                     23                     24
                      A                      A                      A
 Frequencies --    984.4822              1015.3999              1031.9266
 Red. masses --      2.2839                 2.0366                 2.3423
 Frc consts  --      1.3042                 1.2372                 1.4696
 IR Inten    --     20.3985                21.9590                23.6304

                     25                     26                     27
                      A                      A                      A
 Frequencies --   1062.5425              1074.4094              1081.9464
 Red. masses --      1.4749                 2.9057                 2.4565
 Frc consts  --      0.9811                 1.9762                 1.6943
 IR Inten    --     30.2686                69.3243                23.7169

                     28                     29                     30
                      A                      A                      A
 Frequencies --   1123.3280              1160.2401              1220.8515
 Red. masses --      1.5074                 1.2922                 1.8266
 Frc consts  --      1.1207                 1.0249                 1.6041
 IR Inten    --      2.7314                11.0564                36.2652

                     31                     32                     33
                      A                      A                      A
 Frequencies --   1271.7964              1307.9017              1333.6013
 Red. masses --      1.5968                 1.3043                 1.4389
 Frc consts  --      1.5217                 1.3146                 1.5077
 IR Inten    --     61.1146                12.1842                18.9378

                     34                     35                     36
                      A                      A                      A
 Frequencies --   1363.0235              1397.1931              1416.1491
 Red. masses --      1.6679                 1.2684                 1.2833
 Frc consts  --      1.8257                 1.4589                 1.5164
 IR Inten    --      3.8204                21.4737                28.7027

                     37                     38                     39
                      A                      A                      A
 Frequencies --   1425.7512              1474.9239              1476.6939
 Red. masses --      1.5896                 1.3673                 1.1828
 Frc consts  --      1.9039                 1.7524                 1.5196
 IR Inten    --     38.9793                19.8027                 9.7470

                     40                     41                     42
                      A                      A                      A
 Frequencies --   1513.6247              2222.3869              3016.5194
 Red. masses --      1.0908                 6.0550                 1.0607
 Frc consts  --      1.4724                17.6200                 5.6867
 IR Inten    --      0.5670                18.3697                 8.4759

                     43                     44                     45
                      A                      A                      A
 Frequencies --   3020.1841              3067.2711              3088.0459
 Red. masses --      1.0667                 1.0939                 1.1040
 Frc consts  --      5.7327                 6.0638                 6.2027
 IR Inten    --     48.3907                 6.9639                43.5436

                     46                     47                     48
                      A                      A                      A
 Frequencies --   3137.4946              3153.7410              3234.8609
 Red. masses --      1.0544                 1.0875                 1.1174
 Frc consts  --      6.1151                 6.3726                 6.8893
 IR Inten    --      6.7908                 4.7909                 3.7333

                     49                     50                     51
                      A                      A                      A
 Frequencies --   3501.5739              3732.7706              3817.4705
 Red. masses --      1.1587                 1.0662                 1.0662
 Frc consts  --      8.3702                 8.7525                 9.1544
 IR Inten    --     90.2488                81.2474                18.3790

 - Thermochemistry -
 -------------------
 Temperature   298.150 Kelvin.  Pressure   1.00000 Atm.
 Atom     1 has atomic number  8 and mass  15.99491

 Molecular mass:   126.06808 amu.
 Principal axes and moments of inertia in atomic units:
                           1         2         3
     Eigenvalues --   392.951672351.960822451.06461
           X            0.99999  -0.00092   0.00358
           Y            0.00070   0.99820   0.06004
           Z           -0.00363  -0.06003   0.99819
 This molecule is an asymmetric top.
 Rotational symmetry number  1.
 Rotational temperatures (Kelvin)      0.22042     0.03683     0.03534
 Rotational constants (GHZ):           4.59278     0.76733     0.73631
 Zero-point vibrational energy     408696.9 (Joules/Mol)
                                   97.68091 (Kcal/Mol)
 Warning -- explicit consideration of  14 degrees of freedom as
           vibrations may cause significant error
 Vibrational temperatures:     94.21   136.33   141.64   211.30   268.40
          (Kelvin)            323.61   421.09   439.31   489.53   558.05
                              598.57   651.07   768.56   842.18   945.96
                              961.43  1058.88  1139.78  1187.93  1240.56
                             1334.84  1416.45  1460.93  1484.71  1528.76
                             1545.83  1556.68  1616.22  1669.32  1756.53
                             1829.83  1881.78  1918.75  1961.08  2010.25
                             2037.52  2051.34  2122.08  2124.63  2177.77
                             3197.52  4340.09  4345.37  4413.11  4443.00
                             4514.15  4537.52  4654.24  5037.98  5370.62
                             5492.48

 Zero-point correction=                           0.155664 (Hartree/Particle)
 Thermal correction to Energy=                    0.165941
 Thermal correction to Enthalpy=                  0.166886
 Thermal correction to Gibbs Free Energy=         0.120264
 Sum of electronic and zero-point Energies=           -422.970999
 Sum of electronic and thermal Energies=              -422.960722
 Sum of electronic and thermal Enthalpies=            -422.959778
 Sum of electronic and thermal Free Energies=         -423.006399

                     E (Thermal)             CV                S
                      KCal/Mol        Cal/Mol-Kelvin    Cal/Mol-Kelvin
 Total                  104.130             37.528             98.124
 Electronic               0.000              0.000              0.000
 Translational            0.889              2.981             40.409
 Rotational               0.889              2.981             29.206
 Vibrational            102.352             31.566             28.509
 Vibration     1          0.597              1.971              4.285
 Vibration     2          0.603              1.953              3.559
 Vibration     3          0.604              1.950              3.485
 Vibration     4          0.617              1.906              2.712
 Vibration     5          0.632              1.858              2.262
 Vibration     6          0.650              1.803              1.919
 Vibration     7          0.688              1.687              1.458
 Vibration     8          0.696              1.664              1.387
 Vibration     9          0.720              1.595              1.211
 Vibration    10          0.756              1.496              1.008
 Vibration    11          0.779              1.435              0.906
 Vibration    12          0.811              1.355              0.788
 Vibration    13          0.889              1.174              0.578
 Vibration    14          0.942              1.063              0.476

 Normal termination of Gaussian 09 at Tue Jan 28 13:05:57 2020.
