 Gaussian 09, Revision D.01,
 Gaussian 09:  ES64L-G09RevD.01 24-Apr-2013

 -----------------------------
 # b3lyp 6-31G(2df,p) opt Freq
 -----------------------------

 -----
 titel
 -----
 Symbolic Z-matrix:
 Charge =  0 Multiplicity = 1

 SCF Done:  E(RB3LYP) =  -423.168058656     A.U. after   13 cycles
 Optimization completed.
    -- Stationary point found.
 Normal termination of Gaussian 09 at Tue Jan 28 14:10:16 2020.

 ----------------------------------------------------------------------
 #N Geom=AllCheck Guess=TCheck SCRF=Check GenChk RB3LYP/6-31G(2df,p) Fr
 eq
 ----------------------------------------------------------------------

 Structure from the checkpoint file:  "/scratch/puck/g09_4be8cd31-9e3c-4f50-bede-4abe394fc8fb/Gau-144462.chk"
 -----
 titel
 -----
 Charge =  0 Multiplicity = 1

                         Standard orientation:
 ---------------------------------------------------------------------
 Center     Atomic      Atomic             Coordinates (Angstroms)
 Number     Number       Type             X           Y           Z
 ---------------------------------------------------------------------
      1          8           0        3.555556   -0.104253   -0.047074
      2          6           0        2.191406   -0.274893   -0.398526
      3          6           0        1.362962    0.621450    0.526065
      4          6           0       -0.110127    0.472587    0.305397
      5          6           0       -0.961277    1.364034   -0.217109
      6          6           0       -2.386441    0.854329   -0.283202
      7          6           0       -2.260998   -0.573810    0.235244
      8          8           0       -1.426500   -1.420119   -0.558613
      9          6           0       -0.856174   -0.792982    0.615584
     10          1           0        4.086748   -0.652862   -0.631351
     11          1           0        2.003131    0.008759   -1.445280
     12          1           0        1.875245   -1.323737   -0.283905
     13          1           0        1.621817    0.358451    1.560643
     14          1           0        1.670236    1.661524    0.377077
     15          1           0       -0.677389    2.341785   -0.592246
     16          1           0       -3.064187    1.444766    0.347264
     17          1           0       -2.794237    0.881305   -1.301117
     18          1           0       -3.097545   -1.068534    0.721394
     19          1           0       -0.532372   -1.480769    1.392297
 ---------------------------------------------------------------------

 SCF Done:  E(RB3LYP) =  -423.168058656     A.U. after    1 cycles

 The electronic state is 1-A.
 Alpha  occ. eigenvalues --  -19.14361 -19.13262 -10.23291 -10.23203 -10.22664
 Alpha  occ. eigenvalues --  -10.19080 -10.18773 -10.18516 -10.18334  -1.06392
 Alpha  occ. eigenvalues --   -1.01372  -0.82647  -0.76574  -0.69760  -0.65863
 Alpha  occ. eigenvalues --   -0.61423  -0.57906  -0.53997  -0.52328  -0.48966
 Alpha  occ. eigenvalues --   -0.46568  -0.43882  -0.42487  -0.41184  -0.39995
 Alpha  occ. eigenvalues --   -0.39125  -0.37522  -0.35379  -0.34996  -0.32972
 Alpha  occ. eigenvalues --   -0.30247  -0.26614  -0.25791  -0.23710
 Alpha virt. eigenvalues --    0.00569   0.07958   0.10380   0.11299   0.12164
 Alpha virt. eigenvalues --    0.13729   0.13990   0.14571   0.16049   0.16212
 Alpha virt. eigenvalues --    0.17682   0.19110   0.19225   0.20241   0.22475

 Mulliken charges:
               1
     1  O   -0.418967
     2  C   -0.065299
     3  C   -0.308992
     4  C    0.333988
     5  C   -0.188026
     6  C   -0.287172
     7  C    0.046344
     8  O   -0.261292
     9  C   -0.070140
    10  H    0.286873
    11  H    0.094952
    12  H    0.096266
    13  H    0.112111
    14  H    0.110806
    15  H    0.095400
    16  H    0.111358
    17  H    0.124202
    18  H    0.094737
    19  H    0.092851
 Sum of Mulliken charges =   0.00000

 Dipole moment (field-independent basis, Debye):
    X=             -0.4186    Y=              0.3992    Z=              0.1663  Tot=              0.6019
 Quadrupole moment (field-independent basis, Debye-Ang):
   XX=            -49.8508   YY=            -53.3296   ZZ=            -52.6105
   XY=             -5.7235   XZ=             -5.6232   YZ=             -2.4038

  Exact polarizability:  97.503  -5.614  74.101   4.007  -4.967  60.142
 Approx polarizability: 127.691 -12.612 115.750  10.530  -6.687  96.732

                      1                      2                      3
                      A                      A                      A
 Frequencies --     68.6766                87.6570                97.3273
 Red. masses --      2.7384                 3.8286                 3.2641
 Frc consts  --      0.0076                 0.0173                 0.0182
 IR Inten    --      2.5346                 3.7473                 5.4915

                      4                      5                      6
                      A                      A                      A
 Frequencies --    252.5376               281.1257               301.0617
 Red. masses --      1.0814                 3.0692                 2.6623
 Frc consts  --      0.0406                 0.1429                 0.1422
 IR Inten    --    101.5784                 1.9785                 2.5908

                      7                      8                      9
                      A                      A                      A
 Frequencies --    332.2194               355.0787               399.3372
 Red. masses --      2.3721                 5.5365                 3.2639
 Frc consts  --      0.1543                 0.4113                 0.3067
 IR Inten    --      3.7501                 6.4798                 9.3256

                     10                     11                     12
                      A                      A                      A
 Frequencies --    597.9614               704.3532               749.8962
 Red. masses --      4.3095                 4.9738                 5.3542
 Frc consts  --      0.9079                 1.4539                 1.7740
 IR Inten    --     12.1590                 4.6733                 1.0506

                     13                     14                     15
                      A                      A                      A
 Frequencies --    796.8701               818.7708               831.8679
 Red. masses --      1.1901                 2.5113                 1.6702
 Frc consts  --      0.4452                 0.9919                 0.6810
 IR Inten    --      1.6319                 5.3546                 2.6439

                     16                     17                     18
                      A                      A                      A
 Frequencies --    865.6066               887.2236               925.4779
 Red. masses --      2.2260                 2.8665                 2.5321
 Frc consts  --      0.9827                 1.3294                 1.2778
 IR Inten    --     41.0283                 7.1633                 4.1203

                     19                     20                     21
                      A                      A                      A
 Frequencies --    954.8390              1008.3781              1010.8422
 Red. masses --      2.2088                 2.6344                 1.8607
 Frc consts  --      1.1865                 1.5783                 1.1202
 IR Inten    --     10.5791                30.0144                 3.3597

                     22                     23                     24
                      A                      A                      A
 Frequencies --   1034.7462              1069.6907              1078.9042
 Red. masses --      1.7205                 1.6765                 5.0459
 Frc consts  --      1.0853                 1.1302                 3.4606
 IR Inten    --      9.2310                 2.3584                87.5831

                     25                     26                     27
                      A                      A                      A
 Frequencies --   1103.6555              1183.3891              1189.9122
 Red. masses --      1.2796                 1.2296                 1.9884
 Frc consts  --      0.9183                 1.0145                 1.6588
 IR Inten    --      0.9859                 3.5835                 3.4933

                     28                     29                     30
                      A                      A                      A
 Frequencies --   1214.3850              1238.6617              1254.4963
 Red. masses --      1.2547                 1.2001                 1.5097
 Frc consts  --      1.0902                 1.0848                 1.3998
 IR Inten    --      0.6185                36.1824                 4.1243

                     31                     32                     33
                      A                      A                      A
 Frequencies --   1279.6061              1308.6539              1310.1115
 Red. masses --      1.3240                 1.3947                 1.2880
 Frc consts  --      1.2773                 1.4073                 1.3025
 IR Inten    --      1.4335                 5.0295                 3.1658

                     34                     35                     36
                      A                      A                      A
 Frequencies --   1340.0062              1367.3179              1410.0663
 Red. masses --      1.5855                 1.8404                 3.2776
 Frc consts  --      1.6773                 2.0272                 3.8396
 IR Inten    --     13.2347                 4.2033                11.7230

                     37                     38                     39
                      A                      A                      A
 Frequencies --   1456.9965              1461.4907              1486.8443
 Red. masses --      1.4268                 1.1016                 1.0934
 Frc consts  --      1.7845                 1.3863                 1.4241
 IR Inten    --      7.9108                 2.6034                 2.4558

                     40                     41                     42
                      A                      A                      A
 Frequencies --   1526.0377              1699.6043              2974.1938
 Red. masses --      1.0862                 7.3037                 1.0553
 Frc consts  --      1.4904                12.4304                 5.5003
 IR Inten    --      3.0935                 0.3167                44.3055

                     43                     44                     45
                      A                      A                      A
 Frequencies --   3002.8242              3022.9380              3024.2428
 Red. masses --      1.1032                 1.0658                 1.0616
 Frc consts  --      5.8611                 5.7385                 5.7207
 IR Inten    --     33.4994                34.6057                32.2719

                     46                     47                     48
                      A                      A                      A
 Frequencies --   3060.0243              3083.0914              3144.3363
 Red. masses --      1.0995                 1.0981                 1.0872
 Frc consts  --      6.0656                 6.1501                 6.3329
 IR Inten    --     13.8292                26.0524                19.7923

                     49                     50                     51
                      A                      A                      A
 Frequencies --   3156.2614              3187.4408              3830.8712
 Red. masses --      1.0953                 1.0935                 1.0664
 Frc consts  --      6.4287                 6.5458                 9.2204
 IR Inten    --     36.2685                12.0658                23.4184

 - Thermochemistry -
 -------------------
 Temperature   298.150 Kelvin.  Pressure   1.00000 Atm.
 Atom     1 has atomic number  8 and mass  15.99491

 Molecular mass:   126.06808 amu.
 Principal axes and moments of inertia in atomic units:
                           1         2         3
     Eigenvalues --   456.857541963.900192221.99513
           X            0.99988  -0.01466  -0.00522
           Y            0.01444   0.99912  -0.03931
           Z            0.00580   0.03923   0.99921
 This molecule is an asymmetric top.
 Rotational symmetry number  1.
 Warning -- assumption of classical behavior for rotation
           may cause significant error
 Rotational temperatures (Kelvin)      0.18959     0.04410     0.03898
 Rotational constants (GHZ):           3.95034     0.91896     0.81222
 Zero-point vibrational energy     417663.6 (Joules/Mol)
                                   99.82401 (Kcal/Mol)
 Warning -- explicit consideration of  10 degrees of freedom as
           vibrations may cause significant error
 Vibrational temperatures:     98.81   126.12   140.03   363.34   404.48
          (Kelvin)            433.16   477.99   510.88   574.56   860.33
                             1013.41  1078.93  1146.52  1178.03  1196.87
                             1245.41  1276.52  1331.55  1373.80  1450.83
                             1454.37  1488.77  1539.04  1552.30  1587.91
                             1702.63  1712.02  1747.23  1782.16  1804.94
                             1841.07  1882.86  1884.96  1927.97  1967.26
                             2028.77  2096.29  2102.76  2139.23  2195.63
                             2445.35  4279.20  4320.39  4349.33  4351.21
                             4402.69  4435.88  4523.99  4541.15  4586.01
                             5511.76

 Zero-point correction=                           0.159080 (Hartree/Particle)
 Thermal correction to Energy=                    0.167743
 Thermal correction to Enthalpy=                  0.168688
 Thermal correction to Gibbs Free Energy=         0.125024
 Sum of electronic and zero-point Energies=           -423.008979
 Sum of electronic and thermal Energies=              -423.000315
 Sum of electronic and thermal Enthalpies=            -422.999371
 Sum of electronic and thermal Free Energies=         -423.043035

                     E (Thermal)             CV                S
                      KCal/Mol        Cal/Mol-Kelvin    Cal/Mol-Kelvin
 Total                  105.261             32.143             91.898
 Electronic               0.000              0.000              0.000
 Translational            0.889              2.981             40.409
 Rotational               0.889              2.981             29.079
 Vibrational            103.483             26.182             22.410
 Vibration     1          0.598              1.969              4.191
 Vibration     2          0.601              1.958              3.712
 Vibration     3          0.603              1.951              3.507
 Vibration     4          0.664              1.759              1.713
 Vibration     5          0.681              1.709              1.527
 Vibration     6          0.693              1.672              1.411
 Vibration     7          0.714              1.611              1.249
 Vibration     8          0.731              1.565              1.144
 Vibration     9          0.765              1.472              0.965
 Vibration    10          0.956              1.036              0.453

 Normal termination of Gaussian 09 at Tue Jan 28 14:54:16 2020.
