 Gaussian 09, Revision D.01,
 Gaussian 09:  ES64L-G09RevD.01 24-Apr-2013

 -----------------------------
 # b3lyp 6-31G(2df,p) opt Freq
 -----------------------------

 -----
 titel
 -----
 Symbolic Z-matrix:
 Charge =  0 Multiplicity = 1

 SCF Done:  E(RB3LYP) =  -423.189651689     A.U. after   13 cycles
 Optimization completed.
    -- Stationary point found.
 Normal termination of Gaussian 09 at Mon Jan 27 22:02:33 2020.

 ----------------------------------------------------------------------
 #N Geom=AllCheck Guess=TCheck SCRF=Check GenChk RB3LYP/6-31G(2df,p) Fr
 eq
 ----------------------------------------------------------------------

 Structure from the checkpoint file:  "/scratch/puck/g09_417067c4-1ec1-4678-a28d-931035f07c7e/Gau-182170.chk"
 -----
 titel
 -----
 Charge =  0 Multiplicity = 1

                         Standard orientation:
 ---------------------------------------------------------------------
 Center     Atomic      Atomic             Coordinates (Angstroms)
 Number     Number       Type             X           Y           Z
 ---------------------------------------------------------------------
      1          6           0        2.632861    0.168682   -0.409149
      2          6           0        1.258546   -0.267252   -0.027468
      3          6           0        0.533764   -1.299215   -0.454966
      4          6           0       -0.840854   -1.197795    0.186325
      5          6           0       -1.772606   -0.300239   -0.649993
      6          8           0       -1.133828    0.933083   -0.965048
      7          6           0       -0.482812    1.551728    0.139014
      8          6           0        0.356382    0.524092    0.921308
      9          8           0       -0.571557   -0.461013    1.389442
     10          1           0        2.619177    1.164420   -0.870654
     11          1           0        3.287194    0.240209    0.468874
     12          1           0        3.089936   -0.523572   -1.120935
     13          1           0        0.812617   -2.037038   -1.196181
     14          1           0       -1.320491   -2.145527    0.447392
     15          1           0       -2.035509   -0.758180   -1.609051
     16          1           0       -2.694201   -0.126327   -0.072864
     17          1           0        0.129967    2.355606   -0.282585
     18          1           0       -1.217064    1.992395    0.831345
     19          1           0        0.859778    0.981444    1.779079
 ---------------------------------------------------------------------

 SCF Done:  E(RB3LYP) =  -423.189651689     A.U. after    1 cycles

 The electronic state is 1-A.
 Alpha  occ. eigenvalues --  -19.13667 -19.13402 -10.23188 -10.23187 -10.22590
 Alpha  occ. eigenvalues --  -10.22438 -10.18938 -10.18882 -10.17643  -1.05438
 Alpha  occ. eigenvalues --   -1.01030  -0.80355  -0.77706  -0.70849  -0.66815
 Alpha  occ. eigenvalues --   -0.65572  -0.55732  -0.53694  -0.51195  -0.47418
 Alpha  occ. eigenvalues --   -0.46425  -0.46078  -0.42890  -0.41791  -0.41350
 Alpha  occ. eigenvalues --   -0.39855  -0.37674  -0.36497  -0.35288  -0.33395
 Alpha  occ. eigenvalues --   -0.31585  -0.26874  -0.24321  -0.22641
 Alpha virt. eigenvalues --    0.01593   0.09312   0.10864   0.12191   0.13015
 Alpha virt. eigenvalues --    0.14059   0.14377   0.14980   0.15905   0.16948
 Alpha virt. eigenvalues --    0.17254   0.18271   0.19890   0.21331   0.21987

 Mulliken charges:
               1
     1  C   -0.505906
     2  C    0.360469
     3  C   -0.196271
     4  C    0.010417
     5  C   -0.073343
     6  O   -0.259123
     7  C   -0.076751
     8  C   -0.045262
     9  O   -0.264777
    10  H    0.133277
    11  H    0.129058
    12  H    0.129743
    13  H    0.099152
    14  H    0.080527
    15  H    0.105182
    16  H    0.095196
    17  H    0.104587
    18  H    0.096516
    19  H    0.077309
 Sum of Mulliken charges =   0.00000

 Dipole moment (field-independent basis, Debye):
    X=              1.0192    Y=             -0.1548    Z=             -0.4068  Tot=              1.1082
 Quadrupole moment (field-independent basis, Debye-Ang):
   XX=            -50.2781   YY=            -50.5266   ZZ=            -56.6995
   XY=              2.9351   XZ=              0.0125   YZ=              4.3738

  Exact polarizability:  85.317   8.667  78.037   0.210   7.870  63.750
 Approx polarizability: 115.167  18.600 120.591   2.295  12.769 101.318

                      1                      2                      3
                      A                      A                      A
 Frequencies --    141.5669               171.5172               239.1818
 Red. masses --      2.6378                 1.1420                 2.3335
 Frc consts  --      0.0311                 0.0198                 0.0787
 IR Inten    --      1.4454                 0.1880                 1.1141

                      4                      5                      6
                      A                      A                      A
 Frequencies --    279.6894               333.2587               394.9396
 Red. masses --      2.9373                 2.5550                 2.4063
 Frc consts  --      0.1354                 0.1672                 0.2211
 IR Inten    --      8.7146                 0.3557                 0.7772

                      7                      8                      9
                      A                      A                      A
 Frequencies --    441.6519               460.1994               582.1401
 Red. masses --      6.2786                 3.0814                 3.7744
 Frc consts  --      0.7216                 0.3845                 0.7536
 IR Inten    --      1.3912                 0.1857                 1.7489

                     10                     11                     12
                      A                      A                      A
 Frequencies --    656.0601               702.3895               798.6537
 Red. masses --      4.5545                 3.6526                 1.9010
 Frc consts  --      1.1550                 1.0617                 0.7144
 IR Inten    --     10.9412                18.5144                 4.0116

                     13                     14                     15
                      A                      A                      A
 Frequencies --    838.6736               850.8057               862.0530
 Red. masses --      3.3076                 2.8890                 2.7824
 Frc consts  --      1.3707                 1.2321                 1.2183
 IR Inten    --      4.9922                21.1028                15.0403

                     16                     17                     18
                      A                      A                      A
 Frequencies --    896.8494               917.3159               981.7275
 Red. masses --      2.9097                 2.1597                 2.5241
 Frc consts  --      1.3789                 1.0707                 1.4333
 IR Inten    --     41.5848                13.1354                 7.0487

                     19                     20                     21
                      A                      A                      A
 Frequencies --    992.0069              1009.8190              1034.4318
 Red. masses --      2.0540                 1.8422                 1.6887
 Frc consts  --      1.1909                 1.1068                 1.0646
 IR Inten    --      5.2032                 2.5315                 2.3988

                     22                     23                     24
                      A                      A                      A
 Frequencies --   1071.0115              1079.2533              1095.7915
 Red. masses --      1.7609                 3.3537                 2.2854
 Frc consts  --      1.1901                 2.3015                 1.6169
 IR Inten    --      3.3306                29.2795                 7.7153

                     25                     26                     27
                      A                      A                      A
 Frequencies --   1129.0212              1195.4458              1232.4916
 Red. masses --      7.5028                 2.1909                 1.1331
 Frc consts  --      5.6348                 1.8447                 1.0141
 IR Inten    --     77.6286                 3.6835                 6.8679

                     28                     29                     30
                      A                      A                      A
 Frequencies --   1264.0208              1268.7072              1298.7480
 Red. masses --      1.3799                 1.3484                 1.3232
 Frc consts  --      1.2990                 1.2788                 1.3150
 IR Inten    --      1.3693                 1.2087                 3.0927

                     31                     32                     33
                      A                      A                      A
 Frequencies --   1318.8897              1327.6881              1361.0059
 Red. masses --      1.4729                 1.8012                 1.4553
 Frc consts  --      1.5095                 1.8707                 1.5883
 IR Inten    --      2.6621                 0.8713                 8.2624

                     34                     35                     36
                      A                      A                      A
 Frequencies --   1371.2625              1409.3486              1416.3335
 Red. masses --      1.3612                 1.3606                 1.2732
 Frc consts  --      1.5081                 1.5923                 1.5048
 IR Inten    --      0.1406                 3.6798                 1.5379

                     37                     38                     39
                      A                      A                      A
 Frequencies --   1478.0249              1482.4577              1486.7166
 Red. masses --      1.0557                 1.0699                 1.0617
 Frc consts  --      1.3588                 1.3853                 1.3826
 IR Inten    --      3.8808                 2.5063                 5.2936

                     40                     41                     42
                      A                      A                      A
 Frequencies --   1492.0825              1719.2733              2983.1389
 Red. masses --      1.1013                 7.3905                 1.0664
 Frc consts  --      1.4446                12.8711                 5.5914
 IR Inten    --      4.0338                 7.7478                43.7545

                     43                     44                     45
                      A                      A                      A
 Frequencies --   2988.3107              3017.8194              3062.9975
 Red. masses --      1.0671                 1.0384                 1.0937
 Frc consts  --      5.6143                 5.5718                 6.0458
 IR Inten    --     74.6823                24.3920                16.1986

                     46                     47                     48
                      A                      A                      A
 Frequencies --   3064.2258              3072.9566              3074.2338
 Red. masses --      1.0926                 1.0909                 1.0948
 Frc consts  --      6.0443                 6.0696                 6.0964
 IR Inten    --     47.3889                49.9593                37.7252

                     49                     50                     51
                      A                      A                      A
 Frequencies --   3079.4839              3113.4431              3216.6699
 Red. masses --      1.0944                 1.0987                 1.0962
 Frc consts  --      6.1148                 6.2748                 6.6827
 IR Inten    --     29.8368                17.3848                 7.5390

 - Thermochemistry -
 -------------------
 Temperature   298.150 Kelvin.  Pressure   1.00000 Atm.
 Atom     1 has atomic number  6 and mass  12.00000

 Molecular mass:   126.06808 amu.
 Principal axes and moments of inertia in atomic units:
                           1         2         3
     Eigenvalues --   669.252351076.566291203.76803
           X            0.99928   0.03707  -0.00839
           Y           -0.03551   0.98921   0.14213
           Z            0.01357  -0.14173   0.98981
 This molecule is an asymmetric top.
 Rotational symmetry number  1.
 Warning -- assumption of classical behavior for rotation
           may cause significant error
 Rotational temperatures (Kelvin)      0.12942     0.08045     0.07195
 Rotational constants (GHZ):           2.69665     1.67639     1.49924
 Zero-point vibrational energy     423213.6 (Joules/Mol)
                                  101.15047 (Kcal/Mol)
 Warning -- explicit consideration of   9 degrees of freedom as
           vibrations may cause significant error
 Vibrational temperatures:    203.68   246.77   344.13   402.41   479.48
          (Kelvin)            568.23   635.44   662.12   837.57   943.92
                             1010.58  1149.08  1206.66  1224.12  1240.30
                             1290.36  1319.81  1412.49  1427.27  1452.90
                             1488.31  1540.94  1552.80  1576.60  1624.41
                             1719.98  1773.28  1818.64  1825.38  1868.61
                             1897.59  1910.24  1958.18  1972.94  2027.74
                             2037.79  2126.55  2132.92  2139.05  2146.77
                             2473.65  4292.07  4299.51  4341.96  4406.96
                             4408.73  4421.29  4423.13  4430.68  4479.54
                             4628.06

 Zero-point correction=                           0.161194 (Hartree/Particle)
 Thermal correction to Energy=                    0.168643
 Thermal correction to Enthalpy=                  0.169587
 Thermal correction to Gibbs Free Energy=         0.129614
 Sum of electronic and zero-point Energies=           -423.028458
 Sum of electronic and thermal Energies=              -423.021008
 Sum of electronic and thermal Enthalpies=            -423.020064
 Sum of electronic and thermal Free Energies=         -423.060037

                     E (Thermal)             CV                S
                      KCal/Mol        Cal/Mol-Kelvin    Cal/Mol-Kelvin
 Total                  105.825             29.781             84.131
 Electronic               0.000              0.000              0.000
 Translational            0.889              2.981             40.409
 Rotational               0.889              2.981             28.252
 Vibrational            104.048             23.819             15.470
 Vibration     1          0.615              1.912              2.783
 Vibration     2          0.626              1.878              2.419
 Vibration     3          0.657              1.781              1.809
 Vibration     4          0.680              1.711              1.536
 Vibration     5          0.715              1.609              1.244
 Vibration     6          0.762              1.481              0.981
 Vibration     7          0.801              1.379              0.821
 Vibration     8          0.818              1.338              0.766
 Vibration     9          0.939              1.070              0.481

 Normal termination of Gaussian 09 at Mon Jan 27 22:51:29 2020.
