 Gaussian 09, Revision D.01,
 Gaussian 09:  ES64L-G09RevD.01 24-Apr-2013

 -----------------------------
 # b3lyp 6-31G(2df,p) opt Freq
 -----------------------------

 -----
 titel
 -----
 Symbolic Z-matrix:
 Charge =  0 Multiplicity = 1

 SCF Done:  E(RB3LYP) =  -423.202015726     A.U. after   14 cycles
 Optimization completed.
    -- Stationary point found.
 Normal termination of Gaussian 09 at Mon Jan 27 12:46:19 2020.

 ----------------------------------------------------------------------
 #N Geom=AllCheck Guess=TCheck SCRF=Check GenChk RB3LYP/6-31G(2df,p) Fr
 eq
 ----------------------------------------------------------------------

 Structure from the checkpoint file:  "/scratch/puck/g09_7debfd9d-78a0-402e-b446-40fdcb5043f7/Gau-73858.chk"
 -----
 titel
 -----
 Charge =  0 Multiplicity = 1

                         Standard orientation:
 ---------------------------------------------------------------------
 Center     Atomic      Atomic             Coordinates (Angstroms)
 Number     Number       Type             X           Y           Z
 ---------------------------------------------------------------------
      1          6           0       -2.504934    0.174241   -0.115310
      2          6           0       -1.670402   -1.134068   -0.066684
      3          6           0       -0.289895   -0.704708    0.454132
      4          8           0        0.768994   -1.381565   -0.228538
      5          6           0        1.998248   -0.752529    0.027318
      6          8           0        2.052574    0.571537   -0.439457
      7          6           0        1.109140    1.412463    0.231340
      8          6           0       -0.244728    0.780853    0.169781
      9          6           0       -1.446540    1.255327   -0.144691
     10          1           0       -3.170808    0.214842   -0.984282
     11          1           0       -3.149386    0.276523    0.768574
     12          1           0       -2.131932   -1.918957    0.536174
     13          1           0       -1.526016   -1.525806   -1.077586
     14          1           0       -0.174360   -0.896346    1.536885
     15          1           0        2.212682   -0.774654    1.114444
     16          1           0        2.762262   -1.309645   -0.518133
     17          1           0        1.425304    1.548629    1.281123
     18          1           0        1.144479    2.386235   -0.263118
     19          1           0       -1.670103    2.289923   -0.385431
 ---------------------------------------------------------------------

 SCF Done:  E(RB3LYP) =  -423.202015726     A.U. after    1 cycles

 The electronic state is 1-A.
 Alpha  occ. eigenvalues --  -19.14319 -19.14044 -10.27005 -10.23607 -10.23283
 Alpha  occ. eigenvalues --  -10.18892 -10.18579 -10.18310 -10.18244  -1.06893
 Alpha  occ. eigenvalues --   -1.00250  -0.84731  -0.74929  -0.71778  -0.66815
 Alpha  occ. eigenvalues --   -0.63233  -0.58274  -0.53957  -0.50932  -0.49011
 Alpha  occ. eigenvalues --   -0.48405  -0.45692  -0.44564  -0.41725  -0.41577
 Alpha  occ. eigenvalues --   -0.37908  -0.36016  -0.35428  -0.35179  -0.33060
 Alpha  occ. eigenvalues --   -0.31408  -0.26901  -0.25728  -0.24608
 Alpha virt. eigenvalues --    0.01433   0.09931   0.10145   0.10919   0.13302
 Alpha virt. eigenvalues --    0.13671   0.14792   0.15778   0.15901   0.17126
 Alpha virt. eigenvalues --    0.18010   0.19241   0.19426   0.21345   0.22375

 Mulliken charges:
               1
     1  C   -0.255071
     2  C   -0.250439
     3  C    0.044619
     4  O   -0.251069
     5  C    0.022117
     6  O   -0.236352
     7  C   -0.214393
     8  C    0.345779
     9  C   -0.214047
    10  H    0.109256
    11  H    0.109407
    12  H    0.100928
    13  H    0.124849
    14  H    0.066721
    15  H    0.069760
    16  H    0.117665
    17  H    0.096963
    18  H    0.119615
    19  H    0.093691
 Sum of Mulliken charges =   0.00000

 Dipole moment (field-independent basis, Debye):
    X=             -1.1361    Y=              0.7248    Z=              1.3020  Tot=              1.8738
 Quadrupole moment (field-independent basis, Debye-Ang):
   XX=            -51.9286   YY=            -52.6079   ZZ=            -53.4697
   XY=             -1.1484   XZ=              2.1782   YZ=             -0.4611

  Exact polarizability:  96.839  -3.747  76.144   4.074  -1.961  59.574
 Approx polarizability: 133.395  -8.678 108.960   5.598  -3.191  95.316

                      1                      2                      3
                      A                      A                      A
 Frequencies --    108.7489               166.1453               262.9969
 Red. masses --      2.2723                 4.4992                 2.0113
 Frc consts  --      0.0158                 0.0732                 0.0820
 IR Inten    --      0.4184                 1.5819                 0.1203

                      4                      5                      6
                      A                      A                      A
 Frequencies --    336.0654               353.0940               397.4453
 Red. masses --      2.6206                 2.3648                 2.7101
 Frc consts  --      0.1744                 0.1737                 0.2522
 IR Inten    --      0.8833                 4.2936                 6.1434

                      7                      8                      9
                      A                      A                      A
 Frequencies --    451.7805               554.9759               595.5155
 Red. masses --      5.8066                 5.4456                 2.7453
 Frc consts  --      0.6983                 0.9882                 0.5736
 IR Inten    --      3.9318                 0.1517                 0.8791

                     10                     11                     12
                      A                      A                      A
 Frequencies --    653.3567               753.0742               816.8442
 Red. masses --      3.2097                 4.9493                 2.2103
 Frc consts  --      0.8073                 1.6537                 0.8689
 IR Inten    --      3.5678                12.4060                 3.5026

                     13                     14                     15
                      A                      A                      A
 Frequencies --    850.2516               881.9030               921.0542
 Red. masses --      1.4914                 1.5786                 2.5839
 Frc consts  --      0.6353                 0.7234                 1.2915
 IR Inten    --     20.4113                 0.5313                 3.9847

                     16                     17                     18
                      A                      A                      A
 Frequencies --    938.5151               971.9577               984.4059
 Red. masses --      3.8466                 2.6459                 2.2854
 Frc consts  --      1.9962                 1.4727                 1.3049
 IR Inten    --     27.9548                 4.2760                10.1689

                     19                     20                     21
                      A                      A                      A
 Frequencies --   1019.9890              1040.7242              1053.1157
 Red. masses --      2.1784                 3.1610                 4.1376
 Frc consts  --      1.3353                 2.0172                 2.7036
 IR Inten    --     16.1621                82.1766                73.5907

                     22                     23                     24
                      A                      A                      A
 Frequencies --   1069.6372              1125.0869              1161.0501
 Red. masses --      2.0554                 2.7208                 1.6446
 Frc consts  --      1.3856                 2.0292                 1.3062
 IR Inten    --      5.4884                94.2413                34.1056

                     25                     26                     27
                      A                      A                      A
 Frequencies --   1186.0275              1201.7740              1246.1126
 Red. masses --      1.7529                 1.6518                 1.4601
 Frc consts  --      1.4528                 1.4056                 1.3358
 IR Inten    --     17.6919                59.0089                 0.9010

                     28                     29                     30
                      A                      A                      A
 Frequencies --   1253.7654              1282.7738              1301.2285
 Red. masses --      1.2639                 1.4549                 1.2788
 Frc consts  --      1.1705                 1.4105                 1.2757
 IR Inten    --      7.7499                 2.0160                 1.7749

                     31                     32                     33
                      A                      A                      A
 Frequencies --   1324.2471              1328.1624              1354.7387
 Red. masses --      1.1550                 1.5473                 1.9661
 Frc consts  --      1.1934                 1.6081                 2.1260
 IR Inten    --      5.9528                 3.4798                 8.8924

                     34                     35                     36
                      A                      A                      A
 Frequencies --   1370.2892              1389.9471              1442.4279
 Red. masses --      1.3345                 1.3679                 1.2091
 Frc consts  --      1.4764                 1.5570                 1.4822
 IR Inten    --      4.6699                39.3023                15.6057

                     37                     38                     39
                      A                      A                      A
 Frequencies --   1483.2338              1488.1468              1499.5713
 Red. masses --      1.0820                 1.0914                 1.0966
 Frc consts  --      1.4025                 1.4241                 1.4529
 IR Inten    --      1.5791                 2.6418                 1.3459

                     40                     41                     42
                      A                      A                      A
 Frequencies --   1503.3116              1741.1490              2904.5229
 Red. masses --      1.1059                 8.0673                 1.0709
 Frc consts  --      1.4725                14.4095                 5.3229
 IR Inten    --      3.6708                 1.6337                63.9560

                     43                     44                     45
                      A                      A                      A
 Frequencies --   2928.1336              2946.8651              3014.7082
 Red. masses --      1.0800                 1.0715                 1.0681
 Frc consts  --      5.4557                 5.4824                 5.7197
 IR Inten    --     57.7005                81.9595                41.4812

                     46                     47                     48
                      A                      A                      A
 Frequencies --   3057.7443              3070.4826              3097.5514
 Red. masses --      1.0882                 1.0651                 1.0906
 Frc consts  --      5.9949                 5.9164                 6.1652
 IR Inten    --     17.5989                29.1978                24.7126

                     49                     50                     51
                      A                      A                      A
 Frequencies --   3114.5724              3118.2832              3180.9343
 Red. masses --      1.0928                 1.1054                 1.0939
 Frc consts  --      6.2456                 6.3328                 6.5216
 IR Inten    --     37.0995                24.4331                15.9276

 - Thermochemistry -
 -------------------
 Temperature   298.150 Kelvin.  Pressure   1.00000 Atm.
 Atom     1 has atomic number  6 and mass  12.00000

 Molecular mass:   126.06808 amu.
 Principal axes and moments of inertia in atomic units:
                           1         2         3
     Eigenvalues --   549.298021205.332221636.19926
           X            0.99990   0.00439   0.01324
           Y           -0.00434   0.99998  -0.00376
           Z           -0.01326   0.00370   0.99991
 This molecule is an asymmetric top.
 Rotational symmetry number  1.
 Warning -- assumption of classical behavior for rotation
           may cause significant error
 Rotational temperatures (Kelvin)      0.15768     0.07186     0.05294
 Rotational constants (GHZ):           3.28554     1.49730     1.10301
 Zero-point vibrational energy     426459.4 (Joules/Mol)
                                  101.92623 (Kcal/Mol)
 Warning -- explicit consideration of   9 degrees of freedom as
           vibrations may cause significant error
 Vibrational temperatures:    156.47   239.05   378.39   483.52   508.02
          (Kelvin)            571.83   650.01   798.49   856.81   940.03
                             1083.50  1175.26  1223.32  1268.86  1325.19
                             1350.31  1398.43  1416.34  1467.53  1497.37
                             1515.20  1538.97  1618.75  1670.49  1706.43
                             1729.08  1792.88  1803.89  1845.62  1872.18
                             1905.29  1910.93  1949.16  1971.54  1999.82
                             2075.33  2134.04  2141.11  2157.55  2162.93
                             2505.12  4178.96  4212.93  4239.88  4337.49
                             4399.41  4417.73  4456.68  4481.17  4486.51
                             4576.65

 Zero-point correction=                           0.162430 (Hartree/Particle)
 Thermal correction to Energy=                    0.169646
 Thermal correction to Enthalpy=                  0.170590
 Thermal correction to Gibbs Free Energy=         0.130767
 Sum of electronic and zero-point Energies=           -423.039586
 Sum of electronic and thermal Energies=              -423.032370
 Sum of electronic and thermal Enthalpies=            -423.031426
 Sum of electronic and thermal Free Energies=         -423.071249

                     E (Thermal)             CV                S
                      KCal/Mol        Cal/Mol-Kelvin    Cal/Mol-Kelvin
 Total                  106.454             28.736             83.815
 Electronic               0.000              0.000              0.000
 Translational            0.889              2.981             40.409
 Rotational               0.889              2.981             28.473
 Vibrational            104.677             22.774             14.933
 Vibration     1          0.606              1.942              3.291
 Vibration     2          0.624              1.884              2.479
 Vibration     3          0.670              1.741              1.642
 Vibration     4          0.717              1.603              1.231
 Vibration     5          0.729              1.569              1.152
 Vibration     6          0.764              1.476              0.972
 Vibration     7          0.810              1.357              0.790
 Vibration     8          0.910              1.129              0.534
 Vibration     9          0.953              1.041              0.457

 Optimization completed.
    -- Stationary point found.
 Normal termination of Gaussian 09 at Mon Jan 27 13:27:54 2020.
