 Gaussian 09, Revision D.01,
 Gaussian 09:  ES64L-G09RevD.01 24-Apr-2013

 -----------------------------
 # b3lyp 6-31G(2df,p) opt Freq
 -----------------------------

 -----
 titel
 -----
 Symbolic Z-matrix:
 Charge =  0 Multiplicity = 1

 SCF Done:  E(RB3LYP) =  -423.122346768     A.U. after   13 cycles
 Optimization completed.
    -- Stationary point found.
 Normal termination of Gaussian 09 at Mon Jan 27 11:28:58 2020.

 ----------------------------------------------------------------------
 #N Geom=AllCheck Guess=TCheck SCRF=Check GenChk RB3LYP/6-31G(2df,p) Fr
 eq
 ----------------------------------------------------------------------

 Structure from the checkpoint file:  "/scratch/puck/g09_15187f66-0146-4c90-ab08-cb5511f0a918/Gau-61238.chk"
 -----
 titel
 -----
 Charge =  0 Multiplicity = 1

                         Standard orientation:
 ---------------------------------------------------------------------
 Center     Atomic      Atomic             Coordinates (Angstroms)
 Number     Number       Type             X           Y           Z
 ---------------------------------------------------------------------
      1          6           0       -0.140370   -1.324679    1.042385
      2          6           0       -0.677982   -1.354315   -0.366440
      3          8           0       -1.704656   -0.457443   -0.728678
      4          6           0       -1.887267    0.715582    0.079494
      5          6           0       -0.585025    1.529796    0.438292
      6          6           0        0.529224    0.846094   -0.316224
      7          8           0        1.938209    0.971794    0.013004
      8          6           0        2.107589   -0.458570   -0.232674
      9          6           0        0.599375   -0.640428   -0.082070
     10          1           0       -0.645135   -0.772627    1.827132
     11          1           0        0.310121   -2.253761    1.381122
     12          1           0       -0.789541   -2.288417   -0.906406
     13          1           0       -2.560613    1.332593   -0.518571
     14          1           0       -2.418685    0.446792    1.001511
     15          1           0       -0.706699    2.579961    0.158399
     16          1           0       -0.389370    1.491677    1.513820
     17          1           0        0.403186    1.043896   -1.393346
     18          1           0        2.514197   -0.641976   -1.236907
     19          1           0        2.740855   -0.933820    0.522065
 ---------------------------------------------------------------------

 SCF Done:  E(RB3LYP) =  -423.122346768     A.U. after    1 cycles

 The electronic state is 1-A.
 Alpha  occ. eigenvalues --  -19.14789 -19.13170 -10.24368 -10.23951 -10.23536
 Alpha  occ. eigenvalues --  -10.22992 -10.19304 -10.18934 -10.18920  -1.04311
 Alpha  occ. eigenvalues --   -1.02923  -0.85072  -0.78143  -0.69422  -0.68132
 Alpha  occ. eigenvalues --   -0.62628  -0.58198  -0.53441  -0.52055  -0.50636
 Alpha  occ. eigenvalues --   -0.46626  -0.45830  -0.43648  -0.41400  -0.41237
 Alpha  occ. eigenvalues --   -0.39302  -0.37706  -0.35951  -0.34308  -0.31741
 Alpha  occ. eigenvalues --   -0.30318  -0.28225  -0.24720  -0.23138
 Alpha virt. eigenvalues --    0.07392   0.08407   0.09662   0.11237   0.11460
 Alpha virt. eigenvalues --    0.12283   0.12919   0.15387   0.15929   0.17096
 Alpha virt. eigenvalues --    0.17583   0.19247   0.20348   0.21200   0.22687

 Mulliken charges:
               1
     1  C   -0.369098
     2  C    0.018908
     3  O   -0.264219
     4  C   -0.075125
     5  C   -0.318674
     6  C    0.186341
     7  O   -0.315771
     8  C   -0.196699
     9  C    0.252000
    10  H    0.118306
    11  H    0.114006
    12  H    0.104820
    13  H    0.121782
    14  H    0.107435
    15  H    0.107877
    16  H    0.115027
    17  H    0.078398
    18  H    0.102860
    19  H    0.111826
 Sum of Mulliken charges =   0.00000

 Dipole moment (field-independent basis, Debye):
    X=             -0.6296    Y=             -0.8513    Z=              0.6110  Tot=              1.2225
 Quadrupole moment (field-independent basis, Debye-Ang):
   XX=            -56.5058   YY=            -51.0066   ZZ=            -52.8848
   XY=             -6.5682   XZ=             -2.5062   YZ=             -0.6243

  Exact polarizability:  81.675  -5.514  75.859  -1.352  -1.991  66.015
 Approx polarizability: 113.107  -3.274 108.596   1.673  -1.744 104.240

                      1                      2                      3
                      A                      A                      A
 Frequencies --    175.9542               191.0164               260.8487
 Red. masses --      1.8761                 4.1526                 2.8462
 Frc consts  --      0.0342                 0.0893                 0.1141
 IR Inten    --      1.1107                 6.3318                 2.2727

                      4                      5                      6
                      A                      A                      A
 Frequencies --    292.8920               356.4490               428.6033
 Red. masses --      2.7345                 4.0328                 3.0137
 Frc consts  --      0.1382                 0.3019                 0.3262
 IR Inten    --      1.2584                 0.9928                 4.3056

                      7                      8                      9
                      A                      A                      A
 Frequencies --    447.7369               546.4103               586.3497
 Red. masses --      4.1147                 2.3695                 3.6338
 Frc consts  --      0.4860                 0.4168                 0.7361
 IR Inten    --      0.1901                 0.8982                 4.0517

                     10                     11                     12
                      A                      A                      A
 Frequencies --    657.2013               784.6736               797.2232
 Red. masses --      4.1439                 2.9955                 2.4941
 Frc consts  --      1.0545                 1.0867                 0.9339
 IR Inten    --     20.2589                12.6613                 4.1040

                     13                     14                     15
                      A                      A                      A
 Frequencies --    848.4395               868.7487               888.9919
 Red. masses --      1.5827                 1.8981                 2.1296
 Frc consts  --      0.6713                 0.8440                 0.9916
 IR Inten    --      3.0237                 5.9435                11.8526

                     16                     17                     18
                      A                      A                      A
 Frequencies --    920.1896               944.8567               971.1093
 Red. masses --      1.9854                 5.6678                 3.4311
 Frc consts  --      0.9905                 2.9812                 1.9064
 IR Inten    --      4.6310                42.8006                45.9272

                     19                     20                     21
                      A                      A                      A
 Frequencies --   1004.8342              1026.4116              1050.5148
 Red. masses --      2.1065                 1.6909                 2.3019
 Frc consts  --      1.2531                 1.0496                 1.4967
 IR Inten    --     22.9167                11.7487                19.3889

                     22                     23                     24
                      A                      A                      A
 Frequencies --   1055.0860              1084.1651              1120.2710
 Red. masses --      2.1331                 1.7367                 1.9171
 Frc consts  --      1.3991                 1.2027                 1.4176
 IR Inten    --      9.8598                 0.7017                13.7823

                     25                     26                     27
                      A                      A                      A
 Frequencies --   1145.3206              1154.7570              1162.0245
 Red. masses --      2.0977                 1.3917                 2.9839
 Frc consts  --      1.6213                 1.0934                 2.3739
 IR Inten    --      9.0129                 9.3731                61.3233

                     28                     29                     30
                      A                      A                      A
 Frequencies --   1208.0281              1224.4943              1268.3868
 Red. masses --      1.9282                 1.3437                 1.3003
 Frc consts  --      1.6579                 1.1871                 1.2325
 IR Inten    --     17.4808                 8.1966                 7.1043

                     31                     32                     33
                      A                      A                      A
 Frequencies --   1289.9540              1300.1835              1313.4155
 Red. masses --      1.2354                 1.3621                 1.3443
 Frc consts  --      1.2111                 1.3567                 1.3664
 IR Inten    --      3.2511                 1.6064                15.3220

                     34                     35                     36
                      A                      A                      A
 Frequencies --   1357.3738              1392.7537              1419.5361
 Red. masses --      1.4350                 1.4194                 1.4552
 Frc consts  --      1.5577                 1.6222                 1.7277
 IR Inten    --      6.3619                 0.8728                20.6491

                     37                     38                     39
                      A                      A                      A
 Frequencies --   1433.7977              1492.7646              1499.6144
 Red. masses --      1.6110                 1.7014                 1.0831
 Frc consts  --      1.9513                 2.2338                 1.4351
 IR Inten    --      8.1377                16.9804                 0.4482

                     40                     41                     42
                      A                      A                      A
 Frequencies --   1513.7909              1519.8465              2963.9909
 Red. masses --      1.1252                 1.0984                 1.0815
 Frc consts  --      1.5191                 1.4949                 5.5978
 IR Inten    --      0.2077                 5.8177                42.9251

                     43                     44                     45
                      A                      A                      A
 Frequencies --   3006.6062              3016.2456              3056.5606
 Red. masses --      1.0628                 1.0703                 1.0590
 Frc consts  --      5.6606                 5.7369                 5.8292
 IR Inten    --     90.0994                42.2326                27.6165

                     46                     47                     48
                      A                      A                      A
 Frequencies --   3085.0204              3092.7562              3113.0059
 Red. masses --      1.1030                 1.1001                 1.1006
 Frc consts  --      6.1850                 6.1997                 6.2842
 IR Inten    --     34.1515                 4.2563                43.1004

                     49                     50                     51
                      A                      A                      A
 Frequencies --   3125.9285              3170.3402              3209.1313
 Red. masses --      1.0551                 1.0925                 1.1136
 Frc consts  --      6.0746                 6.4695                 6.7569
 IR Inten    --     11.3482                23.2160                 9.1184

 - Thermochemistry -
 -------------------
 Temperature   298.150 Kelvin.  Pressure   1.00000 Atm.
 Atom     1 has atomic number  6 and mass  12.00000

 Molecular mass:   126.06808 amu.
 Principal axes and moments of inertia in atomic units:
                           1         2         3
     Eigenvalues --   629.376961036.161891373.92972
           X            0.99667  -0.07927  -0.01910
           Y            0.07908   0.99681  -0.01042
           Z            0.01986   0.00887   0.99976
 This molecule is an asymmetric top.
 Rotational symmetry number  1.
 Warning -- assumption of classical behavior for rotation
           may cause significant error
 Rotational temperatures (Kelvin)      0.13762     0.08359     0.06304
 Rotational constants (GHZ):           2.86750     1.74176     1.31356
 Zero-point vibrational energy     423744.8 (Joules/Mol)
                                  101.27745 (Kcal/Mol)
 Warning -- explicit consideration of   9 degrees of freedom as
           vibrations may cause significant error
 Vibrational temperatures:    253.16   274.83   375.30   421.41   512.85
          (Kelvin)            616.66   644.19   786.16   843.63   945.56
                             1128.97  1147.02  1220.71  1249.93  1279.06
                             1323.95  1359.44  1397.21  1445.73  1476.78
                             1511.45  1518.03  1559.87  1611.82  1647.86
                             1661.44  1671.89  1738.08  1761.77  1824.92
                             1855.95  1870.67  1889.71  1952.96  2003.86
                             2042.39  2062.91  2147.75  2157.61  2178.00
                             2186.72  4264.52  4325.83  4339.70  4397.70
                             4438.65  4449.78  4478.92  4497.51  4561.41
                             4617.22

 Zero-point correction=                           0.161396 (Hartree/Particle)
 Thermal correction to Energy=                    0.168544
 Thermal correction to Enthalpy=                  0.169488
 Thermal correction to Gibbs Free Energy=         0.130171
 Sum of electronic and zero-point Energies=           -422.960951
 Sum of electronic and thermal Energies=              -422.953803
 Sum of electronic and thermal Enthalpies=            -422.952859
 Sum of electronic and thermal Free Energies=         -422.992176

                     E (Thermal)             CV                S
                      KCal/Mol        Cal/Mol-Kelvin    Cal/Mol-Kelvin
 Total                  105.763             29.214             82.750
 Electronic               0.000              0.000              0.000
 Translational            0.889              2.981             40.409
 Rotational               0.889              2.981             28.284
 Vibrational            103.985             23.252             14.057
 Vibration     1          0.628              1.872              2.371
 Vibration     2          0.634              1.852              2.218
 Vibration     3          0.669              1.744              1.656
 Vibration     4          0.688              1.687              1.457
 Vibration     5          0.732              1.562              1.138
 Vibration     6          0.790              1.408              0.863
 Vibration     7          0.807              1.366              0.803
 Vibration     8          0.902              1.148              0.552
 Vibration     9          0.943              1.061              0.474

 Optimization completed.
    -- Stationary point found.
 Normal termination of Gaussian 09 at Mon Jan 27 13:53:35 2020.
