 Gaussian 09, Revision D.01,
 Gaussian 09:  ES64L-G09RevD.01 24-Apr-2013

 -----------------------------
 # b3lyp 6-31G(2df,p) opt Freq
 -----------------------------

 -----
 titel
 -----
 Symbolic Z-matrix:
 Charge =  0 Multiplicity = 1

 SCF Done:  E(RB3LYP) =  -423.089885081     A.U. after   14 cycles
 Optimization completed.
    -- Stationary point found.
 Normal termination of Gaussian 09 at Tue Jan 28 08:24:31 2020.

 ----------------------------------------------------------------------
 #N Geom=AllCheck Guess=TCheck SCRF=Check GenChk RB3LYP/6-31G(2df,p) Fr
 eq
 ----------------------------------------------------------------------

 Structure from the checkpoint file:  "/scratch/puck/g09_1f1939c2-e1d8-4970-bccf-8b1c2c30c947/Gau-81453.chk"
 -----
 titel
 -----
 Charge =  0 Multiplicity = 1

                         Standard orientation:
 ---------------------------------------------------------------------
 Center     Atomic      Atomic             Coordinates (Angstroms)
 Number     Number       Type             X           Y           Z
 ---------------------------------------------------------------------
      1          6           0       -2.145522   -1.126628    0.086601
      2          6           0       -0.837849   -0.358670   -0.090149
      3          6           0       -1.083505    1.093311   -0.557545
      4          8           0       -0.759711    2.087048    0.389620
      5          6           0        0.203587   -0.810251    0.913784
      6          6           0        1.613763   -0.170918    0.760438
      7          8           0        1.598145    0.816687   -0.285054
      8          6           0        1.686845   -0.580466   -0.636058
      9          6           0        0.286241   -1.259475   -0.551903
     10          1           0       -2.778771   -0.625666    0.826516
     11          1           0       -2.699367   -1.165523   -0.857843
     12          1           0       -1.979203   -2.155435    0.420817
     13          1           0       -0.572857    1.264529   -1.512914
     14          1           0       -2.158071    1.204767   -0.740231
     15          1           0        0.203261    2.128172    0.387272
     16          1           0       -0.064406   -1.405964    1.777654
     17          1           0        2.370960   -0.071203    1.528587
     18          1           0        2.520517   -0.876164   -1.261086
     19          1           0        0.109106   -2.248810   -0.956320
 ---------------------------------------------------------------------

 SCF Done:  E(RB3LYP) =  -423.089885081     A.U. after    1 cycles

 The electronic state is 1-A.
 Alpha  occ. eigenvalues --  -19.16619 -19.11191 -10.24902 -10.24771 -10.21400
 Alpha  occ. eigenvalues --  -10.20651 -10.19988 -10.19939 -10.18115  -1.08816
 Alpha  occ. eigenvalues --   -0.99655  -0.88005  -0.74888  -0.66845  -0.66342
 Alpha  occ. eigenvalues --   -0.65791  -0.55443  -0.54072  -0.53771  -0.50249
 Alpha  occ. eigenvalues --   -0.46006  -0.45557  -0.42232  -0.41176  -0.40024
 Alpha  occ. eigenvalues --   -0.38388  -0.37452  -0.36099  -0.34953  -0.32222
 Alpha  occ. eigenvalues --   -0.28384  -0.27568  -0.25166  -0.23425
 Alpha virt. eigenvalues --    0.04520   0.08303   0.09858   0.10743   0.12806
 Alpha virt. eigenvalues --    0.13230   0.14383   0.15063   0.15980   0.16131
 Alpha virt. eigenvalues --    0.17170   0.18607   0.19128   0.19519   0.21785

 Mulliken charges:
               1
     1  C   -0.462075
     2  C    0.313745
     3  C   -0.149527
     4  O   -0.421130
     5  C   -0.128651
     6  C   -0.001856
     7  O   -0.264278
     8  C    0.005948
     9  C   -0.151384
    10  H    0.131305
    11  H    0.121232
    12  H    0.111327
    13  H    0.094630
    14  H    0.093511
    15  H    0.293394
    16  H    0.092744
    17  H    0.114708
    18  H    0.115323
    19  H    0.091036
 Sum of Mulliken charges =   0.00000

 Dipole moment (field-independent basis, Debye):
    X=              1.1198    Y=             -2.8841    Z=             -0.1746  Tot=              3.0988
 Quadrupole moment (field-independent basis, Debye-Ang):
   XX=            -50.6140   YY=            -56.7969   ZZ=            -51.4089
   XY=              1.1406   XZ=              1.9201   YZ=             -0.5802

  Exact polarizability:  83.735   0.971  70.199   0.826   1.380  67.896
 Approx polarizability: 112.219   0.744 106.253  -0.037   4.587 112.367

                      1                      2                      3
                      A                      A                      A
 Frequencies --    109.4324               153.7011               244.3062
 Red. masses --      2.6735                 4.8067                 4.7045
 Frc consts  --      0.0189                 0.0669                 0.1654
 IR Inten    --      2.5679                 2.9027                 1.2625

                      4                      5                      6
                      A                      A                      A
 Frequencies --    261.2286               282.3324               342.2573
 Red. masses --      1.1863                 3.0359                 3.1724
 Frc consts  --      0.0477                 0.1426                 0.2190
 IR Inten    --      0.9768                 3.3469                 5.7411

                      7                      8                      9
                      A                      A                      A
 Frequencies --    357.6120               424.1159               526.7186
 Red. masses --      2.2999                 3.4201                 1.1504
 Frc consts  --      0.1733                 0.3625                 0.1880
 IR Inten    --      0.3010                 2.9869                94.9849

                     10                     11                     12
                      A                      A                      A
 Frequencies --    557.9628               617.6182               709.5065
 Red. masses --      3.4819                 3.3208                 5.0529
 Frc consts  --      0.6387                 0.7463                 1.4987
 IR Inten    --      1.9706                23.5829                 5.8101

                     13                     14                     15
                      A                      A                      A
 Frequencies --    748.7995               769.3532               796.2379
 Red. masses --      5.6200                 3.9231                 1.4560
 Frc consts  --      1.8566                 1.3681                 0.5439
 IR Inten    --      0.2390                 1.8626                 0.7823

                     16                     17                     18
                      A                      A                      A
 Frequencies --    858.4560               864.2066               909.0500
 Red. masses --      1.3953                 3.1970                 2.4495
 Frc consts  --      0.6058                 1.4068                 1.1926
 IR Inten    --     28.6728                 9.8799                13.3775

                     19                     20                     21
                      A                      A                      A
 Frequencies --    922.7406               948.8345               960.2653
 Red. masses --      1.8846                 2.1139                 1.9924
 Frc consts  --      0.9454                 1.1213                 1.0825
 IR Inten    --      2.1645                14.9277                 6.4436

                     22                     23                     24
                      A                      A                      A
 Frequencies --    995.3315              1033.6136              1044.6206
 Red. masses --      2.4494                 1.6396                 1.6331
 Frc consts  --      1.4297                 1.0321                 1.0500
 IR Inten    --     21.5451                 0.2557                 0.9509

                     25                     26                     27
                      A                      A                      A
 Frequencies --   1052.5479              1088.6570              1108.8510
 Red. masses --      1.2713                 3.2432                 2.5010
 Frc consts  --      0.8298                 2.2646                 1.8118
 IR Inten    --      1.9102                77.3744                16.3672

                     28                     29                     30
                      A                      A                      A
 Frequencies --   1128.0159              1224.5140              1232.1006
 Red. masses --      1.9316                 1.3563                 1.2497
 Frc consts  --      1.4481                 1.1982                 1.1177
 IR Inten    --     23.1592                10.3134                 0.0736

                     31                     32                     33
                      A                      A                      A
 Frequencies --   1250.7626              1260.2636              1288.4931
 Red. masses --      1.3497                 1.4902                 2.0400
 Frc consts  --      1.2440                 1.3945                 1.9954
 IR Inten    --     19.1053                10.0526                 1.6955

                     34                     35                     36
                      A                      A                      A
 Frequencies --   1352.1679              1391.7169              1405.0442
 Red. masses --      5.1911                 1.5324                 1.4157
 Frc consts  --      5.5921                 1.7488                 1.6467
 IR Inten    --     21.0255                 3.3951                 0.2357

                     37                     38                     39
                      A                      A                      A
 Frequencies --   1422.6305              1443.0986              1496.1229
 Red. masses --      1.9490                 1.1810                 1.0515
 Frc consts  --      2.3241                 1.4491                 1.3867
 IR Inten    --      6.6567                51.5144                 3.4619

                     40                     41                     42
                      A                      A                      A
 Frequencies --   1498.9380              1502.7159              3018.4191
 Red. masses --      1.0831                 1.0704                 1.0584
 Frc consts  --      1.4338                 1.4242                 5.6815
 IR Inten    --      5.7557                 0.5172                42.2765

                     43                     44                     45
                      A                      A                      A
 Frequencies --   3027.9611              3063.5671              3094.9120
 Red. masses --      1.0362                 1.1038                 1.1013
 Frc consts  --      5.5977                 6.1035                 6.2153
 IR Inten    --     27.2431                39.9661                19.5147

                     46                     47                     48
                      A                      A                      A
 Frequencies --   3103.5394              3177.8754              3187.6082
 Red. masses --      1.1019                 1.0871                 1.0913
 Frc consts  --      6.2531                 6.4686                 6.5331
 IR Inten    --     26.8014                 1.3105                16.3375

                     49                     50                     51
                      A                      A                      A
 Frequencies --   3190.0625              3203.1151              3802.0384
 Red. masses --      1.0915                 1.1037                 1.0643
 Frc consts  --      6.5443                 6.6719                 9.0642
 IR Inten    --     17.4668                19.3673                47.0699

 - Thermochemistry -
 -------------------
 Temperature   298.150 Kelvin.  Pressure   1.00000 Atm.
 Atom     1 has atomic number  6 and mass  12.00000

 Molecular mass:   126.06808 amu.
 Principal axes and moments of inertia in atomic units:
                           1         2         3
     Eigenvalues --   750.44714 988.237291411.91817
           X            0.99824   0.05835   0.01025
           Y           -0.05820   0.99820  -0.01422
           Z           -0.01106   0.01359   0.99985
 This molecule is an asymmetric top.
 Rotational symmetry number  1.
 Warning -- assumption of classical behavior for rotation
           may cause significant error
 Rotational temperatures (Kelvin)      0.11542     0.08764     0.06134
 Rotational constants (GHZ):           2.40489     1.82622     1.27822
 Zero-point vibrational energy     415427.4 (Joules/Mol)
                                   99.28953 (Kcal/Mol)
 Warning -- explicit consideration of  11 degrees of freedom as
           vibrations may cause significant error
 Vibrational temperatures:    157.45   221.14   351.50   375.85   406.21
          (Kelvin)            492.43   514.52   610.21   757.83   802.78
                              888.61  1020.82  1077.35  1106.93  1145.61
                             1235.13  1243.40  1307.92  1327.62  1365.16
                             1381.61  1432.06  1487.14  1502.97  1514.38
                             1566.33  1595.39  1622.96  1761.80  1772.72
                             1799.57  1813.24  1853.85  1945.47  2002.37
                             2021.54  2046.85  2076.29  2152.58  2156.63
                             2162.07  4342.83  4356.56  4407.78  4452.88
                             4465.30  4572.25  4586.25  4589.78  4608.56
                             5470.28

 Zero-point correction=                           0.158228 (Hartree/Particle)
 Thermal correction to Energy=                    0.166381
 Thermal correction to Enthalpy=                  0.167325
 Thermal correction to Gibbs Free Energy=         0.125959
 Sum of electronic and zero-point Energies=           -422.931657
 Sum of electronic and thermal Energies=              -422.923504
 Sum of electronic and thermal Enthalpies=            -422.922560
 Sum of electronic and thermal Free Energies=         -422.963926

                     E (Thermal)             CV                S
                      KCal/Mol        Cal/Mol-Kelvin    Cal/Mol-Kelvin
 Total                  104.405             32.558             87.062
 Electronic               0.000              0.000              0.000
 Translational            0.889              2.981             40.409
 Rotational               0.889              2.981             28.439
 Vibrational            102.628             26.596             18.214
 Vibration     1          0.606              1.942              3.279
 Vibration     2          0.619              1.899              2.626
 Vibration     3          0.660              1.772              1.771
 Vibration     4          0.669              1.744              1.654
 Vibration     5          0.681              1.706              1.520
 Vibration     6          0.721              1.591              1.202
 Vibration     7          0.733              1.560              1.132
 Vibration     8          0.786              1.418              0.878
 Vibration     9          0.882              1.191              0.595
 Vibration    10          0.914              1.122              0.528
 Vibration    11          0.977              0.995              0.420

 Optimization completed.
    -- Stationary point found.
 Normal termination of Gaussian 09 at Tue Jan 28 09:14:52 2020.
