 Gaussian 09, Revision D.01,
 Gaussian 09:  ES64L-G09RevD.01 24-Apr-2013

 -----------------------------
 # b3lyp 6-31G(2df,p) opt Freq
 -----------------------------

 -----
 titel
 -----
 Symbolic Z-matrix:
 Charge =  0 Multiplicity = 1

 SCF Done:  E(RB3LYP) =  -423.179769309     A.U. after   14 cycles
 Optimization completed.
    -- Stationary point found.
 Normal termination of Gaussian 09 at Mon Jan 27 23:50:56 2020.

 ----------------------------------------------------------------------
 #N Geom=AllCheck Guess=TCheck SCRF=Check GenChk RB3LYP/6-31G(2df,p) Fr
 eq
 ----------------------------------------------------------------------

 Structure from the checkpoint file:  "/scratch/puck/g09_1676c8b4-616d-43a9-98ba-8fee0724c820/Gau-104278.chk"
 -----
 titel
 -----
 Charge =  0 Multiplicity = 1

                         Standard orientation:
 ---------------------------------------------------------------------
 Center     Atomic      Atomic             Coordinates (Angstroms)
 Number     Number       Type             X           Y           Z
 ---------------------------------------------------------------------
      1          6           0       -2.139613   -1.379464   -0.407758
      2          6           0       -1.266087   -0.205789   -0.100817
      3          6           0       -1.574804    1.095455   -0.131528
      4          6           0       -0.421089    1.992932    0.272850
      5          6           0        0.729900    1.016305    0.487864
      6          6           0        1.176873    0.180394   -0.696581
      7          8           0        2.429990   -0.446838   -0.610421
      8          6           0        0.169994   -0.392289    0.270753
      9          8           0        0.512703   -1.513813    1.009712
     10          1           0       -1.752817   -1.946550   -1.263749
     11          1           0       -2.160811   -2.074653    0.438244
     12          1           0       -3.163173   -1.069395   -0.632961
     13          1           0       -2.538127    1.493171   -0.431683
     14          1           0       -0.192886    2.738717   -0.500888
     15          1           0       -0.649066    2.557803    1.186841
     16          1           0        1.469003    1.194306    1.261972
     17          1           0        0.869248    0.455804   -1.705885
     18          1           0        3.106293    0.223849   -0.468931
     19          1           0        1.419750   -1.733099    0.754022
 ---------------------------------------------------------------------

 SCF Done:  E(RB3LYP) =  -423.179769309     A.U. after    1 cycles

 The electronic state is 1-A.
 Alpha  occ. eigenvalues --  -19.15879 -19.13544 -10.23397 -10.23198 -10.18694
 Alpha  occ. eigenvalues --  -10.18384 -10.18202 -10.17451 -10.17169  -1.04859
 Alpha  occ. eigenvalues --   -1.01559  -0.87005  -0.77065  -0.72841  -0.65761
 Alpha  occ. eigenvalues --   -0.61393  -0.57605  -0.53173  -0.51509  -0.50226
 Alpha  occ. eigenvalues --   -0.45982  -0.42258  -0.41977  -0.41649  -0.40207
 Alpha  occ. eigenvalues --   -0.37951  -0.36288  -0.35829  -0.35240  -0.33968
 Alpha  occ. eigenvalues --   -0.30779  -0.28208  -0.24358  -0.21210
 Alpha virt. eigenvalues --    0.02459   0.06859   0.10448   0.11776   0.12736
 Alpha virt. eigenvalues --    0.13892   0.14442   0.15675   0.16178   0.17931
 Alpha virt. eigenvalues --    0.18180   0.19816   0.20359   0.23260   0.24440

 Mulliken charges:
               1
     1  C   -0.496787
     2  C    0.267728
     3  C   -0.182014
     4  C   -0.282759
     5  C   -0.190264
     6  C    0.013411
     7  O   -0.441774
     8  C    0.346892
     9  O   -0.482593
    10  H    0.126244
    11  H    0.143156
    12  H    0.117852
    13  H    0.087858
    14  H    0.104487
    15  H    0.109060
    16  H    0.085080
    17  H    0.090264
    18  H    0.293138
    19  H    0.291020
 Sum of Mulliken charges =   0.00000

 Dipole moment (field-independent basis, Debye):
    X=              1.0188    Y=              1.6558    Z=             -0.6776  Tot=              2.0589
 Quadrupole moment (field-independent basis, Debye-Ang):
   XX=            -46.4974   YY=            -52.8915   ZZ=            -55.0619
   XY=              2.1199   XZ=              1.6917   YZ=              0.8258

  Exact polarizability:  85.141  -1.063  87.915   1.959   1.711  59.164
 Approx polarizability: 115.307  -6.339 137.182   0.683   0.632  92.077

                      1                      2                      3
                      A                      A                      A
 Frequencies --    144.0507               162.9034               227.5926
 Red. masses --      3.0792                 1.1175                 3.8325
 Frc consts  --      0.0376                 0.0175                 0.1170
 IR Inten    --      5.9894                 0.0847                 4.7724

                      4                      5                      6
                      A                      A                      A
 Frequencies --    234.5649               254.9327               282.0413
 Red. masses --      3.0329                 2.0723                 1.8159
 Frc consts  --      0.0983                 0.0794                 0.0851
 IR Inten    --      3.4928                 5.2613                37.6823

                      7                      8                      9
                      A                      A                      A
 Frequencies --    288.6791               336.3554               440.2198
 Red. masses --      1.8361                 3.0764                 1.8339
 Frc consts  --      0.0902                 0.2051                 0.2094
 IR Inten    --     18.2741                 4.0409                12.7885

                     10                     11                     12
                      A                      A                      A
 Frequencies --    451.0973               530.9986               546.2607
 Red. masses --      1.4689                 5.0950                 3.4316
 Frc consts  --      0.1761                 0.8464                 0.6033
 IR Inten    --     83.8229                14.4109                 2.5219

                     13                     14                     15
                      A                      A                      A
 Frequencies --    622.3750               708.9378               730.3486
 Red. masses --      3.7670                 4.9120                 3.6894
 Frc consts  --      0.8597                 1.4545                 1.1595
 IR Inten    --      4.1210                 7.5139                 5.5716

                     16                     17                     18
                      A                      A                      A
 Frequencies --    809.6436               839.1649               901.0650
 Red. masses --      1.2877                 2.3214                 2.9821
 Frc consts  --      0.4973                 0.9631                 1.4266
 IR Inten    --     13.4288                 2.7147                 9.3789

                     19                     20                     21
                      A                      A                      A
 Frequencies --    927.9223               978.2134              1004.2920
 Red. masses --      2.2125                 1.8921                 1.7831
 Frc consts  --      1.1224                 1.0667                 1.0596
 IR Inten    --      0.1381                14.8158                 4.0925

                     22                     23                     24
                      A                      A                      A
 Frequencies --   1016.5913              1033.9181              1066.7812
 Red. masses --      1.9255                 1.3609                 1.5528
 Frc consts  --      1.1724                 0.8571                 1.0412
 IR Inten    --      3.2196                34.8377                 4.7857

                     25                     26                     27
                      A                      A                      A
 Frequencies --   1079.1101              1098.3871              1159.9841
 Red. masses --      1.7015                 2.6594                 2.8945
 Frc consts  --      1.1674                 1.8904                 2.2947
 IR Inten    --     13.0111                42.6536                29.4742

                     28                     29                     30
                      A                      A                      A
 Frequencies --   1184.5045              1203.1907              1262.9514
 Red. masses --      1.2515                 1.7511                 1.9154
 Frc consts  --      1.0345                 1.4936                 1.8000
 IR Inten    --      3.0449                 6.8125                39.3770

                     31                     32                     33
                      A                      A                      A
 Frequencies --   1282.3277              1301.2928              1314.2867
 Red. masses --      1.3825                 1.8022                 1.4667
 Frc consts  --      1.3394                 1.7980                 1.4927
 IR Inten    --     72.5741                 5.6561                26.9905

                     34                     35                     36
                      A                      A                      A
 Frequencies --   1329.3540              1411.4365              1420.1072
 Red. masses --      1.5813                 1.3138                 2.7715
 Frc consts  --      1.6465                 1.5421                 3.2931
 IR Inten    --     72.9000                 2.9616                34.9620

                     37                     38                     39
                      A                      A                      A
 Frequencies --   1439.6078              1475.0618              1478.0508
 Red. masses --      2.0245                 1.0452                 1.0994
 Frc consts  --      2.4721                 1.3399                 1.4151
 IR Inten    --     19.6563                 6.9009                 1.9051

                     40                     41                     42
                      A                      A                      A
 Frequencies --   1489.7568              1709.9230              3008.6158
 Red. masses --      1.0831                 7.1350                 1.0587
 Frc consts  --      1.4163                12.2913                 5.6463
 IR Inten    --      8.3819                 0.7197                52.7389

                     43                     44                     45
                      A                      A                      A
 Frequencies --   3026.4510              3033.5509              3081.0914
 Red. masses --      1.0394                 1.1025                 1.0947
 Frc consts  --      5.6091                 5.9779                 6.1229
 IR Inten    --     25.0422                24.5901                12.9661

                     46                     47                     48
                      A                      A                      A
 Frequencies --   3093.0613              3118.5283              3168.2239
 Red. masses --      1.0886                 1.1015                 1.0901
 Frc consts  --      6.1363                 6.3118                 6.4471
 IR Inten    --     26.6247                17.8022                12.6582

                     49                     50                     51
                      A                      A                      A
 Frequencies --   3191.5593              3743.2247              3803.1756
 Red. masses --      1.0935                 1.0649                 1.0666
 Frc consts  --      6.5625                 8.7910                 9.0895
 IR Inten    --     13.9121                62.2286                24.7127

 - Thermochemistry -
 -------------------
 Temperature   298.150 Kelvin.  Pressure   1.00000 Atm.
 Atom     1 has atomic number  6 and mass  12.00000

 Molecular mass:   126.06808 amu.
 Principal axes and moments of inertia in atomic units:
                           1         2         3
     Eigenvalues --   765.442541114.862131563.80849
           X            0.99827   0.05632   0.01701
           Y           -0.05667   0.99818   0.02074
           Z           -0.01581  -0.02167   0.99964
 This molecule is an asymmetric top.
 Rotational symmetry number  1.
 Warning -- assumption of classical behavior for rotation
           may cause significant error
 Rotational temperatures (Kelvin)      0.11316     0.07769     0.05539
 Rotational constants (GHZ):           2.35777     1.61880     1.15407
 Zero-point vibrational energy     415377.9 (Joules/Mol)
                                   99.27770 (Kcal/Mol)
 Warning -- explicit consideration of  12 degrees of freedom as
           vibrations may cause significant error
 Vibrational temperatures:    207.26   234.38   327.45   337.49   366.79
          (Kelvin)            405.79   415.34   483.94   633.38   649.03
                              763.99   785.95   895.46  1020.00  1050.81
                             1164.90  1207.37  1296.43  1335.07  1407.43
                             1444.95  1462.65  1487.58  1534.86  1552.60
                             1580.33  1668.96  1704.24  1731.12  1817.10
                             1844.98  1872.27  1890.96  1912.64  2030.74
                             2043.21  2071.27  2122.28  2126.58  2143.43
                             2460.19  4328.72  4354.38  4364.60  4433.00
                             4450.22  4486.86  4558.36  4591.94  5385.66
                             5471.91

 Zero-point correction=                           0.158209 (Hartree/Particle)
 Thermal correction to Energy=                    0.166984
 Thermal correction to Enthalpy=                  0.167928
 Thermal correction to Gibbs Free Energy=         0.125484
 Sum of electronic and zero-point Energies=           -423.021560
 Sum of electronic and thermal Energies=              -423.012786
 Sum of electronic and thermal Enthalpies=            -423.011841
 Sum of electronic and thermal Free Energies=         -423.054285

                     E (Thermal)             CV                S
                      KCal/Mol        Cal/Mol-Kelvin    Cal/Mol-Kelvin
 Total                  104.784             34.261             89.330
 Electronic               0.000              0.000              0.000
 Translational            0.889              2.981             40.409
 Rotational               0.889              2.981             28.680
 Vibrational            103.006             28.299             20.242
 Vibration     1          0.616              1.909              2.749
 Vibration     2          0.623              1.888              2.516
 Vibration     3          0.651              1.799              1.898
 Vibration     4          0.654              1.788              1.844
 Vibration     5          0.665              1.754              1.696
 Vibration     6          0.681              1.707              1.521
 Vibration     7          0.685              1.695              1.482
 Vibration     8          0.717              1.603              1.229
 Vibration     9          0.800              1.382              0.826
 Vibration    10          0.810              1.358              0.792
 Vibration    11          0.886              1.181              0.585
 Vibration    12          0.901              1.148              0.552

 Normal termination of Gaussian 09 at Tue Jan 28 00:34:07 2020.
