 Gaussian 09, Revision D.01,
 Gaussian 09:  ES64L-G09RevD.01 24-Apr-2013

 -----------------------------
 # b3lyp 6-31G(2df,p) opt Freq
 -----------------------------

 -----
 titel
 -----
 Symbolic Z-matrix:
 Charge =  0 Multiplicity = 1

 SCF Done:  E(RB3LYP) =  -423.152944311     A.U. after   14 cycles
 Optimization completed.
    -- Stationary point found.
 Normal termination of Gaussian 09 at Tue Jan 28 03:59:35 2020.

 ----------------------------------------------------------------------
 #N Geom=AllCheck Guess=TCheck SCRF=Check GenChk RB3LYP/6-31G(2df,p) Fr
 eq
 ----------------------------------------------------------------------

 Structure from the checkpoint file:  "/scratch/puck/g09_b72a5ead-9a49-46ea-8b99-76a1997c63cb/Gau-175287.chk"
 -----
 titel
 -----
 Charge =  0 Multiplicity = 1

                         Standard orientation:
 ---------------------------------------------------------------------
 Center     Atomic      Atomic             Coordinates (Angstroms)
 Number     Number       Type             X           Y           Z
 ---------------------------------------------------------------------
      1          6           0        1.382636    1.860623   -0.571706
      2          6           0        0.338210    1.122358    0.256435
      3          8           0        1.008572    0.340776    1.249585
      4          6           0        0.536446   -0.995149    1.229120
      5          6           0        0.090567   -1.256238   -0.204140
      6          8           0        1.245422   -1.538951   -0.976239
      7          6           0       -0.530258    0.122045   -0.580465
      8          6           0       -1.947287    0.187604   -0.254034
      9          6           0       -3.114318    0.224639    0.033749
     10          1           0        2.025791    2.453447    0.084385
     11          1           0        2.004887    1.142391   -1.112293
     12          1           0        0.904438    2.536331   -1.288681
     13          1           0       -0.321916    1.840981    0.758010
     14          1           0        1.351917   -1.658230    1.529127
     15          1           0       -0.313489   -1.132109    1.914979
     16          1           0       -0.647372   -2.064434   -0.271540
     17          1           0        0.968135   -1.701188   -1.883523
     18          1           0       -0.394150    0.305193   -1.651827
     19          1           0       -4.146170    0.267726    0.280840
 ---------------------------------------------------------------------

 SCF Done:  E(RB3LYP) =  -423.152944311     A.U. after    1 cycles

 The electronic state is 1-A.
 Alpha  occ. eigenvalues --  -19.14782 -19.13221 -10.24334 -10.23507 -10.22447
 Alpha  occ. eigenvalues --  -10.21480 -10.18564 -10.17679 -10.17115  -1.04350
 Alpha  occ. eigenvalues --   -1.01851  -0.81044  -0.76379  -0.73219  -0.68033
 Alpha  occ. eigenvalues --   -0.60889  -0.58053  -0.54222  -0.52738  -0.49984
 Alpha  occ. eigenvalues --   -0.47314  -0.45940  -0.43094  -0.41495  -0.39224
 Alpha  occ. eigenvalues --   -0.37554  -0.37493  -0.35959  -0.34383  -0.32315
 Alpha  occ. eigenvalues --   -0.28930  -0.26914  -0.26053  -0.24501
 Alpha virt. eigenvalues --    0.04319   0.04999   0.06871   0.11316   0.11861
 Alpha virt. eigenvalues --    0.12588   0.13368   0.13819   0.15566   0.16798
 Alpha virt. eigenvalues --    0.17142   0.17912   0.18113   0.20340   0.21299

 Mulliken charges:
               1
     1  C   -0.405746
     2  C    0.149915
     3  O   -0.271484
     4  C   -0.076045
     5  C    0.109762
     6  O   -0.433975
     7  C   -0.278789
     8  C    0.325840
     9  C   -0.454864
    10  H    0.126005
    11  H    0.131524
    12  H    0.109255
    13  H    0.085829
    14  H    0.119563
    15  H    0.099065
    16  H    0.083109
    17  H    0.285275
    18  H    0.097926
    19  H    0.197832
 Sum of Mulliken charges =   0.00000

 Dipole moment (field-independent basis, Debye):
    X=             -1.4353    Y=             -0.5914    Z=             -1.5923  Tot=              2.2238
 Quadrupole moment (field-independent basis, Debye-Ang):
   XX=            -53.7994   YY=            -51.4702   ZZ=            -50.9448
   XY=              0.9481   XZ=             -2.4822   YZ=              0.2119

  Exact polarizability:  94.538  -0.119  71.503  -4.843  -2.365  65.496
 Approx polarizability: 141.585  -2.356  97.410  -9.622  -1.031  97.647

                      1                      2                      3
                      A                      A                      A
 Frequencies --     30.7288               137.5683               143.5773
 Red. masses --      4.0215                 3.4125                 3.7987
 Frc consts  --      0.0022                 0.0380                 0.0461
 IR Inten    --      2.2523                 0.1872                 0.2918

                      4                      5                      6
                      A                      A                      A
 Frequencies --    172.6200               264.4030               308.7156
 Red. masses --      4.1189                 1.0371                 1.1024
 Frc consts  --      0.0723                 0.0427                 0.0619
 IR Inten    --      0.2950                 2.8876               104.3525

                      7                      8                      9
                      A                      A                      A
 Frequencies --    319.8183               357.5059               385.3230
 Red. masses --      2.7910                 4.8487                 2.8575
 Frc consts  --      0.1682                 0.3651                 0.2500
 IR Inten    --      1.1585                10.5333                 6.5175

                     10                     11                     12
                      A                      A                      A
 Frequencies --    412.4119               519.1828               521.7232
 Red. masses --      3.4733                 4.7648                 5.0369
 Frc consts  --      0.3481                 0.7567                 0.8078
 IR Inten    --      7.1637                 1.0332                 4.5250

                     13                     14                     15
                      A                      A                      A
 Frequencies --    630.4716               640.1585               690.9609
 Red. masses --      1.2477                 1.2423                 4.4092
 Frc consts  --      0.2922                 0.3000                 1.2403
 IR Inten    --     37.8758                38.0072                15.7158

                     16                     17                     18
                      A                      A                      A
 Frequencies --    772.6116               845.1978               878.3143
 Red. masses --      4.6345                 2.5833                 2.4273
 Frc consts  --      1.6300                 1.0873                 1.1033
 IR Inten    --     18.7461                 4.0075                18.0371

                     19                     20                     21
                      A                      A                      A
 Frequencies --    892.0311               964.5597               998.1462
 Red. masses --      2.4366                 2.6039                 2.3456
 Frc consts  --      1.1423                 1.4273                 1.3769
 IR Inten    --      5.6793                42.1653                15.6511

                     22                     23                     24
                      A                      A                      A
 Frequencies --   1022.9588              1045.2877              1102.0073
 Red. masses --      3.0413                 2.1409                 2.6582
 Frc consts  --      1.8751                 1.3782                 1.9020
 IR Inten    --      7.6655                 0.5719                39.3547

                     25                     26                     27
                      A                      A                      A
 Frequencies --   1114.5797              1133.7263              1139.0280
 Red. masses --      1.8396                 3.5909                 2.1948
 Frc consts  --      1.3465                 2.7194                 1.6777
 IR Inten    --     28.7107                72.6446                24.9967

                     28                     29                     30
                      A                      A                      A
 Frequencies --   1192.0852              1228.1732              1261.4171
 Red. masses --      1.4277                 1.2168                 1.2436
 Frc consts  --      1.1954                 1.0814                 1.1659
 IR Inten    --     10.8074                31.0348                43.2753

                     31                     32                     33
                      A                      A                      A
 Frequencies --   1283.9689              1314.7700              1353.8940
 Red. masses --      1.2850                 1.2538                 1.3037
 Frc consts  --      1.2482                 1.2770                 1.4079
 IR Inten    --      7.4384                15.4507                13.2647

                     34                     35                     36
                      A                      A                      A
 Frequencies --   1382.6629              1393.3545              1403.5469
 Red. masses --      1.4093                 1.3058                 1.3230
 Frc consts  --      1.5874                 1.4937                 1.5355
 IR Inten    --     14.4514                 1.4686                14.7832

                     37                     38                     39
                      A                      A                      A
 Frequencies --   1433.5065              1486.9606              1499.4300
 Red. masses --      1.5168                 1.0469                 1.0525
 Frc consts  --      1.8364                 1.3638                 1.3943
 IR Inten    --      3.6244                 2.2361                 2.2548

                     40                     41                     42
                      A                      A                      A
 Frequencies --   1506.8804              2233.4665              2990.8342
 Red. masses --      1.0946                 5.9536                 1.0696
 Frc consts  --      1.4644                17.4980                 5.6373
 IR Inten    --      1.7737                 4.4571                45.6573

                     43                     44                     45
                      A                      A                      A
 Frequencies --   3021.6181              3038.4481              3039.2941
 Red. masses --      1.0849                 1.0859                 1.0376
 Frc consts  --      5.8358                 5.9069                 5.6469
 IR Inten    --     35.2839                47.2650                18.3629

                     46                     47                     48
                      A                      A                      A
 Frequencies --   3047.9580              3099.7013              3113.3816
 Red. masses --      1.0818                 1.0944                 1.1005
 Frc consts  --      5.9212                 6.1954                 6.2853
 IR Inten    --     14.4169                23.8293                20.1024

                     49                     50                     51
                      A                      A                      A
 Frequencies --   3129.2228              3503.2218              3819.3861
 Red. masses --      1.1029                 1.1614                 1.0663
 Frc consts  --      6.3630                 8.3980                 9.1644
 IR Inten    --     17.7676                73.5955                23.5887

 - Thermochemistry -
 -------------------
 Temperature   298.150 Kelvin.  Pressure   1.00000 Atm.
 Atom     1 has atomic number  6 and mass  12.00000

 Molecular mass:   126.06808 amu.
 Principal axes and moments of inertia in atomic units:
                           1         2         3
     Eigenvalues --   861.189951244.559031505.48565
           X            0.99849   0.04891  -0.02484
           Y           -0.05034   0.99690  -0.06040
           Z            0.02181   0.06156   0.99786
 This molecule is an asymmetric top.
 Rotational symmetry number  1.
 Warning -- assumption of classical behavior for rotation
           may cause significant error
 Rotational temperatures (Kelvin)      0.10057     0.06959     0.05753
 Rotational constants (GHZ):           2.09564     1.45010     1.19878
 Zero-point vibrational energy     414032.3 (Joules/Mol)
                                   98.95610 (Kcal/Mol)
 Warning -- explicit consideration of  12 degrees of freedom as
           vibrations may cause significant error
 Vibrational temperatures:     44.21   197.93   206.58   248.36   380.42
          (Kelvin)            444.17   460.15   514.37   554.39   593.37
                              746.99   750.64   907.11   921.04   994.14
                             1111.61  1216.05  1263.70  1283.43  1387.78
                             1436.11  1471.81  1503.93  1585.54  1603.63
                             1631.18  1638.81  1715.14  1767.07  1814.90
                             1847.34  1891.66  1947.95  1989.34  2004.72
                             2019.39  2062.49  2139.40  2157.34  2168.06
                             3213.46  4303.14  4347.43  4371.64  4372.86
                             4385.33  4459.77  4479.46  4502.25  5040.35
                             5495.24

 Zero-point correction=                           0.157697 (Hartree/Particle)
 Thermal correction to Energy=                    0.167018
 Thermal correction to Enthalpy=                  0.167963
 Thermal correction to Gibbs Free Energy=         0.123133
 Sum of electronic and zero-point Energies=           -422.995248
 Sum of electronic and thermal Energies=              -422.985926
 Sum of electronic and thermal Enthalpies=            -422.984982
 Sum of electronic and thermal Free Energies=         -423.029811

                     E (Thermal)             CV                S
                      KCal/Mol        Cal/Mol-Kelvin    Cal/Mol-Kelvin
 Total                  104.806             34.836             94.351
 Electronic               0.000              0.000              0.000
 Translational            0.889              2.981             40.409
 Rotational               0.889              2.981             28.869
 Vibrational            103.028             28.875             25.074
 Vibration     1          0.594              1.984              5.782
 Vibration     2          0.614              1.916              2.837
 Vibration     3          0.616              1.910              2.756
 Vibration     4          0.626              1.876              2.407
 Vibration     5          0.671              1.738              1.633
 Vibration     6          0.698              1.657              1.369
 Vibration     7          0.706              1.636              1.311
 Vibration     8          0.733              1.560              1.133
 Vibration     9          0.754              1.502              1.018
 Vibration    10          0.776              1.443              0.918
 Vibration    11          0.874              1.208              0.612
 Vibration    12          0.877              1.202              0.606

 Optimization completed.
    -- Stationary point found.
 Normal termination of Gaussian 09 at Tue Jan 28 04:33:27 2020.
