 Gaussian 09, Revision D.01,
 Gaussian 09:  ES64L-G09RevD.01 24-Apr-2013

 -----------------------------
 # b3lyp 6-31G(2df,p) opt Freq
 -----------------------------

 -----
 titel
 -----
 Symbolic Z-matrix:
 Charge =  0 Multiplicity = 1

 SCF Done:  E(RB3LYP) =  -423.165781598     A.U. after   12 cycles
 Optimization completed.
    -- Stationary point found.
 Normal termination of Gaussian 09 at Mon Jan 27 18:57:06 2020.

 ----------------------------------------------------------------------
 #N Geom=AllCheck Guess=TCheck SCRF=Check GenChk RB3LYP/6-31G(2df,p) Fr
 eq
 ----------------------------------------------------------------------

 Structure from the checkpoint file:  "/scratch/puck/g09_7f2036d8-34ec-4d18-964b-382084e2153d/Gau-172796.chk"
 -----
 titel
 -----
 Charge =  0 Multiplicity = 1

                         Standard orientation:
 ---------------------------------------------------------------------
 Center     Atomic      Atomic             Coordinates (Angstroms)
 Number     Number       Type             X           Y           Z
 ---------------------------------------------------------------------
      1          6           0        0.110618    2.182824    0.010809
      2          6           0       -0.303085    0.732042    0.021011
      3          6           0       -1.790344    0.388861    0.035136
      4          8           0       -1.754168   -1.052546    0.011645
      5          6           0       -0.359873   -1.308856   -0.006623
      6          6           0        0.301211   -0.335819    1.020590
      7          6           0        1.773729   -0.385760    0.641157
      8          8           0        1.679611   -0.339691   -0.802275
      9          6           0        0.274654   -0.305474   -1.007472
     10          1           0       -0.164780    2.685368    0.944861
     11          1           0        1.191387    2.280670   -0.124993
     12          1           0       -0.374640    2.721648   -0.810921
     13          1           0       -2.310594    0.738775    0.936384
     14          1           0       -2.325181    0.768104   -0.845382
     15          1           0       -0.159177   -2.378948   -0.029257
     16          1           0        0.028767   -0.352235    2.076176
     17          1           0        2.357658    0.467568    1.006265
     18          1           0        2.273101   -1.310518    0.955330
     19          1           0        0.038447   -0.289433   -2.071068
 ---------------------------------------------------------------------

 SCF Done:  E(RB3LYP) =  -423.165781598     A.U. after    1 cycles

 The electronic state is 1-A.
 Alpha  occ. eigenvalues --  -19.13977 -19.13812 -10.23356 -10.23195 -10.23022
 Alpha  occ. eigenvalues --  -10.22778 -10.20258 -10.19592 -10.18307  -1.05877
 Alpha  occ. eigenvalues --   -1.02867  -0.82995  -0.75273  -0.72528  -0.68918
 Alpha  occ. eigenvalues --   -0.58988  -0.58272  -0.56134  -0.52282  -0.48880
 Alpha  occ. eigenvalues --   -0.45400  -0.45128  -0.42417  -0.41812  -0.40643
 Alpha  occ. eigenvalues --   -0.39705  -0.37098  -0.36574  -0.34355  -0.33573
 Alpha  occ. eigenvalues --   -0.32051  -0.29928  -0.26560  -0.21958
 Alpha virt. eigenvalues --    0.07494   0.09782   0.11648   0.12327   0.13244
 Alpha virt. eigenvalues --    0.13680   0.14953   0.15327   0.15392   0.16631
 Alpha virt. eigenvalues --    0.17989   0.18268   0.18642   0.21203   0.22731

 Mulliken charges:
               1
     1  C   -0.513892
     2  C    0.273543
     3  C   -0.131437
     4  O   -0.283602
     5  C    0.098196
     6  C   -0.138485
     7  C   -0.109441
     8  O   -0.282409
     9  C    0.054722
    10  H    0.119460
    11  H    0.136250
    12  H    0.121455
    13  H    0.100559
    14  H    0.101038
    15  H    0.086957
    16  H    0.074000
    17  H    0.104503
    18  H    0.105093
    19  H    0.083492
 Sum of Mulliken charges =   0.00000

 Dipole moment (field-independent basis, Debye):
    X=              0.1044    Y=              1.1924    Z=              1.0549  Tot=              1.5955
 Quadrupole moment (field-independent basis, Debye-Ang):
   XX=            -57.6647   YY=            -52.3110   ZZ=            -51.8016
   XY=             -3.2859   XZ=              3.2848   YZ=             -0.4886

  Exact polarizability:  77.486  -4.041  75.548   3.679  -0.566  67.587
 Approx polarizability: 111.588  -3.712 107.786   2.939  -0.265 106.318

                      1                      2                      3
                      A                      A                      A
 Frequencies --    187.6344               229.7207               254.0305
 Red. masses --      1.0996                 2.6252                 2.3255
 Frc consts  --      0.0228                 0.0816                 0.0884
 IR Inten    --      0.1387                 1.2904                 0.2618

                      4                      5                      6
                      A                      A                      A
 Frequencies --    297.0715               366.3446               378.2748
 Red. masses --      2.2873                 2.8610                 2.9035
 Frc consts  --      0.1189                 0.2262                 0.2448
 IR Inten    --      3.2728                 4.3283                 2.0564

                      7                      8                      9
                      A                      A                      A
 Frequencies --    415.1027               609.0215               638.2742
 Red. masses --      3.7495                 4.9319                 3.8370
 Frc consts  --      0.3807                 1.0778                 0.9210
 IR Inten    --      4.5874                 0.1758                 0.8166

                     10                     11                     12
                      A                      A                      A
 Frequencies --    676.5989               703.4314               763.4605
 Red. masses --      4.0624                 4.3984                 3.3330
 Frc consts  --      1.0957                 1.2823                 1.1446
 IR Inten    --      4.1735                 2.7270                 4.9070

                     13                     14                     15
                      A                      A                      A
 Frequencies --    909.7407               928.7632               936.0672
 Red. masses --      2.7881                 2.2245                 2.0474
 Frc consts  --      1.3595                 1.1305                 1.0570
 IR Inten    --      7.8765                 2.9616                16.2306

                     16                     17                     18
                      A                      A                      A
 Frequencies --    954.5399               962.3785               970.3609
 Red. masses --      2.3778                 1.7853                 3.0092
 Frc consts  --      1.2765                 0.9742                 1.6694
 IR Inten    --     18.1904                 9.4204                13.2665

                     19                     20                     21
                      A                      A                      A
 Frequencies --   1003.2004              1014.8802              1018.3645
 Red. masses --      1.9138                 1.6086                 1.9330
 Frc consts  --      1.1348                 0.9762                 1.1811
 IR Inten    --     10.9664                 6.2015                 5.4627

                     22                     23                     24
                      A                      A                      A
 Frequencies --   1064.2572              1082.2850              1103.5749
 Red. masses --      4.4780                 3.2090                 2.3114
 Frc consts  --      2.9883                 2.2146                 1.6586
 IR Inten    --    106.1328                18.9254                11.1435

                     25                     26                     27
                      A                      A                      A
 Frequencies --   1154.7299              1170.8246              1191.4184
 Red. masses --      1.4192                 1.5228                 1.3328
 Frc consts  --      1.1149                 1.2299                 1.1147
 IR Inten    --      2.0112                 1.1484                 0.6805

                     28                     29                     30
                      A                      A                      A
 Frequencies --   1204.9186              1226.7723              1238.5036
 Red. masses --      1.5990                 1.7721                 1.7084
 Frc consts  --      1.3678                 1.5713                 1.5439
 IR Inten    --      0.9771                 6.9341                 2.0892

                     31                     32                     33
                      A                      A                      A
 Frequencies --   1257.9341              1264.1026              1293.1436
 Red. masses --      1.6229                 1.6508                 1.9332
 Frc consts  --      1.5131                 1.5542                 1.9046
 IR Inten    --      2.6241                 8.6289                14.8304

                     34                     35                     36
                      A                      A                      A
 Frequencies --   1329.6372              1370.7377              1402.9264
 Red. masses --      1.8645                 1.4829                 1.7414
 Frc consts  --      1.9421                 1.6416                 2.0194
 IR Inten    --      9.5853                 4.0589                 1.3815

                     37                     38                     39
                      A                      A                      A
 Frequencies --   1414.6538              1490.4574              1496.8466
 Red. masses --      1.3143                 1.0508                 1.0504
 Frc consts  --      1.5497                 1.3753                 1.3866
 IR Inten    --      3.7376                 3.3567                 5.3630

                     40                     41                     42
                      A                      A                      A
 Frequencies --   1526.2831              1530.4397              3007.5460
 Red. masses --      1.0967                 1.0929                 1.0557
 Frc consts  --      1.5052                 1.5082                 5.6260
 IR Inten    --      0.3359                 1.0374                71.7366

                     43                     44                     45
                      A                      A                      A
 Frequencies --   3019.6635              3029.9270              3043.4221
 Red. masses --      1.0556                 1.0372                 1.1099
 Frc consts  --      5.6713                 5.6103                 6.0568
 IR Inten    --     68.3076                28.8631                33.5858

                     46                     47                     48
                      A                      A                      A
 Frequencies --   3054.9556              3088.8320              3110.6727
 Red. masses --      1.1100                 1.1005                 1.0995
 Frc consts  --      6.1035                 6.1865                 6.2681
 IR Inten    --     38.0886                20.2266                14.0603

                     49                     50                     51
                      A                      A                      A
 Frequencies --   3118.1808              3129.0420              3141.3408
 Red. masses --      1.0885                 1.0881                 1.0943
 Frc consts  --      6.2354                 6.2766                 6.3625
 IR Inten    --     31.7506                30.5251                28.3821

 - Thermochemistry -
 -------------------
 Temperature   298.150 Kelvin.  Pressure   1.00000 Atm.
 Atom     1 has atomic number  6 and mass  12.00000

 Molecular mass:   126.06808 amu.
 Principal axes and moments of inertia in atomic units:
                           1         2         3
     Eigenvalues --   685.30466 901.786111204.59224
           X            0.99772  -0.06047   0.02985
           Y            0.06076   0.99811  -0.00911
           Z           -0.02924   0.01090   0.99951
 This molecule is an asymmetric top.
 Rotational symmetry number  1.
 Warning -- assumption of classical behavior for rotation
           may cause significant error
 Rotational temperatures (Kelvin)      0.12639     0.09605     0.07190
 Rotational constants (GHZ):           2.63349     2.00130     1.49822
 Zero-point vibrational energy     423330.2 (Joules/Mol)
                                  101.17836 (Kcal/Mol)
 Warning -- explicit consideration of   8 degrees of freedom as
           vibrations may cause significant error
 Vibrational temperatures:    269.96   330.52   365.49   427.42   527.09
          (Kelvin)            544.25   597.24   876.25   918.33   973.47
                             1012.08  1098.45  1308.91  1336.28  1346.79
                             1373.37  1384.65  1396.13  1443.38  1460.18
                             1465.20  1531.23  1557.16  1587.80  1661.40
                             1684.55  1714.18  1733.61  1765.05  1781.93
                             1809.88  1818.76  1860.54  1913.05  1972.18
                             2018.50  2035.37  2144.43  2153.63  2195.98
                             2201.96  4327.18  4344.62  4359.38  4378.80
                             4395.39  4444.13  4475.56  4486.36  4501.99
                             4519.68

 Zero-point correction=                           0.161238 (Hartree/Particle)
 Thermal correction to Energy=                    0.168311
 Thermal correction to Enthalpy=                  0.169256
 Thermal correction to Gibbs Free Energy=         0.130215
 Sum of electronic and zero-point Energies=           -423.004544
 Sum of electronic and thermal Energies=              -422.997470
 Sum of electronic and thermal Enthalpies=            -422.996526
 Sum of electronic and thermal Free Energies=         -423.035567

                     E (Thermal)             CV                S
                      KCal/Mol        Cal/Mol-Kelvin    Cal/Mol-Kelvin
 Total                  105.617             29.036             82.169
 Electronic               0.000              0.000              0.000
 Translational            0.889              2.981             40.409
 Rotational               0.889              2.981             28.100
 Vibrational            103.840             23.074             13.660
 Vibration     1          0.632              1.857              2.251
 Vibration     2          0.652              1.796              1.881
 Vibration     3          0.665              1.756              1.702
 Vibration     4          0.691              1.679              1.433
 Vibration     5          0.739              1.541              1.095
 Vibration     6          0.749              1.516              1.046
 Vibration     7          0.779              1.437              0.909
 Vibration     8          0.968              1.013              0.434

 Optimization completed.
    -- Stationary point found.
 Normal termination of Gaussian 09 at Mon Jan 27 19:41:43 2020.
