 Gaussian 09, Revision D.01,
 Gaussian 09:  ES64L-G09RevD.01 24-Apr-2013

 -----------------------------
 # b3lyp 6-31G(2df,p) opt Freq
 -----------------------------

 -----
 titel
 -----
 Symbolic Z-matrix:
 Charge =  0 Multiplicity = 1

 SCF Done:  E(RB3LYP) =  -423.153522268     A.U. after   14 cycles
 Optimization completed.
    -- Stationary point found.
 Normal termination of Gaussian 09 at Tue Jan 28 03:59:13 2020.

 ----------------------------------------------------------------------
 #N Geom=AllCheck Guess=TCheck SCRF=Check GenChk RB3LYP/6-31G(2df,p) Fr
 eq
 ----------------------------------------------------------------------

 Structure from the checkpoint file:  "/scratch/puck/g09_3ad85417-569b-44fa-8f51-3e70063b242f/Gau-8810.chk"
 -----
 titel
 -----
 Charge =  0 Multiplicity = 1

                         Standard orientation:
 ---------------------------------------------------------------------
 Center     Atomic      Atomic             Coordinates (Angstroms)
 Number     Number       Type             X           Y           Z
 ---------------------------------------------------------------------
      1          6           0       -0.610987    1.933432   -0.770079
      2          6           0       -1.221073    0.603808   -0.330629
      3          8           0       -1.278361    0.456648    1.095770
      4          6           0        0.018205    0.065904    1.538786
      5          6           0        0.657844   -0.752094    0.367742
      6          6           0        1.968772   -0.262599   -0.026790
      7          6           0        3.049974    0.150143   -0.354747
      8          6           0       -0.435952   -0.647621   -0.751247
      9          8           0       -1.269972   -1.790602   -0.747404
     10          1           0       -1.147269    2.760974   -0.297452
     11          1           0        0.447629    2.008394   -0.507248
     12          1           0       -0.694364    2.043773   -1.856028
     13          1           0       -2.253553    0.531248   -0.685801
     14          1           0        0.636513    0.939310    1.777295
     15          1           0       -0.107230   -0.527494    2.447828
     16          1           0        0.734588   -1.811134    0.630222
     17          1           0        4.007423    0.507123   -0.643655
     18          1           0        0.003961   -0.582397   -1.747327
     19          1           0       -1.801734   -1.744004    0.057023
 ---------------------------------------------------------------------

 SCF Done:  E(RB3LYP) =  -423.153522268     A.U. after    1 cycles

 The electronic state is 1-A.
 Alpha  occ. eigenvalues --  -19.14762 -19.14126 -10.24063 -10.23681 -10.23549
 Alpha  occ. eigenvalues --  -10.21444 -10.18631 -10.17899 -10.17654  -1.05143
 Alpha  occ. eigenvalues --   -1.01759  -0.80691  -0.77143  -0.72624  -0.68456
 Alpha  occ. eigenvalues --   -0.62158  -0.59018  -0.53951  -0.52410  -0.49867
 Alpha  occ. eigenvalues --   -0.48325  -0.44446  -0.42985  -0.41675  -0.40668
 Alpha  occ. eigenvalues --   -0.39504  -0.37903  -0.36224  -0.34712  -0.31916
 Alpha  occ. eigenvalues --   -0.29732  -0.26985  -0.26451  -0.24980
 Alpha virt. eigenvalues --    0.04271   0.04945   0.08480   0.10072   0.11002
 Alpha virt. eigenvalues --    0.12459   0.12666   0.13439   0.15323   0.16183
 Alpha virt. eigenvalues --    0.16512   0.17274   0.19037   0.19723   0.22494

 Mulliken charges:
               1
     1  C   -0.419856
     2  C    0.075073
     3  O   -0.274499
     4  C   -0.103194
     5  C   -0.242234
     6  C    0.337275
     7  C   -0.474289
     8  C    0.134205
     9  O   -0.439828
    10  H    0.127031
    11  H    0.136901
    12  H    0.121247
    13  H    0.089343
    14  H    0.111792
    15  H    0.115830
    16  H    0.119571
    17  H    0.198759
    18  H    0.101157
    19  H    0.285719
 Sum of Mulliken charges =   0.00000

 Dipole moment (field-independent basis, Debye):
    X=              0.4939    Y=              0.7504    Z=              0.2952  Tot=              0.9457
 Quadrupole moment (field-independent basis, Debye-Ang):
   XX=            -51.1566   YY=            -55.0038   ZZ=            -53.2648
   XY=              1.1681   XZ=             -0.4385   YZ=             -4.6849

  Exact polarizability:  92.181   5.328  69.105  -3.360  -3.878  67.661
 Approx polarizability: 138.036  14.911  99.133 -10.485  -4.954 100.620

                      1                      2                      3
                      A                      A                      A
 Frequencies --     72.6781               144.0262               166.4644
 Red. masses --      3.5042                 3.7477                 4.4667
 Frc consts  --      0.0109                 0.0458                 0.0729
 IR Inten    --      0.5938                 0.0542                 6.1020

                      4                      5                      6
                      A                      A                      A
 Frequencies --    199.9236               232.9783               260.2212
 Red. masses --      1.8386                 1.3496                 2.7035
 Frc consts  --      0.0433                 0.0432                 0.1079
 IR Inten    --      0.8398                 1.8586                 2.3941

                      7                      8                      9
                      A                      A                      A
 Frequencies --    339.4685               393.5659               439.6520
 Red. masses --      3.7851                 3.0569                 1.2436
 Frc consts  --      0.2570                 0.2790                 0.1416
 IR Inten    --      3.0520                 1.2429                84.6255

                     10                     11                     12
                      A                      A                      A
 Frequencies --    467.4541               517.6436               547.5661
 Red. masses --      4.8169                 5.8655                 4.0660
 Frc consts  --      0.6202                 0.9260                 0.7183
 IR Inten    --      4.3053                 7.3512                 4.8311

                     13                     14                     15
                      A                      A                      A
 Frequencies --    626.5165               631.9164               668.3490
 Red. masses --      1.3107                 1.2297                 3.1034
 Frc consts  --      0.3031                 0.2893                 0.8168
 IR Inten    --     31.9160                41.7883                21.4949

                     16                     17                     18
                      A                      A                      A
 Frequencies --    746.3441               848.3640               861.6287
 Red. masses --      3.1015                 3.0079                 2.6307
 Frc consts  --      1.0179                 1.2755                 1.1507
 IR Inten    --      6.8585                18.3342                14.0194

                     19                     20                     21
                      A                      A                      A
 Frequencies --    882.2657               977.3750               999.8737
 Red. masses --      2.1178                 3.0690                 2.0836
 Frc consts  --      0.9712                 1.7273                 1.2273
 IR Inten    --      6.0798                 2.2872                 7.4929

                     22                     23                     24
                      A                      A                      A
 Frequencies --   1017.2731              1058.6637              1081.4713
 Red. masses --      2.9900                 2.8802                 2.0898
 Frc consts  --      1.8230                 1.9019                 1.4401
 IR Inten    --     44.0805                33.8690                 5.3465

                     25                     26                     27
                      A                      A                      A
 Frequencies --   1087.8659              1115.8634              1142.0246
 Red. masses --      3.6596                 2.0964                 2.3728
 Frc consts  --      2.5517                 1.5380                 1.8233
 IR Inten    --     87.8731                60.9535                20.3988

                     28                     29                     30
                      A                      A                      A
 Frequencies --   1193.9313              1241.3207              1267.8864
 Red. masses --      1.3228                 1.1420                 1.3249
 Frc consts  --      1.1110                 1.0368                 1.2549
 IR Inten    --     19.1786                 4.7402                11.4517

                     31                     32                     33
                      A                      A                      A
 Frequencies --   1282.2307              1323.6369              1331.9838
 Red. masses --      1.3655                 1.4785                 1.3617
 Frc consts  --      1.3227                 1.5262                 1.4234
 IR Inten    --      0.7595                 6.7503                 5.8494

                     34                     35                     36
                      A                      A                      A
 Frequencies --   1377.6774              1391.4845              1409.4067
 Red. masses --      1.3128                 1.3194                 1.2712
 Frc consts  --      1.4680                 1.5052                 1.4878
 IR Inten    --      9.6013                 8.7691                13.1314

                     37                     38                     39
                      A                      A                      A
 Frequencies --   1431.8956              1493.2021              1496.5592
 Red. masses --      1.2433                 1.0550                 1.0539
 Frc consts  --      1.5020                 1.3859                 1.3907
 IR Inten    --     57.5197                 1.0888                 3.4370

                     40                     41                     42
                      A                      A                      A
 Frequencies --   1524.4883              2231.9456              3031.0482
 Red. masses --      1.0820                 5.9682                 1.0634
 Frc consts  --      1.4816                17.5170                 5.7560
 IR Inten    --      1.2995                 4.9963                40.0574

                     43                     44                     45
                      A                      A                      A
 Frequencies --   3044.1462              3064.8145              3067.5284
 Red. masses --      1.0365                 1.0840                 1.0867
 Frc consts  --      5.6589                 5.9992                 6.0249
 IR Inten    --     13.4259                 3.4255                20.7454

                     46                     47                     48
                      A                      A                      A
 Frequencies --   3097.7408              3111.8137              3116.1970
 Red. masses --      1.1013                 1.0931                 1.0958
 Frc consts  --      6.2263                 6.2365                 6.2694
 IR Inten    --     34.6897                 3.6567                26.8184

                     49                     50                     51
                      A                      A                      A
 Frequencies --   3127.6564              3503.1234              3780.1396
 Red. masses --      1.1018                 1.1611                 1.0655
 Frc consts  --      6.3505                 8.3951                 8.9704
 IR Inten    --     18.7886                73.4048                25.2077

 - Thermochemistry -
 -------------------
 Temperature   298.150 Kelvin.  Pressure   1.00000 Atm.
 Atom     1 has atomic number  6 and mass  12.00000

 Molecular mass:   126.06808 amu.
 Principal axes and moments of inertia in atomic units:
                           1         2         3
     Eigenvalues --   833.362621282.101671461.74067
           X            0.99996  -0.00148   0.00917
           Y            0.00260   0.99240  -0.12301
           Z           -0.00891   0.12303   0.99236
 This molecule is an asymmetric top.
 Rotational symmetry number  1.
 Warning -- assumption of classical behavior for rotation
           may cause significant error
 Rotational temperatures (Kelvin)      0.10393     0.06756     0.05925
 Rotational constants (GHZ):           2.16561     1.40764     1.23465
 Zero-point vibrational energy     415518.7 (Joules/Mol)
                                   99.31134 (Kcal/Mol)
 Warning -- explicit consideration of  12 degrees of freedom as
           vibrations may cause significant error
 Vibrational temperatures:    104.57   207.22   239.50   287.65   335.20
          (Kelvin)            374.40   488.42   566.25   632.56   672.56
                              744.77   787.82   901.42   909.19   961.60
                             1073.82  1220.60  1239.69  1269.38  1406.22
                             1438.59  1463.63  1523.18  1555.99  1565.19
                             1605.48  1643.12  1717.80  1785.98  1824.20
                             1844.84  1904.42  1916.43  1982.17  2002.03
                             2027.82  2060.18  2148.38  2153.21  2193.40
                             3211.27  4361.00  4379.84  4409.58  4413.48
                             4456.95  4477.20  4483.51  4499.99  5040.21
                             5438.77

 Zero-point correction=                           0.158263 (Hartree/Particle)
 Thermal correction to Energy=                    0.167365
 Thermal correction to Enthalpy=                  0.168309
 Thermal correction to Gibbs Free Energy=         0.124634
 Sum of electronic and zero-point Energies=           -422.995260
 Sum of electronic and thermal Energies=              -422.986157
 Sum of electronic and thermal Enthalpies=            -422.985213
 Sum of electronic and thermal Free Energies=         -423.028888

                     E (Thermal)             CV                S
                      KCal/Mol        Cal/Mol-Kelvin    Cal/Mol-Kelvin
 Total                  105.023             34.651             91.921
 Electronic               0.000              0.000              0.000
 Translational            0.889              2.981             40.409
 Rotational               0.889              2.981             28.837
 Vibrational            103.246             28.690             22.676
 Vibration     1          0.599              1.967              4.079
 Vibration     2          0.616              1.909              2.750
 Vibration     3          0.624              1.884              2.475
 Vibration     4          0.638              1.840              2.134
 Vibration     5          0.654              1.790              1.856
 Vibration     6          0.668              1.745              1.660
 Vibration     7          0.719              1.597              1.215
 Vibration     8          0.761              1.484              0.987
 Vibration     9          0.800              1.384              0.828
 Vibration    10          0.825              1.322              0.745
 Vibration    11          0.873              1.211              0.615
 Vibration    12          0.903              1.145              0.549

 Optimization completed.
    -- Stationary point found.
 Normal termination of Gaussian 09 at Tue Jan 28 04:39:57 2020.
