 Gaussian 09, Revision D.01,
 Gaussian 09:  ES64L-G09RevD.01 24-Apr-2013

 -----------------------------
 # b3lyp 6-31G(2df,p) opt Freq
 -----------------------------

 -----
 titel
 -----
 Symbolic Z-matrix:
 Charge =  0 Multiplicity = 1

 SCF Done:  E(RB3LYP) =  -423.179177976     A.U. after   14 cycles
 Optimization completed.
    -- Stationary point found.
 Normal termination of Gaussian 09 at Mon Jan 27 13:16:11 2020.

 ----------------------------------------------------------------------
 #N Geom=AllCheck Guess=TCheck SCRF=Check GenChk RB3LYP/6-31G(2df,p) Fr
 eq
 ----------------------------------------------------------------------

 Structure from the checkpoint file:  "/scratch/puck/g09_4c452481-b8d7-49e8-ad22-e64b3a51525c/Gau-169512.chk"
 -----
 titel
 -----
 Charge =  0 Multiplicity = 1

                         Standard orientation:
 ---------------------------------------------------------------------
 Center     Atomic      Atomic             Coordinates (Angstroms)
 Number     Number       Type             X           Y           Z
 ---------------------------------------------------------------------
      1          8           0       -2.468249    0.564699    0.152344
      2          6           0       -1.887918   -0.361133   -0.358965
      3          6           0       -0.612613   -0.985270    0.127410
      4          6           0        0.313792   -0.355731    1.211076
      5          6           0        1.492354   -1.076174    0.487992
      6          6           0        0.645478   -0.915699   -0.803615
      7          8           0        0.743824    0.375137   -1.376379
      8          6           0        1.041952    1.412014   -0.432240
      9          6           0        0.445255    1.158715    0.972526
     10          1           0       -2.295286   -0.845643   -1.277676
     11          1           0       -0.826036   -2.038708    0.353449
     12          1           0        0.110275   -0.593948    2.256320
     13          1           0        2.483037   -0.617420    0.513319
     14          1           0        1.572218   -2.128570    0.770402
     15          1           0        0.749262   -1.633516   -1.619522
     16          1           0        2.133120    1.515439   -0.359640
     17          1           0        0.656507    2.336244   -0.870078
     18          1           0        1.115166    1.597188    1.720787
     19          1           0       -0.532661    1.629911    1.079820
 ---------------------------------------------------------------------

 SCF Done:  E(RB3LYP) =  -423.179177976     A.U. after    1 cycles

 The electronic state is 1-A.
 Alpha  occ. eigenvalues --  -19.14233 -19.13884 -10.26933 -10.24648 -10.22857
 Alpha  occ. eigenvalues --  -10.20167 -10.19635 -10.19092 -10.18212  -1.04579
 Alpha  occ. eigenvalues --   -1.03619  -0.85566  -0.76797  -0.70751  -0.64729
 Alpha  occ. eigenvalues --   -0.62606  -0.58647  -0.52426  -0.51349  -0.48821
 Alpha  occ. eigenvalues --   -0.47066  -0.44390  -0.43721  -0.41450  -0.40539
 Alpha  occ. eigenvalues --   -0.39588  -0.38118  -0.37475  -0.35306  -0.32474
 Alpha  occ. eigenvalues --   -0.32287  -0.28770  -0.25604  -0.23787
 Alpha virt. eigenvalues --   -0.02100   0.07731   0.09386   0.11971   0.12604
 Alpha virt. eigenvalues --    0.13170   0.13964   0.14697   0.15193   0.16603
 Alpha virt. eigenvalues --    0.18148   0.18378   0.19618   0.20488   0.22083

 Mulliken charges:
               1
     1  O   -0.251063
     2  C    0.144072
     3  C   -0.093672
     4  C   -0.051055
     5  C   -0.260835
     6  C    0.110835
     7  O   -0.274492
     8  C   -0.072933
     9  C   -0.238767
    10  H    0.075857
    11  H    0.095823
    12  H    0.072524
    13  H    0.105347
    14  H    0.104136
    15  H    0.081007
    16  H    0.098721
    17  H    0.116176
    18  H    0.096314
    19  H    0.142005
 Sum of Mulliken charges =   0.00000

 Dipole moment (field-independent basis, Debye):
    X=              1.8236    Y=             -1.7794    Z=              0.7268  Tot=              2.6495
 Quadrupole moment (field-independent basis, Debye-Ang):
   XX=            -57.7893   YY=            -49.5101   ZZ=            -54.8553
   XY=              3.9591   XZ=              2.6838   YZ=              0.8301

  Exact polarizability:  77.726  -0.786  77.212   2.634   3.487  68.426
 Approx polarizability: 110.596  -5.801 115.540  -0.066   7.326 104.414

                      1                      2                      3
                      A                      A                      A
 Frequencies --     72.6184               152.5269               192.6933
 Red. masses --      4.7720                 2.6009                 3.9081
 Frc consts  --      0.0148                 0.0357                 0.0855
 IR Inten    --      4.0078                 2.1390                 9.0910

                      4                      5                      6
                      A                      A                      A
 Frequencies --    240.2106               311.7150               409.6097
 Red. masses --      2.9447                 2.6317                 2.4951
 Frc consts  --      0.1001                 0.1507                 0.2467
 IR Inten    --      1.1820                 0.3693                 1.4934

                      7                      8                      9
                      A                      A                      A
 Frequencies --    468.5947               510.9893               570.2655
 Red. masses --      3.2825                 4.5085                 3.5771
 Frc consts  --      0.4247                 0.6936                 0.6854
 IR Inten    --      3.3685                 0.8469                 2.0520

                     10                     11                     12
                      A                      A                      A
 Frequencies --    705.8332               737.1333               816.8834
 Red. masses --      2.7752                 2.9832                 1.6957
 Frc consts  --      0.8146                 0.9550                 0.6667
 IR Inten    --     20.0416                 8.4732                 2.3935

                     13                     14                     15
                      A                      A                      A
 Frequencies --    824.6760               835.0066               893.2019
 Red. masses --      3.4423                 2.6717                 2.2710
 Frc consts  --      1.3793                 1.0975                 1.0675
 IR Inten    --     10.2719                 7.9919                 1.9281

                     16                     17                     18
                      A                      A                      A
 Frequencies --    909.0221               938.0461               966.1902
 Red. masses --      1.8755                 2.0429                 2.0629
 Frc consts  --      0.9131                 1.0591                 1.1346
 IR Inten    --      3.3321                12.4987                13.0648

                     19                     20                     21
                      A                      A                      A
 Frequencies --    997.7272              1019.4854              1055.6399
 Red. masses --      1.7556                 2.4562                 1.5907
 Frc consts  --      1.0296                 1.5041                 1.0444
 IR Inten    --      0.2886                23.8127                25.1786

                     22                     23                     24
                      A                      A                      A
 Frequencies --   1073.0495              1095.8796              1117.6213
 Red. masses --      2.5345                 1.5920                 2.0642
 Frc consts  --      1.7194                 1.1264                 1.5191
 IR Inten    --     24.8643                11.2082                 1.5787

                     25                     26                     27
                      A                      A                      A
 Frequencies --   1144.5277              1186.7858              1208.2248
 Red. masses --      1.8419                 1.8095                 1.6498
 Frc consts  --      1.4216                 1.5016                 1.4189
 IR Inten    --      1.0013                46.4386                21.1863

                     28                     29                     30
                      A                      A                      A
 Frequencies --   1232.1315              1244.2841              1274.5878
 Red. masses --      1.4461                 1.4437                 1.2792
 Frc consts  --      1.2935                 1.3169                 1.2244
 IR Inten    --     17.0028                 4.8316                 5.2028

                     31                     32                     33
                      A                      A                      A
 Frequencies --   1283.0706              1326.0948              1350.9704
 Red. masses --      1.4096                 1.4910                 1.3157
 Frc consts  --      1.3672                 1.5448                 1.4149
 IR Inten    --      0.8683                 8.5685                 4.6870

                     34                     35                     36
                      A                      A                      A
 Frequencies --   1366.9692              1376.2996              1413.9010
 Red. masses --      1.7634                 1.3146                 1.3065
 Frc consts  --      1.9415                 1.4672                 1.5389
 IR Inten    --     14.2379                 2.6161                 3.9916

                     37                     38                     39
                      A                      A                      A
 Frequencies --   1427.4795              1488.9919              1496.6827
 Red. masses --      1.2041                 1.1144                 1.0853
 Frc consts  --      1.4457                 1.4557                 1.4324
 IR Inten    --      7.1595                 2.0288                 8.1256

                     40                     41                     42
                      A                      A                      A
 Frequencies --   1525.0212              1819.5453              2852.3813
 Red. masses --      1.0873                10.4814                 1.0815
 Frc consts  --      1.4899                20.4453                 5.1844
 IR Inten    --      1.8407               144.9957               135.1490

                     43                     44                     45
                      A                      A                      A
 Frequencies --   3003.8149              3026.1065              3046.2187
 Red. masses --      1.0717                 1.0822                 1.0684
 Frc consts  --      5.6971                 5.8390                 5.8412
 IR Inten    --     46.6817                15.8554                38.8602

                     46                     47                     48
                      A                      A                      A
 Frequencies --   3067.7979              3089.6558              3092.5754
 Red. masses --      1.0590                 1.0927                 1.0877
 Frc consts  --      5.8721                 6.1460                 6.1289
 IR Inten    --     21.5311                31.2947                76.8036

                     49                     50                     51
                      A                      A                      A
 Frequencies --   3095.5514              3123.9779              3126.5196
 Red. masses --      1.0897                 1.1069                 1.0974
 Frc consts  --      6.1525                 6.3648                 6.3203
 IR Inten    --     18.3086                22.8708                12.3010

 - Thermochemistry -
 -------------------
 Temperature   298.150 Kelvin.  Pressure   1.00000 Atm.
 Atom     1 has atomic number  8 and mass  15.99491

 Molecular mass:   126.06808 amu.
 Principal axes and moments of inertia in atomic units:
                           1         2         3
     Eigenvalues --   719.399781118.069111199.23977
           X            0.99915   0.02461   0.03315
           Y           -0.02705   0.99680   0.07517
           Z           -0.03120  -0.07600   0.99662
 This molecule is an asymmetric top.
 Rotational symmetry number  1.
 Warning -- assumption of classical behavior for rotation
           may cause significant error
 Rotational temperatures (Kelvin)      0.12040     0.07747     0.07222
 Rotational constants (GHZ):           2.50868     1.61416     1.50490
 Zero-point vibrational energy     422310.4 (Joules/Mol)
                                  100.93461 (Kcal/Mol)
 Warning -- explicit consideration of   9 degrees of freedom as
           vibrations may cause significant error
 Vibrational temperatures:    104.48   219.45   277.24   345.61   448.49
          (Kelvin)            589.34   674.20   735.20   820.48  1015.54
                             1060.57  1175.31  1186.52  1201.39  1285.12
                             1307.88  1349.64  1390.13  1435.51  1466.81
                             1518.83  1543.88  1576.72  1608.01  1646.72
                             1707.52  1738.36  1772.76  1790.24  1833.85
                             1846.05  1907.95  1943.74  1966.76  1980.19
                             2034.29  2053.82  2142.32  2153.39  2194.16
                             2617.92  4103.94  4321.81  4353.89  4382.82
                             4413.87  4445.32  4449.52  4453.80  4494.70
                             4498.36

 Zero-point correction=                           0.160850 (Hartree/Particle)
 Thermal correction to Energy=                    0.168500
 Thermal correction to Enthalpy=                  0.169444
 Thermal correction to Gibbs Free Energy=         0.128510
 Sum of electronic and zero-point Energies=           -423.018328
 Sum of electronic and thermal Energies=              -423.010678
 Sum of electronic and thermal Enthalpies=            -423.009734
 Sum of electronic and thermal Free Energies=         -423.050668

                     E (Thermal)             CV                S
                      KCal/Mol        Cal/Mol-Kelvin    Cal/Mol-Kelvin
 Total                  105.735             29.654             86.151
 Electronic               0.000              0.000              0.000
 Translational            0.889              2.981             40.409
 Rotational               0.889              2.981             28.358
 Vibrational            103.958             23.692             17.385
 Vibration     1          0.599              1.967              4.081
 Vibration     2          0.619              1.900              2.640
 Vibration     3          0.635              1.850              2.202
 Vibration     4          0.657              1.779              1.801
 Vibration     5          0.700              1.651              1.353
 Vibration     6          0.774              1.449              0.928
 Vibration     7          0.826              1.320              0.741
 Vibration     8          0.866              1.226              0.631
 Vibration     9          0.926              1.096              0.504

 Optimization completed.
    -- Stationary point found.
 Normal termination of Gaussian 09 at Mon Jan 27 14:03:16 2020.
