 Gaussian 09, Revision D.01,
 Gaussian 09:  ES64L-G09RevD.01 24-Apr-2013

 -----------------------------
 # b3lyp 6-31G(2df,p) opt Freq
 -----------------------------

 -----
 titel
 -----
 Symbolic Z-matrix:
 Charge =  0 Multiplicity = 1

 SCF Done:  E(RB3LYP) =  -423.202727174     A.U. after   14 cycles
 SCF Done:  E(RB3LYP) =  -423.202727103     A.U. after    7 cycles
 SCF Done:  E(RB3LYP) =  -423.202727262     A.U. after    7 cycles
 Optimization completed.
    -- Stationary point found.
 Normal termination of Gaussian 09 at Mon Jan 27 22:07:23 2020.

 ----------------------------------------------------------------------
 #N Geom=AllCheck Guess=TCheck SCRF=Check GenChk RB3LYP/6-31G(2df,p) Fr
 eq
 ----------------------------------------------------------------------

 Structure from the checkpoint file:  "/scratch/puck/g09_dcf3af3e-f50b-44a2-a367-d3f84256aac1/Gau-192410.chk"
 -----
 titel
 -----
 Charge =  0 Multiplicity = 1

                         Standard orientation:
 ---------------------------------------------------------------------
 Center     Atomic      Atomic             Coordinates (Angstroms)
 Number     Number       Type             X           Y           Z
 ---------------------------------------------------------------------
      1          6           0        1.397829    1.934730   -0.611634
      2          6           0        1.324072    0.430553   -0.736955
      3          6           0        1.435258   -0.479326    0.432641
      4          6           0        2.210076   -1.774895    0.371335
      5          6           0        0.085512   -0.375500   -0.281070
      6          6           0       -1.031592    0.283581    0.407966
      7          8           0       -0.945956    1.140065    1.268985
      8          6           0       -2.447903   -0.162977    0.011053
      9          8           0       -2.688545   -1.018165   -0.799737
     10          1           0        0.900889    2.426541   -1.454530
     11          1           0        0.928978    2.282617    0.310524
     12          1           0        2.444935    2.257099   -0.608791
     13          1           0        1.731346    0.036896   -1.666151
     14          1           0        1.429389    0.020868    1.398658
     15          1           0        3.269693   -1.603884    0.591155
     16          1           0        1.830269   -2.502066    1.096369
     17          1           0        2.145639   -2.227821   -0.623377
     18          1           0       -0.211726   -1.194830   -0.924970
     19          1           0       -3.232917    0.392392    0.567132
 ---------------------------------------------------------------------

 SCF Done:  E(RB3LYP) =  -423.202727262     A.U. after    1 cycles

 The electronic state is 1-A.
 Alpha  occ. eigenvalues --  -19.16695 -19.14762 -10.28382 -10.27814 -10.21261
 Alpha  occ. eigenvalues --  -10.20842 -10.20256 -10.18911 -10.18095  -1.07250
 Alpha  occ. eigenvalues --   -1.05088  -0.88099  -0.73822  -0.72621  -0.68372
 Alpha  occ. eigenvalues --   -0.62311  -0.57918  -0.52452  -0.50188  -0.47376
 Alpha  occ. eigenvalues --   -0.46486  -0.45066  -0.43543  -0.42641  -0.41082
 Alpha  occ. eigenvalues --   -0.40568  -0.39515  -0.38116  -0.36993  -0.35914
 Alpha  occ. eigenvalues --   -0.31084  -0.29549  -0.28835  -0.24493
 Alpha virt. eigenvalues --   -0.08893   0.03102   0.08994   0.10938   0.12065
 Alpha virt. eigenvalues --    0.13589   0.14195   0.15208   0.16237   0.16627
 Alpha virt. eigenvalues --    0.17555   0.17935   0.18382   0.19790   0.22238

 Mulliken charges:
               1
     1  C   -0.427548
     2  C   -0.008870
     3  C   -0.012716
     4  C   -0.415408
     5  C   -0.163596
     6  C    0.282978
     7  O   -0.318810
     8  C    0.096458
     9  O   -0.223200
    10  H    0.119362
    11  H    0.154962
    12  H    0.120214
    13  H    0.096202
    14  H    0.110474
    15  H    0.125606
    16  H    0.126502
    17  H    0.120292
    18  H    0.112167
    19  H    0.104929
 Sum of Mulliken charges =   0.00000

 Dipole moment (field-independent basis, Debye):
    X=              1.8734    Y=             -0.2845    Z=             -0.4440  Tot=              1.9462
 Quadrupole moment (field-independent basis, Debye-Ang):
   XX=            -53.3310   YY=            -55.1910   ZZ=            -55.1853
   XY=             -2.7215   XZ=             -2.2293   YZ=             -3.9734

  Exact polarizability:  94.282  -1.319  77.345  -2.079   4.145  67.199
 Approx polarizability: 123.179   1.186 115.278  -1.825  18.980 113.889

                      1                      2                      3
                      A                      A                      A
 Frequencies --     52.2392               132.2253               151.9379
 Red. masses --      5.3883                 2.7870                 3.6878
 Frc consts  --      0.0087                 0.0287                 0.0502
 IR Inten    --      0.1197                11.8031                 1.4846

                      4                      5                      6
                      A                      A                      A
 Frequencies --    161.4342               194.0194               215.2469
 Red. masses --      4.8295                 1.4596                 1.1602
 Frc consts  --      0.0742                 0.0324                 0.0317
 IR Inten    --      7.6829                 0.9302                 0.1949

                      7                      8                      9
                      A                      A                      A
 Frequencies --    228.8821               276.8099               301.1364
 Red. masses --      1.6711                 3.4248                 2.3362
 Frc consts  --      0.0516                 0.1546                 0.1248
 IR Inten    --      2.2469                11.5655                 2.6673

                     10                     11                     12
                      A                      A                      A
 Frequencies --    379.8144               452.4730               525.6771
 Red. masses --      3.6429                 2.9152                 6.6161
 Frc consts  --      0.3096                 0.3516                 1.0772
 IR Inten    --      1.5276                 1.3877                 8.2904

                     13                     14                     15
                      A                      A                      A
 Frequencies --    615.6379               638.7657               727.6127
 Red. masses --      3.4649                 4.8625                 3.9053
 Frc consts  --      0.7737                 1.1689                 1.2182
 IR Inten    --      8.4899                45.9280                 0.8728

                     16                     17                     18
                      A                      A                      A
 Frequencies --    812.6194               829.1019               940.4202
 Red. masses --      2.5243                 2.2609                 1.7881
 Frc consts  --      0.9821                 0.9157                 0.9317
 IR Inten    --     37.4024                 3.2783                24.2418

                     19                     20                     21
                      A                      A                      A
 Frequencies --    969.5280               985.2983              1035.2774
 Red. masses --      1.6004                 1.2174                 2.0223
 Frc consts  --      0.8864                 0.6964                 1.2770
 IR Inten    --     25.5673                 8.6648                 1.7951

                     22                     23                     24
                      A                      A                      A
 Frequencies --   1057.8821              1094.5434              1110.3177
 Red. masses --      2.4572                 1.3530                 1.8801
 Frc consts  --      1.6202                 0.9550                 1.3656
 IR Inten    --      1.8106                26.7547                15.2064

                     25                     26                     27
                      A                      A                      A
 Frequencies --   1135.4877              1149.6692              1173.9054
 Red. masses --      1.2732                 1.5097                 2.8806
 Frc consts  --      0.9672                 1.1757                 2.3388
 IR Inten    --     14.8078                 0.4595                23.4300

                     28                     29                     30
                      A                      A                      A
 Frequencies --   1200.3425              1240.3698              1336.6314
 Red. masses --      1.8556                 1.5867                 1.2887
 Frc consts  --      1.5752                 1.4383                 1.3565
 IR Inten    --      1.8008                 0.6172                11.2717

                     31                     32                     33
                      A                      A                      A
 Frequencies --   1362.5643              1398.9846              1418.6798
 Red. masses --      1.2138                 1.5870                 1.2666
 Frc consts  --      1.3277                 1.8300                 1.5019
 IR Inten    --      2.2826                36.8883                10.6880

                     34                     35                     36
                      A                      A                      A
 Frequencies --   1419.2055              1470.5524              1490.1063
 Red. masses --      1.2552                 1.8961                 1.0458
 Frc consts  --      1.4895                 2.4159                 1.3682
 IR Inten    --      4.5099                39.5483                 2.4355

                     37                     38                     39
                      A                      A                      A
 Frequencies --   1497.6813              1504.4378              1507.9717
 Red. masses --      1.0445                 1.0469                 1.2959
 Frc consts  --      1.3804                 1.3961                 1.7362
 IR Inten    --     14.5940                 1.5206                16.0672

                     40                     41                     42
                      A                      A                      A
 Frequencies --   1764.7826              1824.1060              2922.2402
 Red. masses --     10.8042                10.9284                 1.0876
 Frc consts  --     19.8255                21.4243                 5.4722
 IR Inten    --    106.5481                95.2679               110.6370

                     43                     44                     45
                      A                      A                      A
 Frequencies --   3030.4975              3036.3466              3092.9962
 Red. masses --      1.0353                 1.0382                 1.1009
 Frc consts  --      5.6019                 5.6393                 6.2051
 IR Inten    --     29.8933                27.9528                18.4414

                     46                     47                     48
                      A                      A                      A
 Frequencies --   3095.4422              3101.1365              3123.3825
 Red. masses --      1.1008                 1.1008                 1.0887
 Frc consts  --      6.2146                 6.2373                 6.2577
 IR Inten    --     20.1770                18.5995                 4.0609

                     49                     50                     51
                      A                      A                      A
 Frequencies --   3140.9211              3148.2961              3188.6200
 Red. masses --      1.0950                 1.0892                 1.0875
 Frc consts  --      6.3649                 6.3606                 6.5146
 IR Inten    --      3.5775                16.3896                 2.3120

 - Thermochemistry -
 -------------------
 Temperature   298.150 Kelvin.  Pressure   1.00000 Atm.
 Atom     1 has atomic number  6 and mass  12.00000

 Molecular mass:   126.06808 amu.
 Principal axes and moments of inertia in atomic units:
                           1         2         3
     Eigenvalues --   800.078991599.494961942.12510
           X            0.99964  -0.02584  -0.00694
           Y            0.02544   0.99826  -0.05324
           Z            0.00830   0.05305   0.99856
 This molecule is an asymmetric top.
 Rotational symmetry number  1.
 Warning -- assumption of classical behavior for rotation
           may cause significant error
 Rotational temperatures (Kelvin)      0.10826     0.05415     0.04460
 Rotational constants (GHZ):           2.25570     1.12832     0.92926
 Zero-point vibrational energy     410703.5 (Joules/Mol)
                                   98.16048 (Kcal/Mol)
 Warning -- explicit consideration of  13 degrees of freedom as
           vibrations may cause significant error
 Vibrational temperatures:     75.16   190.24   218.60   232.27   279.15
          (Kelvin)            309.69   329.31   398.27   433.27   546.47
                              651.01   756.33   885.76   919.04  1046.87
                             1169.18  1192.89  1353.05  1394.93  1417.62
                             1489.53  1522.05  1574.80  1597.50  1633.71
                             1654.12  1688.99  1727.02  1784.61  1923.11
                             1960.42  2012.82  2041.16  2041.92  2115.79
                             2143.93  2154.83  2164.55  2169.63  2539.13
                             2624.48  4204.45  4360.20  4368.62  4450.13
                             4453.65  4461.84  4493.85  4519.08  4529.69
                             4587.71

 Zero-point correction=                           0.156429 (Hartree/Particle)
 Thermal correction to Energy=                    0.166256
 Thermal correction to Enthalpy=                  0.167200
 Thermal correction to Gibbs Free Energy=         0.121370
 Sum of electronic and zero-point Energies=           -423.046299
 Sum of electronic and thermal Energies=              -423.036472
 Sum of electronic and thermal Enthalpies=            -423.035527
 Sum of electronic and thermal Free Energies=         -423.081357

                     E (Thermal)             CV                S
                      KCal/Mol        Cal/Mol-Kelvin    Cal/Mol-Kelvin
 Total                  104.327             35.080             96.457
 Electronic               0.000              0.000              0.000
 Translational            0.889              2.981             40.409
 Rotational               0.889              2.981             29.298
 Vibrational            102.549             29.119             26.750
 Vibration     1          0.596              1.977              4.731
 Vibration     2          0.612              1.921              2.913
 Vibration     3          0.619              1.901              2.648
 Vibration     4          0.622              1.890              2.533
 Vibration     5          0.635              1.848              2.189
 Vibration     6          0.645              1.818              1.999
 Vibration     7          0.652              1.797              1.888
 Vibration     8          0.678              1.716              1.553
 Vibration     9          0.693              1.672              1.411
 Vibration    10          0.750              1.513              1.040
 Vibration    11          0.811              1.355              0.788
 Vibration    12          0.881              1.193              0.597
 Vibration    13          0.975              0.999              0.424

 Normal termination of Gaussian 09 at Mon Jan 27 22:43:49 2020.
