 Gaussian 09, Revision D.01,
 Gaussian 09:  ES64L-G09RevD.01 24-Apr-2013

 -----------------------------
 # b3lyp 6-31G(2df,p) opt Freq
 -----------------------------

 -----
 titel
 -----
 Symbolic Z-matrix:
 Charge =  0 Multiplicity = 1

 SCF Done:  E(RB3LYP) =  -423.167166156     A.U. after   12 cycles
 Optimization completed.
    -- Stationary point found.
 Normal termination of Gaussian 09 at Tue Jan 28 01:54:26 2020.

 ----------------------------------------------------------------------
 #N Geom=AllCheck Guess=TCheck SCRF=Check GenChk RB3LYP/6-31G(2df,p) Fr
 eq
 ----------------------------------------------------------------------

 Structure from the checkpoint file:  "/scratch/puck/g09_983bba6b-d5b7-4d78-b72f-08ff6b2270cb/Gau-38078.chk"
 -----
 titel
 -----
 Charge =  0 Multiplicity = 1

                         Standard orientation:
 ---------------------------------------------------------------------
 Center     Atomic      Atomic             Coordinates (Angstroms)
 Number     Number       Type             X           Y           Z
 ---------------------------------------------------------------------
      1          6           0        2.531156   -0.945082   -0.502860
      2          6           0        1.659123    0.282135   -0.481433
      3          8           0        1.543975    0.983549    0.768308
      4          6           0        0.370190    0.383257    0.221237
      5          6           0       -0.284617   -0.772362    0.990190
      6          6           0       -1.715564   -0.768345    0.497065
      7          8           0       -1.820603   -0.773389   -0.934153
      8          6           0       -1.983808    0.473567   -0.242251
      9          6           0       -0.739861    1.332763   -0.253149
     10          1           0        3.586643   -0.658309   -0.554782
     11          1           0        2.391183   -1.550631    0.395154
     12          1           0        2.305563   -1.559035   -1.381562
     13          1           0        1.793117    0.947035   -1.337983
     14          1           0        0.210705   -1.732149    0.822176
     15          1           0       -0.255671   -0.566208    2.067079
     16          1           0       -2.488172   -1.321308    1.024690
     17          1           0       -2.972948    0.918805   -0.308383
     18          1           0       -0.528220    1.767347   -1.234379
     19          1           0       -0.848892    2.157580    0.461955
 ---------------------------------------------------------------------

 SCF Done:  E(RB3LYP) =  -423.167166156     A.U. after    1 cycles

 The electronic state is 1-A.
 Alpha  occ. eigenvalues --  -19.14908 -19.14342 -10.24090 -10.23756 -10.23717
 Alpha  occ. eigenvalues --  -10.23349 -10.19055 -10.18944 -10.18180  -1.07315
 Alpha  occ. eigenvalues --   -1.06371  -0.79912  -0.74486  -0.73128  -0.65388
 Alpha  occ. eigenvalues --   -0.60943  -0.58226  -0.55320  -0.52512  -0.48249
 Alpha  occ. eigenvalues --   -0.45466  -0.44303  -0.43133  -0.42352  -0.41309
 Alpha  occ. eigenvalues --   -0.39591  -0.37455  -0.36599  -0.36109  -0.34242
 Alpha  occ. eigenvalues --   -0.29756  -0.28387  -0.26486  -0.25973
 Alpha virt. eigenvalues --    0.08593   0.09606   0.10131   0.11654   0.12620
 Alpha virt. eigenvalues --    0.13051   0.14132   0.14803   0.15029   0.15980
 Alpha virt. eigenvalues --    0.16798   0.17908   0.18381   0.19858   0.20593

 Mulliken charges:
               1
     1  C   -0.422708
     2  C    0.006592
     3  O   -0.310963
     4  C    0.445594
     5  C   -0.344546
     6  C    0.048229
     7  O   -0.260997
     8  C    0.046962
     9  C   -0.337896
    10  H    0.128650
    11  H    0.127178
    12  H    0.127740
    13  H    0.085189
    14  H    0.116541
    15  H    0.117602
    16  H    0.096930
    17  H    0.096978
    18  H    0.115190
    19  H    0.117735
 Sum of Mulliken charges =   0.00000

 Dipole moment (field-independent basis, Debye):
    X=             -0.5292    Y=             -0.1222    Z=              0.3043  Tot=              0.6226
 Quadrupole moment (field-independent basis, Debye-Ang):
   XX=            -51.9848   YY=            -52.9602   ZZ=            -54.0719
   XY=             -4.5240   XZ=             -5.9770   YZ=             -3.9540

  Exact polarizability:  85.326  -3.430  71.852  -4.014  -4.224  65.955
 Approx polarizability: 108.957  -1.597 107.694  -2.235  -1.160 107.435

                      1                      2                      3
                      A                      A                      A
 Frequencies --     69.1881               164.4226               202.8799
 Red. masses --      3.5429                 1.3628                 2.2760
 Frc consts  --      0.0100                 0.0217                 0.0552
 IR Inten    --      3.0584                 1.0374                 2.5293

                      4                      5                      6
                      A                      A                      A
 Frequencies --    240.3437               326.3641               365.5868
 Red. masses --      2.1344                 2.0125                 2.8066
 Frc consts  --      0.0726                 0.1263                 0.2210
 IR Inten    --      0.3781                 1.1986                 4.0826

                      7                      8                      9
                      A                      A                      A
 Frequencies --    386.1325               460.8743               478.2139
 Red. masses --      4.8729                 3.4557                 2.5981
 Frc consts  --      0.4281                 0.4325                 0.3501
 IR Inten    --      2.0990                 4.4974                 2.0544

                     10                     11                     12
                      A                      A                      A
 Frequencies --    555.7638               674.7974               768.6022
 Red. masses --      4.1441                 5.8368                 3.1017
 Frc consts  --      0.7542                 1.5659                 1.0796
 IR Inten    --     12.6261                 2.6605                16.3065

                     13                     14                     15
                      A                      A                      A
 Frequencies --    794.5467               822.8164               860.8226
 Red. masses --      3.7685                 4.4295                 2.2147
 Frc consts  --      1.4017                 1.7669                 0.9669
 IR Inten    --      4.9276                 1.7604                27.4964

                     16                     17                     18
                      A                      A                      A
 Frequencies --    878.7297               929.1185               931.2901
 Red. masses --      2.8302                 2.4112                 1.8129
 Frc consts  --      1.2876                 1.2264                 0.9264
 IR Inten    --     23.8578                 0.0421                 0.3028

                     19                     20                     21
                      A                      A                      A
 Frequencies --    976.0006              1002.7597              1020.7815
 Red. masses --      2.0576                 1.3892                 2.2416
 Frc consts  --      1.1548                 0.8230                 1.3762
 IR Inten    --     13.8938                10.4060                18.2790

                     22                     23                     24
                      A                      A                      A
 Frequencies --   1036.4394              1095.0304              1101.5164
 Red. masses --      1.3730                 1.1791                 2.8595
 Frc consts  --      0.8690                 0.8330                 2.0442
 IR Inten    --      1.1870                 0.8565                21.6499

                     25                     26                     27
                      A                      A                      A
 Frequencies --   1126.5407              1156.3824              1180.8462
 Red. masses --      2.4140                 2.0921                 1.3002
 Frc consts  --      1.8051                 1.6483                 1.0682
 IR Inten    --      7.1854                 7.3462                 1.9606

                     28                     29                     30
                      A                      A                      A
 Frequencies --   1213.1852              1217.8979              1265.0620
 Red. masses --      1.7523                 1.5053                 1.3482
 Frc consts  --      1.5195                 1.3155                 1.2712
 IR Inten    --      1.5085                 0.5813                 5.9776

                     31                     32                     33
                      A                      A                      A
 Frequencies --   1295.1013              1300.3943              1339.3058
 Red. masses --      1.6373                 1.7006                 1.4523
 Frc consts  --      1.6180                 1.6943                 1.5348
 IR Inten    --      3.4685                 2.8262                 5.4723

                     34                     35                     36
                      A                      A                      A
 Frequencies --   1365.7412              1408.6192              1441.1339
 Red. masses --      1.5019                 1.2753                 2.9365
 Frc consts  --      1.6506                 1.4910                 3.5933
 IR Inten    --     19.7577                 4.7436                14.1817

                     37                     38                     39
                      A                      A                      A
 Frequencies --   1466.1308              1471.3978              1480.8755
 Red. masses --      1.2605                 1.1738                 1.1240
 Frc consts  --      1.5964                 1.4972                 1.4523
 IR Inten    --      5.4177                 5.7750                 0.3788

                     40                     41                     42
                      A                      A                      A
 Frequencies --   1492.6290              1513.0283              3038.7595
 Red. masses --      1.1122                 1.8783                 1.0397
 Frc consts  --      1.4599                 2.5335                 5.6563
 IR Inten    --      8.3291                 8.9181                10.0106

                     43                     44                     45
                      A                      A                      A
 Frequencies --   3039.4593              3043.9112              3079.0449
 Red. masses --      1.0601                 1.0635                 1.0867
 Frc consts  --      5.7704                 5.8058                 6.0702
 IR Inten    --     27.0306                11.7081                18.8451

                     46                     47                     48
                      A                      A                      A
 Frequencies --   3091.2498              3098.7312              3101.2770
 Red. masses --      1.1000                 1.0984                 1.1007
 Frc consts  --      6.1933                 6.2142                 6.2375
 IR Inten    --     19.0965                16.1582                16.8454

                     49                     50                     51
                      A                      A                      A
 Frequencies --   3131.9865              3145.1412              3157.3565
 Red. masses --      1.0998                 1.0871                 1.0956
 Frc consts  --      6.3563                 6.3356                 6.4352
 IR Inten    --     23.5307                17.6933                42.2334

 - Thermochemistry -
 -------------------
 Temperature   298.150 Kelvin.  Pressure   1.00000 Atm.
 Atom     1 has atomic number  6 and mass  12.00000

 Molecular mass:   126.06808 amu.
 Principal axes and moments of inertia in atomic units:
                           1         2         3
     Eigenvalues --   550.325471408.242801548.99419
           X            0.99859  -0.04669  -0.02530
           Y            0.04356   0.99267  -0.11274
           Z            0.03038   0.11148   0.99330
 This molecule is an asymmetric top.
 Rotational symmetry number  1.
 Warning -- assumption of classical behavior for rotation
           may cause significant error
 Rotational temperatures (Kelvin)      0.15739     0.06150     0.05592
 Rotational constants (GHZ):           3.27941     1.28156     1.16511
 Zero-point vibrational energy     417521.9 (Joules/Mol)
                                   99.79013 (Kcal/Mol)
 Warning -- explicit consideration of  10 degrees of freedom as
           vibrations may cause significant error
 Vibrational temperatures:     99.55   236.57   291.90   345.80   469.56
          (Kelvin)            526.00   555.56   663.09   688.04   799.62
                              970.88  1105.85  1143.17  1183.85  1238.53
                             1264.29  1336.79  1339.92  1404.25  1442.75
                             1468.68  1491.20  1575.50  1584.83  1620.84
                             1663.77  1698.97  1745.50  1752.28  1820.14
                             1863.36  1870.97  1926.96  1964.99  2026.69
                             2073.47  2109.43  2117.01  2130.65  2147.56
                             2176.91  4372.09  4373.10  4379.50  4430.05
                             4447.61  4458.38  4462.04  4506.22  4525.15
                             4542.73

 Zero-point correction=                           0.159026 (Hartree/Particle)
 Thermal correction to Energy=                    0.167025
 Thermal correction to Enthalpy=                  0.167969
 Thermal correction to Gibbs Free Energy=         0.126421
 Sum of electronic and zero-point Energies=           -423.008140
 Sum of electronic and thermal Energies=              -423.000141
 Sum of electronic and thermal Enthalpies=            -422.999197
 Sum of electronic and thermal Free Energies=         -423.040745

                     E (Thermal)             CV                S
                      KCal/Mol        Cal/Mol-Kelvin    Cal/Mol-Kelvin
 Total                  104.810             31.161             87.445
 Electronic               0.000              0.000              0.000
 Translational            0.889              2.981             40.409
 Rotational               0.889              2.981             28.575
 Vibrational            103.032             25.200             18.461
 Vibration     1          0.598              1.969              4.176
 Vibration     2          0.623              1.886              2.498
 Vibration     3          0.639              1.836              2.107
 Vibration     4          0.657              1.779              1.800
 Vibration     5          0.710              1.623              1.278
 Vibration     6          0.739              1.543              1.098
 Vibration     7          0.755              1.500              1.015
 Vibration     8          0.819              1.337              0.764
 Vibration     9          0.835              1.298              0.715
 Vibration    10          0.911              1.127              0.532

 Optimization completed.
    -- Stationary point found.
 Normal termination of Gaussian 09 at Tue Jan 28 02:43:06 2020.
