 Gaussian 09, Revision D.01,
 Gaussian 09:  ES64L-G09RevD.01 24-Apr-2013

 -----------------------------
 # b3lyp 6-31G(2df,p) opt Freq
 -----------------------------

 -----
 titel
 -----
 Symbolic Z-matrix:
 Charge =  0 Multiplicity = 1

 SCF Done:  E(RB3LYP) =  -423.228236858     A.U. after   14 cycles
 Optimization completed.
    -- Stationary point found.
 Normal termination of Gaussian 09 at Tue Jan 28 02:49:23 2020.

 ----------------------------------------------------------------------
 #N Geom=AllCheck Guess=TCheck SCRF=Check GenChk RB3LYP/6-31G(2df,p) Fr
 eq
 ----------------------------------------------------------------------

 Structure from the checkpoint file:  "/scratch/puck/g09_21e15031-4909-481d-860d-362966f26186/Gau-172537.chk"
 -----
 titel
 -----
 Charge =  0 Multiplicity = 1

                         Standard orientation:
 ---------------------------------------------------------------------
 Center     Atomic      Atomic             Coordinates (Angstroms)
 Number     Number       Type             X           Y           Z
 ---------------------------------------------------------------------
      1          6           0        2.472277   -1.139808   -0.126936
      2          6           0        1.140317   -0.601334    0.386938
      3          6           0       -0.138408   -1.252277   -0.161798
      4          6           0       -1.133117   -0.107832   -0.085352
      5          6           0       -2.502840   -0.101509   -0.669542
      6          6           0       -2.313964   -0.066132    0.840005
      7          8           0       -0.386702    1.101353   -0.215649
      8          6           0        0.931518    0.876428    0.044458
      9          8           0        1.751500    1.746872   -0.002888
     10          1           0        2.494562   -1.146933   -1.221530
     11          1           0        3.291749   -0.506133    0.220839
     12          1           0        2.644549   -2.161266    0.224105
     13          1           0        1.129302   -0.649948    1.485019
     14          1           0        0.014455   -1.555464   -1.204839
     15          1           0       -0.465551   -2.128323    0.401739
     16          1           0       -2.829583    0.812934   -1.151142
     17          1           0       -2.865939   -1.014779   -1.129260
     18          1           0       -2.515494    0.873644    1.341225
     19          1           0       -2.551139   -0.954754    1.415502
 ---------------------------------------------------------------------

 SCF Done:  E(RB3LYP) =  -423.228236858     A.U. after    1 cycles

 The electronic state is 1-A.
 Alpha  occ. eigenvalues --  -19.18133 -19.12041 -10.29920 -10.25783 -10.20944
 Alpha  occ. eigenvalues --  -10.20335 -10.19756 -10.19685 -10.18527  -1.10031
 Alpha  occ. eigenvalues --   -1.02085  -0.86721  -0.81611  -0.71482  -0.65198
 Alpha  occ. eigenvalues --   -0.61808  -0.60711  -0.54596  -0.51585  -0.48995
 Alpha  occ. eigenvalues --   -0.46533  -0.45773  -0.42978  -0.42241  -0.41577
 Alpha  occ. eigenvalues --   -0.38808  -0.38042  -0.37172  -0.36350  -0.34955
 Alpha  occ. eigenvalues --   -0.32965  -0.30848  -0.26739  -0.26070
 Alpha virt. eigenvalues --    0.01434   0.08020   0.09619   0.09904   0.10304
 Alpha virt. eigenvalues --    0.13665   0.14054   0.15013   0.15966   0.17017
 Alpha virt. eigenvalues --    0.17481   0.18181   0.21082   0.21536   0.21815

 Mulliken charges:
               1
     1  C   -0.406210
     2  C   -0.131128
     3  C   -0.314962
     4  C    0.443297
     5  C   -0.332919
     6  C   -0.325565
     7  O   -0.252453
     8  C    0.427806
     9  O   -0.344007
    10  H    0.124108
    11  H    0.144904
    12  H    0.116572
    13  H    0.114042
    14  H    0.114706
    15  H    0.114554
    16  H    0.135654
    17  H    0.120715
    18  H    0.132877
    19  H    0.118009
 Sum of Mulliken charges =   0.00000

 Dipole moment (field-independent basis, Debye):
    X=             -1.8362    Y=             -3.5977    Z=              0.4686  Tot=              4.0663
 Quadrupole moment (field-independent basis, Debye-Ang):
   XX=            -54.2421   YY=            -57.3541   ZZ=            -51.2994
   XY=             -4.5140   XZ=              0.3938   YZ=              0.3447

  Exact polarizability:  92.739   2.095  71.868   0.336  -0.010  63.677
 Approx polarizability: 120.512   9.367 107.081   0.835  -1.189  98.222

                      1                      2                      3
                      A                      A                      A
 Frequencies --     84.6331               114.0098               209.1820
 Red. masses --      2.7491                 5.7176                 1.0543
 Frc consts  --      0.0116                 0.0438                 0.0272
 IR Inten    --      0.0880                 0.3433                 0.3526

                      4                      5                      6
                      A                      A                      A
 Frequencies --    232.9946               271.6700               301.5885
 Red. masses --      2.6717                 3.0833                 2.3520
 Frc consts  --      0.0855                 0.1341                 0.1260
 IR Inten    --      0.9239                 4.9903                 1.8658

                      7                      8                      9
                      A                      A                      A
 Frequencies --    372.6129               448.8073               500.5709
 Red. masses --      2.4485                 3.0511                 3.7109
 Frc consts  --      0.2003                 0.3621                 0.5479
 IR Inten    --      0.6700                 0.7622                 0.4432

                     10                     11                     12
                      A                      A                      A
 Frequencies --    523.3839               597.5839               703.2329
 Red. masses --      3.7995                 6.5878                 4.0908
 Frc consts  --      0.6132                 1.3861                 1.1919
 IR Inten    --      5.5116                 8.9426                 3.7043

                     13                     14                     15
                      A                      A                      A
 Frequencies --    764.5813               778.6651               806.3930
 Red. masses --      1.2214                 2.5302                 2.9358
 Frc consts  --      0.4207                 0.9039                 1.1248
 IR Inten    --      1.5473                 2.2480                 2.6266

                     16                     17                     18
                      A                      A                      A
 Frequencies --    878.0000               922.2995               928.4440
 Red. masses --      1.8072                 1.7644                 1.3884
 Frc consts  --      0.8208                 0.8843                 0.7051
 IR Inten    --      6.1099                 1.9613                 2.7697

                     19                     20                     21
                      A                      A                      A
 Frequencies --    961.9056               972.7717               992.1018
 Red. masses --      1.9487                 2.1921                 2.9803
 Frc consts  --      1.0624                 1.2222                 1.7283
 IR Inten    --     15.7769                18.9164                16.2139

                     22                     23                     24
                      A                      A                      A
 Frequencies --   1054.0392              1060.9930              1079.7618
 Red. masses --      1.4596                 2.0192                 1.4592
 Frc consts  --      0.9555                 1.3392                 1.0023
 IR Inten    --      1.4304                45.1959                 0.2131

                     25                     26                     27
                      A                      A                      A
 Frequencies --   1127.9234              1140.4246              1176.1474
 Red. masses --      2.6527                 1.8770                 2.9460
 Frc consts  --      1.9884                 1.4383                 2.4011
 IR Inten    --     71.5902                 3.9388               193.5485

                     28                     29                     30
                      A                      A                      A
 Frequencies --   1179.2959              1188.6036              1278.4491
 Red. masses --      1.6887                 1.2823                 1.8554
 Frc consts  --      1.3837                 1.0674                 1.7867
 IR Inten    --      7.5693                 1.7981                25.7033

                     31                     32                     33
                      A                      A                      A
 Frequencies --   1294.5433              1313.6282              1359.4348
 Red. masses --      1.6609                 1.4979                 1.7804
 Frc consts  --      1.6399                 1.5230                 1.9385
 IR Inten    --     16.7361                24.3673                18.5191

                     34                     35                     36
                      A                      A                      A
 Frequencies --   1382.8828              1411.9224              1451.6795
 Red. masses --      2.2675                 1.2252                 1.0900
 Frc consts  --      2.5548                 1.4390                 1.3534
 IR Inten    --     20.9340                 3.1201                 2.3947

                     37                     38                     39
                      A                      A                      A
 Frequencies --   1492.6541              1497.6865              1499.0555
 Red. masses --      1.0737                 1.0601                 1.0724
 Frc consts  --      1.4095                 1.4010                 1.4198
 IR Inten    --      4.0120                 5.0702                 6.1112

                     40                     41                     42
                      A                      A                      A
 Frequencies --   1502.1657              1879.7106              3014.2261
 Red. masses --      1.6437                12.8634                 1.0809
 Frc consts  --      2.1852                26.7786                 5.7861
 IR Inten    --     21.6536               353.0936                 3.5028

                     43                     44                     45
                      A                      A                      A
 Frequencies --   3035.8205              3043.2163              3108.4727
 Red. masses --      1.0652                 1.0376                 1.0990
 Frc consts  --      5.7840                 5.6616                 6.2567
 IR Inten    --     16.9615                30.9143                 4.7573

                     46                     47                     48
                      A                      A                      A
 Frequencies --   3112.1402              3128.6966              3133.4238
 Red. masses --      1.1005                 1.1014                 1.0513
 Frc consts  --      6.2800                 6.3521                 6.0815
 IR Inten    --     32.9497                10.2769                11.4247

                     49                     50                     51
                      A                      A                      A
 Frequencies --   3136.3039              3219.7014              3232.9960
 Red. masses --      1.0583                 1.1182                 1.1155
 Frc consts  --      6.1335                 6.8298                 6.8698
 IR Inten    --      5.4443                 0.2359                 7.1552

 - Thermochemistry -
 -------------------
 Temperature   298.150 Kelvin.  Pressure   1.00000 Atm.
 Atom     1 has atomic number  6 and mass  12.00000

 Molecular mass:   126.06808 amu.
 Principal axes and moments of inertia in atomic units:
                           1         2         3
     Eigenvalues --   577.108431393.233081763.92995
           X            0.99923  -0.03925  -0.00247
           Y            0.03927   0.99919   0.00843
           Z            0.00214  -0.00852   0.99996
 This molecule is an asymmetric top.
 Rotational symmetry number  1.
 Warning -- assumption of classical behavior for rotation
           may cause significant error
 Rotational temperatures (Kelvin)      0.15008     0.06217     0.04910
 Rotational constants (GHZ):           3.12721     1.29536     1.02314
 Zero-point vibrational energy     418103.4 (Joules/Mol)
                                   99.92911 (Kcal/Mol)
 Warning -- explicit consideration of  11 degrees of freedom as
           vibrations may cause significant error
 Vibrational temperatures:    121.77   164.03   300.97   335.23   390.87
          (Kelvin)            433.92   536.11   645.73   720.21   753.03
                              859.79  1011.79  1100.06  1120.32  1160.22
                             1263.24  1326.98  1335.82  1383.97  1399.60
                             1427.41  1516.53  1526.53  1553.53  1622.83
                             1640.81  1692.21  1696.74  1710.13  1839.40
                             1862.56  1890.02  1955.92  1989.66  2031.44
                             2088.64  2147.59  2154.83  2156.80  2161.28
                             2704.48  4336.79  4367.86  4378.50  4472.39
                             4477.67  4501.49  4508.29  4512.44  4632.43
                             4651.55

 Zero-point correction=                           0.159247 (Hartree/Particle)
 Thermal correction to Energy=                    0.167588
 Thermal correction to Enthalpy=                  0.168532
 Thermal correction to Gibbs Free Energy=         0.126265
 Sum of electronic and zero-point Energies=           -423.068990
 Sum of electronic and thermal Energies=              -423.060649
 Sum of electronic and thermal Enthalpies=            -423.059705
 Sum of electronic and thermal Free Energies=         -423.101972

                     E (Thermal)             CV                S
                      KCal/Mol        Cal/Mol-Kelvin    Cal/Mol-Kelvin
 Total                  105.163             32.075             88.957
 Electronic               0.000              0.000              0.000
 Translational            0.889              2.981             40.409
 Rotational               0.889              2.981             28.741
 Vibrational            103.385             26.114             19.808
 Vibration     1          0.601              1.960              3.780
 Vibration     2          0.607              1.938              3.199
 Vibration     3          0.642              1.827              2.051
 Vibration     4          0.654              1.790              1.856
 Vibration     5          0.675              1.725              1.586
 Vibration     6          0.694              1.671              1.408
 Vibration     7          0.744              1.528              1.069
 Vibration     8          0.808              1.364              0.799
 Vibration     9          0.856              1.249              0.657
 Vibration    10          0.878              1.198              0.602
 Vibration    11          0.956              1.037              0.454

 Normal termination of Gaussian 09 at Tue Jan 28 03:22:43 2020.
