 Gaussian 09, Revision D.01,
 Gaussian 09:  ES64L-G09RevD.01 24-Apr-2013

 -----------------------------
 # b3lyp 6-31G(2df,p) opt Freq
 -----------------------------

 -----
 titel
 -----
 Symbolic Z-matrix:
 Charge =  0 Multiplicity = 1

 SCF Done:  E(RB3LYP) =  -423.219592007     A.U. after   14 cycles
 Optimization completed.
    -- Stationary point found.
 Normal termination of Gaussian 09 at Mon Jan 27 14:01:36 2020.

 ----------------------------------------------------------------------
 #N Geom=AllCheck Guess=TCheck SCRF=Check GenChk RB3LYP/6-31G(2df,p) Fr
 eq
 ----------------------------------------------------------------------

 Structure from the checkpoint file:  "/scratch/puck/g09_8209d563-67fe-4042-b681-2f05bdd2c59b/Gau-170251.chk"
 -----
 titel
 -----
 Charge =  0 Multiplicity = 1

                         Standard orientation:
 ---------------------------------------------------------------------
 Center     Atomic      Atomic             Coordinates (Angstroms)
 Number     Number       Type             X           Y           Z
 ---------------------------------------------------------------------
      1          6           0       -2.184755   -0.737875   -0.421129
      2          6           0       -1.228618    0.419762   -0.209705
      3          8           0       -1.459860    1.529936   -0.629976
      4          6           0        0.083069    0.094816    0.521516
      5          6           0       -0.141452   -0.674474    1.828621
      6          6           0        1.091940    1.281559    0.540255
      7          6           0        1.955050    0.606937   -0.569751
      8          6           0        1.052365   -0.623125   -0.466859
      9          8           0        1.075726   -1.735998   -0.906038
     10          1           0       -2.692856   -0.982307    0.518195
     11          1           0       -2.933099   -0.456747   -1.162957
     12          1           0       -1.641095   -1.632975   -0.740083
     13          1           0        0.815066   -0.869018    2.322760
     14          1           0       -0.767004   -0.101064    2.520591
     15          1           0       -0.620085   -1.639138    1.643979
     16          1           0        0.642179    2.232847    0.260356
     17          1           0        1.612140    1.380906    1.494453
     18          1           0        1.881157    1.088445   -1.550375
     19          1           0        3.011070    0.421937   -0.356500
 ---------------------------------------------------------------------

 SCF Done:  E(RB3LYP) =  -423.219592007     A.U. after    1 cycles

 The electronic state is 1-A.
 Alpha  occ. eigenvalues --  -19.15032 -19.13659 -10.27929 -10.27773 -10.20969
 Alpha  occ. eigenvalues --  -10.19950 -10.19777 -10.19200 -10.19035  -1.05885
 Alpha  occ. eigenvalues --   -1.04718  -0.85936  -0.76821  -0.73004  -0.65676
 Alpha  occ. eigenvalues --   -0.63498  -0.57179  -0.49504  -0.48598  -0.47297
 Alpha  occ. eigenvalues --   -0.46957  -0.44272  -0.43692  -0.43119  -0.40611
 Alpha  occ. eigenvalues --   -0.40317  -0.39449  -0.38585  -0.36311  -0.34956
 Alpha  occ. eigenvalues --   -0.34746  -0.33228  -0.26303  -0.24108
 Alpha virt. eigenvalues --   -0.04329   0.00043   0.08101   0.10666   0.11621
 Alpha virt. eigenvalues --    0.12506   0.14428   0.14572   0.15504   0.16578
 Alpha virt. eigenvalues --    0.16673   0.17266   0.19108   0.20427   0.21802

 Mulliken charges:
               1
     1  C   -0.490576
     2  C    0.346008
     3  O   -0.300240
     4  C    0.089119
     5  C   -0.463900
     6  C   -0.283798
     7  C   -0.334712
     8  C    0.366110
     9  O   -0.298865
    10  H    0.145916
    11  H    0.143002
    12  H    0.161743
    13  H    0.127013
    14  H    0.130219
    15  H    0.140525
    16  H    0.136539
    17  H    0.105985
    18  H    0.146117
    19  H    0.133794
 Sum of Mulliken charges =   0.00000

 Dipole moment (field-independent basis, Debye):
    X=              0.4442    Y=             -0.0870    Z=              1.8660  Tot=              1.9201
 Quadrupole moment (field-independent basis, Debye-Ang):
   XX=            -50.9340   YY=            -60.7458   ZZ=            -52.2811
   XY=              6.8443   XZ=             -0.2536   YZ=             -1.2917

  Exact polarizability:  84.034   3.258  77.175  -0.480  -0.773  68.913
 Approx polarizability: 113.876  -4.338 130.212  -0.538   0.042 101.561

                      1                      2                      3
                      A                      A                      A
 Frequencies --     34.3247                67.3147               128.6718
 Red. masses --      2.9939                 4.4793                 4.1209
 Frc consts  --      0.0021                 0.0120                 0.0402
 IR Inten    --      3.8456                 6.0159                 1.6538

                      4                      5                      6
                      A                      A                      A
 Frequencies --    170.9390               201.7587               214.6509
 Red. masses --      1.0622                 1.2974                 2.6644
 Frc consts  --      0.0183                 0.0311                 0.0723
 IR Inten    --      0.7756                 0.0685                 3.3401

                      7                      8                      9
                      A                      A                      A
 Frequencies --    268.1900               334.1336               388.3706
 Red. masses --      2.2567                 2.2051                 3.5259
 Frc consts  --      0.0956                 0.1451                 0.3133
 IR Inten    --      4.4308                 0.8126                 1.7805

                     10                     11                     12
                      A                      A                      A
 Frequencies --    446.2516               486.2523               561.5927
 Red. masses --      3.6574                 2.4300                 3.2797
 Frc consts  --      0.4291                 0.3385                 0.6094
 IR Inten    --      2.0074                 1.8368                 4.4649

                     13                     14                     15
                      A                      A                      A
 Frequencies --    598.9739               627.4261               711.6661
 Red. masses --      2.8931                 3.4637                 4.1821
 Frc consts  --      0.6115                 0.8034                 1.2479
 IR Inten    --      9.6127                 3.6057                 0.2838

                     16                     17                     18
                      A                      A                      A
 Frequencies --    744.1696               817.3108               883.8074
 Red. masses --      1.2820                 2.7699                 2.5652
 Frc consts  --      0.4183                 1.0902                 1.1806
 IR Inten    --      3.5081                27.0331                 5.2842

                     19                     20                     21
                      A                      A                      A
 Frequencies --    937.9309               966.0375               970.3213
 Red. masses --      2.8459                 2.0773                 1.6209
 Frc consts  --      1.4751                 1.1422                 0.8992
 IR Inten    --      7.5410                29.4789                 1.4110

                     22                     23                     24
                      A                      A                      A
 Frequencies --   1020.8659              1054.6934              1084.2543
 Red. masses --      1.5789                 3.8567                 1.5828
 Frc consts  --      0.9695                 2.5276                 1.0963
 IR Inten    --      0.9502               109.5174                 0.2747

                     25                     26                     27
                      A                      A                      A
 Frequencies --   1134.1582              1148.1076              1190.2769
 Red. masses --      2.1190                 1.9636                 2.8014
 Frc consts  --      1.6059                 1.5250                 2.3384
 IR Inten    --     12.3451                50.2377                 2.9583

                     28                     29                     30
                      A                      A                      A
 Frequencies --   1212.4293              1226.8432              1261.7614
 Red. masses --      1.6714                 1.4512                 2.1320
 Frc consts  --      1.4476                 1.2869                 1.9998
 IR Inten    --     21.3348                 7.9872                30.2566

                     31                     32                     33
                      A                      A                      A
 Frequencies --   1275.9505              1383.4339              1406.3019
 Red. masses --      1.7111                 1.2971                 1.1970
 Frc consts  --      1.6413                 1.4626                 1.3947
 IR Inten    --      7.8394                37.1117                 2.2779

                     34                     35                     36
                      A                      A                      A
 Frequencies --   1433.7279              1466.1668              1476.0675
 Red. masses --      1.0911                 1.0491                 1.0538
 Frc consts  --      1.3214                 1.3288                 1.3528
 IR Inten    --      6.4656                15.0172                 6.7344

                     37                     38                     39
                      A                      A                      A
 Frequencies --   1479.1610              1497.0469              1499.1880
 Red. masses --      1.0970                 1.0536                 1.0489
 Frc consts  --      1.4141                 1.3912                 1.3890
 IR Inten    --      6.0124                11.4092                 2.4309

                     40                     41                     42
                      A                      A                      A
 Frequencies --   1795.5309              1877.4583              3038.4231
 Red. masses --     11.2068                12.7044                 1.0356
 Frc consts  --     21.2871                26.3843                 5.6332
 IR Inten    --    210.8571               185.9153                14.4370

                     43                     44                     45
                      A                      A                      A
 Frequencies --   3041.5343              3058.1047              3087.4539
 Red. masses --      1.0363                 1.0599                 1.0635
 Frc consts  --      5.6481                 5.8402                 5.9731
 IR Inten    --      6.9188                 7.9400                19.2475

                     46                     47                     48
                      A                      A                      A
 Frequencies --   3105.0750              3106.5788              3112.1160
 Red. masses --      1.1018                 1.0982                 1.1025
 Frc consts  --      6.2589                 6.2445                 6.2913
 IR Inten    --     12.2559                 4.3136                 8.6807

                     49                     50                     51
                      A                      A                      A
 Frequencies --   3126.9329              3153.8812              3157.7570
 Red. masses --      1.1000                 1.1031                 1.1051
 Frc consts  --      6.3372                 6.4646                 6.4923
 IR Inten    --     14.2876                 6.0508                 4.7258

 - Thermochemistry -
 -------------------
 Temperature   298.150 Kelvin.  Pressure   1.00000 Atm.
 Atom     1 has atomic number  6 and mass  12.00000

 Molecular mass:   126.06808 amu.
 Principal axes and moments of inertia in atomic units:
                           1         2         3
     Eigenvalues --   854.372751202.276901365.38925
           X            0.98952   0.14439  -0.00096
           Y           -0.14417   0.98763  -0.06172
           Z           -0.00797   0.06121   0.99809
 This molecule is an asymmetric top.
 Rotational symmetry number  1.
 Warning -- assumption of classical behavior for rotation
           may cause significant error
 Rotational temperatures (Kelvin)      0.10138     0.07204     0.06344
 Rotational constants (GHZ):           2.11236     1.50110     1.32178
 Zero-point vibrational energy     409549.8 (Joules/Mol)
                                   97.88474 (Kcal/Mol)
 Warning -- explicit consideration of  13 degrees of freedom as
           vibrations may cause significant error
 Vibrational temperatures:     49.39    96.85   185.13   245.94   290.29
          (Kelvin)            308.83   385.87   480.74   558.78   642.06
                              699.61   808.01   861.79   902.73  1023.93
                             1070.69  1175.93  1271.60  1349.47  1389.91
                             1396.07  1468.80  1517.47  1560.00  1631.80
                             1651.87  1712.54  1744.41  1765.15  1815.39
                             1835.81  1990.45  2023.35  2062.81  2109.48
                             2123.73  2128.18  2153.91  2156.99  2583.37
                             2701.24  4371.61  4376.08  4399.93  4442.15
                             4467.50  4469.67  4477.64  4498.95  4537.73
                             4543.30

 Zero-point correction=                           0.155989 (Hartree/Particle)
 Thermal correction to Energy=                    0.165748
 Thermal correction to Enthalpy=                  0.166692
 Thermal correction to Gibbs Free Energy=         0.120587
 Sum of electronic and zero-point Energies=           -423.063603
 Sum of electronic and thermal Energies=              -423.053844
 Sum of electronic and thermal Enthalpies=            -423.052900
 Sum of electronic and thermal Free Energies=         -423.099005

                     E (Thermal)             CV                S
                      KCal/Mol        Cal/Mol-Kelvin    Cal/Mol-Kelvin
 Total                  104.008             35.096             97.036
 Electronic               0.000              0.000              0.000
 Translational            0.889              2.981             40.409
 Rotational               0.889              2.981             28.730
 Vibrational            102.231             29.134             27.898
 Vibration     1          0.594              1.983              5.562
 Vibration     2          0.598              1.970              4.230
 Vibration     3          0.611              1.925              2.966
 Vibration     4          0.626              1.878              2.425
 Vibration     5          0.639              1.837              2.117
 Vibration     6          0.645              1.819              2.004
 Vibration     7          0.673              1.732              1.608
 Vibration     8          0.716              1.607              1.240
 Vibration     9          0.757              1.495              1.006
 Vibration    10          0.806              1.369              0.807
 Vibration    11          0.842              1.281              0.693
 Vibration    12          0.917              1.114              0.521
 Vibration    13          0.957              1.034              0.451

 Optimization completed.
    -- Stationary point found.
 Normal termination of Gaussian 09 at Mon Jan 27 14:42:37 2020.
