 Gaussian 09, Revision D.01,
 Gaussian 09:  ES64L-G09RevD.01 24-Apr-2013

 -----------------------------
 # b3lyp 6-31G(2df,p) opt Freq
 -----------------------------

 -----
 titel
 -----
 Symbolic Z-matrix:
 Charge =  0 Multiplicity = 1

 SCF Done:  E(RB3LYP) =  -423.168702720     A.U. after   14 cycles
 Optimization completed.
    -- Stationary point found.
 Normal termination of Gaussian 09 at Mon Jan 27 14:02:01 2020.

 ----------------------------------------------------------------------
 #N Geom=AllCheck Guess=TCheck SCRF=Check GenChk RB3LYP/6-31G(2df,p) Fr
 eq
 ----------------------------------------------------------------------

 Structure from the checkpoint file:  "/scratch/puck/g09_3dc326e4-d1be-48e8-9203-945a6a2bab2c/Gau-76802.chk"
 -----
 titel
 -----
 Charge =  0 Multiplicity = 1

                         Standard orientation:
 ---------------------------------------------------------------------
 Center     Atomic      Atomic             Coordinates (Angstroms)
 Number     Number       Type             X           Y           Z
 ---------------------------------------------------------------------
      1          6           0        2.495549    0.036934    0.687064
      2          6           0        1.364604   -0.543583   -0.135704
      3          8           0        1.445234   -1.611024   -0.699926
      4          6           0        0.079175    0.259369   -0.225144
      5          6           0        0.174666    1.635061   -0.764929
      6          8           0        0.004238    1.407392    0.630692
      7          6           0       -1.174034   -0.547802   -0.382999
      8          6           0       -1.970644   -0.931756    0.840717
      9          6           0       -2.522739    0.071886   -0.140479
     10          1           0        3.383843   -0.583094    0.562950
     11          1           0        2.713678    1.072309    0.410595
     12          1           0        2.200898    0.057997    1.742006
     13          1           0        1.137181    2.050894   -1.058176
     14          1           0       -0.691811    2.038401   -1.285060
     15          1           0       -1.091060   -1.297527   -1.161042
     16          1           0       -2.402270   -1.925273    0.875640
     17          1           0       -1.635689   -0.547576    1.797882
     18          1           0       -3.341496   -0.223899   -0.786555
     19          1           0       -2.548508    1.106174    0.184483
 ---------------------------------------------------------------------

 SCF Done:  E(RB3LYP) =  -423.168702720     A.U. after    1 cycles

 The electronic state is 1-A.
 Alpha  occ. eigenvalues --  -19.17004 -19.13344 -10.27435 -10.25406 -10.24888
 Alpha  occ. eigenvalues --  -10.19649 -10.18945 -10.18747 -10.18682  -1.09071
 Alpha  occ. eigenvalues --   -1.04344  -0.85904  -0.75438  -0.70701  -0.66533
 Alpha  occ. eigenvalues --   -0.60305  -0.59197  -0.54130  -0.51052  -0.49142
 Alpha  occ. eigenvalues --   -0.48211  -0.44631  -0.43440  -0.42959  -0.41880
 Alpha  occ. eigenvalues --   -0.39339  -0.37549  -0.36562  -0.36457  -0.33284
 Alpha  occ. eigenvalues --   -0.30206  -0.29574  -0.28028  -0.24484
 Alpha virt. eigenvalues --   -0.02193   0.08576   0.09297   0.09679   0.11497
 Alpha virt. eigenvalues --    0.11778   0.14114   0.14404   0.15976   0.16768
 Alpha virt. eigenvalues --    0.17254   0.18235   0.19861   0.22283   0.23080

 Mulliken charges:
               1
     1  C   -0.479895
     2  C    0.330760
     3  O   -0.304379
     4  C    0.268274
     5  C   -0.217342
     6  O   -0.263101
     7  C   -0.060675
     8  C   -0.262427
     9  C   -0.284485
    10  H    0.139882
    11  H    0.141243
    12  H    0.155339
    13  H    0.120421
    14  H    0.128921
    15  H    0.111123
    16  H    0.117236
    17  H    0.122298
    18  H    0.112975
    19  H    0.123831
 Sum of Mulliken charges =   0.00000

 Dipole moment (field-independent basis, Debye):
    X=             -0.2378    Y=              1.6272    Z=             -0.2220  Tot=              1.6594
 Quadrupole moment (field-independent basis, Debye-Ang):
   XX=            -50.5929   YY=            -56.0376   ZZ=            -53.0173
   XY=              4.4565   XZ=              2.7759   YZ=             -4.6602

  Exact polarizability:  84.438   0.981  77.867   1.989  -2.335  63.973
 Approx polarizability: 105.281  -1.918 124.160  -0.123   3.637 103.340

                      1                      2                      3
                      A                      A                      A
 Frequencies --     63.4564                74.6001               111.0455
 Red. masses --      3.3116                 2.9517                 1.0819
 Frc consts  --      0.0079                 0.0097                 0.0079
 IR Inten    --      4.5383                 0.0795                 0.0207

                      4                      5                      6
                      A                      A                      A
 Frequencies --    170.0648               200.1360               262.8473
 Red. masses --      3.2700                 3.8143                 3.6731
 Frc consts  --      0.0557                 0.0900                 0.1495
 IR Inten    --      3.0451                 2.7282                 7.7007

                      7                      8                      9
                      A                      A                      A
 Frequencies --    297.4153               360.1388               458.3616
 Red. masses --      3.0369                 3.7827                 2.9968
 Frc consts  --      0.1583                 0.2891                 0.3710
 IR Inten    --      4.5895                 2.0834                 2.2719

                     10                     11                     12
                      A                      A                      A
 Frequencies --    479.7502               561.6866               616.2484
 Red. masses --      4.2328                 3.7234                 2.5444
 Frc consts  --      0.5740                 0.6921                 0.5693
 IR Inten    --      1.7954                16.8521                 3.6142

                     13                     14                     15
                      A                      A                      A
 Frequencies --    650.7532               789.2659               811.3273
 Red. masses --      2.9783                 1.1460                 1.8974
 Frc consts  --      0.7431                 0.4206                 0.7359
 IR Inten    --      3.7947                 2.2083                 5.5570

                     16                     17                     18
                      A                      A                      A
 Frequencies --    827.7377               873.7115               904.5674
 Red. masses --      1.2468                 3.6481                 4.4341
 Frc consts  --      0.5033                 1.6408                 2.1376
 IR Inten    --      5.6904                11.0753                13.5631

                     19                     20                     21
                      A                      A                      A
 Frequencies --    931.2166               964.4679               980.6046
 Red. masses --      2.5224                 2.4023                 2.6460
 Frc consts  --      1.2887                 1.3166                 1.4991
 IR Inten    --     10.5923                19.6727                18.8692

                     22                     23                     24
                      A                      A                      A
 Frequencies --   1045.9618              1063.2790              1090.8976
 Red. masses --      2.1076                 1.3351                 1.4179
 Frc consts  --      1.3586                 0.8893                 0.9941
 IR Inten    --      1.4636                 4.2513                 5.1444

                     25                     26                     27
                      A                      A                      A
 Frequencies --   1098.4733              1115.5789              1133.4596
 Red. masses --      1.6136                 1.5504                 1.1866
 Frc consts  --      1.1472                 1.1368                 0.8982
 IR Inten    --     33.7498                12.3690                 3.2665

                     28                     29                     30
                      A                      A                      A
 Frequencies --   1140.5390              1168.6321              1200.6161
 Red. masses --      1.2685                 1.4162                 1.3586
 Frc consts  --      0.9722                 1.1396                 1.1539
 IR Inten    --      1.3206                 1.8922                 0.3980

                     31                     32                     33
                      A                      A                      A
 Frequencies --   1224.0178              1281.4822              1359.8216
 Red. masses --      1.9951                 2.6081                 3.1665
 Frc consts  --      1.7612                 2.5235                 3.4498
 IR Inten    --      5.3569                33.0619                16.8372

                     34                     35                     36
                      A                      A                      A
 Frequencies --   1385.7894              1414.9614              1452.7817
 Red. masses --      1.3144                 2.2661                 1.0556
 Frc consts  --      1.4872                 2.6732                 1.3127
 IR Inten    --     33.3638                 1.4589                11.6506

                     37                     38                     39
                      A                      A                      A
 Frequencies --   1460.6081              1468.6424              1501.5648
 Red. masses --      1.0897                 1.0546                 1.4364
 Frc consts  --      1.3697                 1.3402                 1.9082
 IR Inten    --      1.8421                 8.6870                 1.7648

                     40                     41                     42
                      A                      A                      A
 Frequencies --   1521.4856              1803.8618              3047.8711
 Red. masses --      1.2385                11.4220                 1.0365
 Frc consts  --      1.6892                21.8978                 5.6731
 IR Inten    --      3.5287               149.6867                 0.9771

                     43                     44                     45
                      A                      A                      A
 Frequencies --   3090.6890              3110.2818              3136.4915
 Red. masses --      1.0498                 1.0961                 1.0507
 Frc consts  --      5.9084                 6.2471                 6.0901
 IR Inten    --     19.5590                 6.8132                15.8478

                     46                     47                     48
                      A                      A                      A
 Frequencies --   3140.3848              3157.7251              3182.4359
 Red. masses --      1.0571                 1.1039                 1.1196
 Frc consts  --      6.1424                 6.4854                 6.6808
 IR Inten    --      9.1411                10.4984                15.7606

                     49                     50                     51
                      A                      A                      A
 Frequencies --   3183.9048              3218.3321              3233.1133
 Red. masses --      1.0887                 1.1182                 1.1156
 Frc consts  --      6.5026                 6.8236                 6.8704
 IR Inten    --      0.9090                 0.3590                12.4846

 - Thermochemistry -
 -------------------
 Temperature   298.150 Kelvin.  Pressure   1.00000 Atm.
 Atom     1 has atomic number  6 and mass  12.00000

 Molecular mass:   126.06808 amu.
 Principal axes and moments of inertia in atomic units:
                           1         2         3
     Eigenvalues --   681.634561335.820651659.03142
           X            0.99913   0.03836   0.01631
           Y           -0.03737   0.99767  -0.05716
           Z           -0.01846   0.05650   0.99823
 This molecule is an asymmetric top.
 Rotational symmetry number  1.
 Warning -- assumption of classical behavior for rotation
           may cause significant error
 Rotational temperatures (Kelvin)      0.12707     0.06484     0.05221
 Rotational constants (GHZ):           2.64767     1.35104     1.08783
 Zero-point vibrational energy     411653.5 (Joules/Mol)
                                   98.38754 (Kcal/Mol)
 Warning -- explicit consideration of  12 degrees of freedom as
           vibrations may cause significant error
 Vibrational temperatures:     91.30   107.33   159.77   244.69   287.95
          (Kelvin)            378.18   427.91   518.16   659.48   690.25
                              808.14   886.64   936.29  1135.58  1167.32
                             1190.93  1257.07  1301.47  1339.81  1387.65
                             1410.87  1504.90  1529.82  1569.56  1580.46
                             1605.07  1630.79  1640.98  1681.40  1727.42
                             1761.09  1843.76  1956.48  1993.84  2035.81
                             2090.23  2101.49  2113.05  2160.41  2189.08
                             2595.35  4385.20  4446.81  4475.00  4512.71
                             4518.31  4543.26  4578.81  4580.92  4630.46
                             4651.72

 Zero-point correction=                           0.156791 (Hartree/Particle)
 Thermal correction to Energy=                    0.166066
 Thermal correction to Enthalpy=                  0.167010
 Thermal correction to Gibbs Free Energy=         0.122185
 Sum of electronic and zero-point Energies=           -423.011912
 Sum of electronic and thermal Energies=              -423.002637
 Sum of electronic and thermal Enthalpies=            -423.001692
 Sum of electronic and thermal Free Energies=         -423.046518

                     E (Thermal)             CV                S
                      KCal/Mol        Cal/Mol-Kelvin    Cal/Mol-Kelvin
 Total                  104.208             33.938             94.343
 Electronic               0.000              0.000              0.000
 Translational            0.889              2.981             40.409
 Rotational               0.889              2.981             28.803
 Vibrational            102.431             27.976             25.130
 Vibration     1          0.597              1.972              4.347
 Vibration     2          0.599              1.966              4.028
 Vibration     3          0.607              1.940              3.251
 Vibration     4          0.625              1.879              2.435
 Vibration     5          0.638              1.840              2.132
 Vibration     6          0.670              1.741              1.643
 Vibration     7          0.691              1.679              1.431
 Vibration     8          0.735              1.554              1.122
 Vibration     9          0.816              1.342              0.771
 Vibration    10          0.836              1.295              0.711
 Vibration    11          0.917              1.114              0.520
 Vibration    12          0.976              0.998              0.423

 Normal termination of Gaussian 09 at Mon Jan 27 14:44:14 2020.
