 Gaussian 09, Revision D.01,
 Gaussian 09:  ES64L-G09RevD.01 24-Apr-2013

 -----------------------------
 # b3lyp 6-31G(2df,p) opt Freq
 -----------------------------

 -----
 titel
 -----
 Symbolic Z-matrix:
 Charge =  0 Multiplicity = 1

 SCF Done:  E(RB3LYP) =  -423.174177791     A.U. after   14 cycles
 Optimization completed.
    -- Stationary point found.
 Normal termination of Gaussian 09 at Mon Jan 27 16:08:44 2020.

 ----------------------------------------------------------------------
 #N Geom=AllCheck Guess=TCheck SCRF=Check GenChk RB3LYP/6-31G(2df,p) Fr
 eq
 ----------------------------------------------------------------------

 Structure from the checkpoint file:  "/scratch/puck/g09_c59c4b69-5856-43a5-92aa-2784aeeed51c/Gau-83677.chk"
 -----
 titel
 -----
 Charge =  0 Multiplicity = 1

                         Standard orientation:
 ---------------------------------------------------------------------
 Center     Atomic      Atomic             Coordinates (Angstroms)
 Number     Number       Type             X           Y           Z
 ---------------------------------------------------------------------
      1          6           0        1.212730   -1.241094    1.149634
      2          6           0        0.800643   -0.434196   -0.067145
      3          8           0        1.803663   -0.465703   -1.082867
      4          6           0       -0.566052   -0.675937   -0.779701
      5          6           0       -1.769070   -1.079659    0.107032
      6          6           0       -2.093290    0.419144    0.376434
      7          6           0       -0.948003    0.848968   -0.602006
      8          6           0        0.380939    1.056247    0.114853
      9          8           0        0.968590    2.003279    0.557877
     10          1           0        0.442540   -1.238270    1.926134
     11          1           0        1.423265   -2.276685    0.864614
     12          1           0        2.120668   -0.811926    1.587584
     13          1           0        2.545978    0.064435   -0.767447
     14          1           0       -0.456342   -1.150529   -1.753154
     15          1           0       -2.553053   -1.577608   -0.468057
     16          1           0       -1.550618   -1.701288    0.978664
     17          1           0       -3.082325    0.730710    0.036144
     18          1           0       -1.968813    0.761686    1.406841
     19          1           0       -1.206706    1.538029   -1.406017
 ---------------------------------------------------------------------

 SCF Done:  E(RB3LYP) =  -423.174177791     A.U. after    1 cycles

 The electronic state is 1-A.
 Alpha  occ. eigenvalues --  -19.14806 -19.13997 -10.26384 -10.24171 -10.19758
 Alpha  occ. eigenvalues --  -10.19495 -10.19363 -10.19114 -10.18310  -1.05099
 Alpha  occ. eigenvalues --   -1.02496  -0.87338  -0.75877  -0.71569  -0.67310
 Alpha  occ. eigenvalues --   -0.60101  -0.58041  -0.52852  -0.49186  -0.48633
 Alpha  occ. eigenvalues --   -0.45936  -0.45529  -0.42480  -0.42177  -0.41107
 Alpha  occ. eigenvalues --   -0.38195  -0.37420  -0.35845  -0.34916  -0.32360
 Alpha  occ. eigenvalues --   -0.31334  -0.30999  -0.28385  -0.23015
 Alpha virt. eigenvalues --   -0.02678   0.06958   0.09306   0.09874   0.10727
 Alpha virt. eigenvalues --    0.13025   0.14165   0.14831   0.15636   0.16984
 Alpha virt. eigenvalues --    0.17630   0.18933   0.20710   0.21076   0.23230

 Mulliken charges:
               1
     1  C   -0.457952
     2  C    0.293010
     3  O   -0.470041
     4  C   -0.056177
     5  C   -0.239142
     6  C   -0.235702
     7  C   -0.160977
     8  C    0.358298
     9  O   -0.319344
    10  H    0.120425
    11  H    0.128850
    12  H    0.124694
    13  H    0.289255
    14  H    0.086802
    15  H    0.109652
    16  H    0.103329
    17  H    0.116796
    18  H    0.114622
    19  H    0.093602
 Sum of Mulliken charges =   0.00000

 Dipole moment (field-independent basis, Debye):
    X=             -1.2832    Y=             -1.5367    Z=              0.2025  Tot=              2.0123
 Quadrupole moment (field-independent basis, Debye-Ang):
   XX=            -49.0356   YY=            -58.3884   ZZ=            -54.0799
   XY=             -1.4244   XZ=              1.1630   YZ=             -3.2888

  Exact polarizability:  84.603   1.117  75.159   1.986   0.421  65.972
 Approx polarizability: 116.182   6.125 113.636   2.231   6.380 101.898

                      1                      2                      3
                      A                      A                      A
 Frequencies --     38.9699               155.5616               189.2277
 Red. masses --      3.0718                 3.7649                 1.3444
 Frc consts  --      0.0027                 0.0537                 0.0284
 IR Inten    --      2.3724                 4.4487                 0.8665

                      4                      5                      6
                      A                      A                      A
 Frequencies --    204.1256               259.3721               263.1898
 Red. masses --      2.7403                 1.7352                 2.9595
 Frc consts  --      0.0673                 0.0688                 0.1208
 IR Inten    --      0.8380                 3.7549                16.2624

                      7                      8                      9
                      A                      A                      A
 Frequencies --    341.5401               366.4815               413.6653
 Red. masses --      3.1521                 1.4589                 2.8589
 Frc consts  --      0.2166                 0.1154                 0.2882
 IR Inten    --     39.7866                44.4576                11.7511

                     10                     11                     12
                      A                      A                      A
 Frequencies --    481.0743               616.2248               656.5999
 Red. masses --      3.6483                 3.7280                 3.1802
 Frc consts  --      0.4975                 0.8341                 0.8078
 IR Inten    --      5.6085                 2.2834                 0.8286

                     13                     14                     15
                      A                      A                      A
 Frequencies --    723.4224               762.4098               797.6476
 Red. masses --      2.0376                 1.7883                 2.7105
 Frc consts  --      0.6283                 0.6125                 1.0161
 IR Inten    --      2.2252                 5.2926                 7.7426

                     16                     17                     18
                      A                      A                      A
 Frequencies --    824.5112               850.9863               919.8046
 Red. masses --      2.1942                 2.7973                 2.0574
 Frc consts  --      0.8788                 1.1935                 1.0255
 IR Inten    --      5.0671                 0.9258                16.5254

                     19                     20                     21
                      A                      A                      A
 Frequencies --    948.7808               959.8744               982.8112
 Red. masses --      2.1106                 2.6069                 2.2300
 Frc consts  --      1.1194                 1.4152                 1.2691
 IR Inten    --     13.9827                 3.4265                25.6776

                     22                     23                     24
                      A                      A                      A
 Frequencies --   1009.6926              1051.3300              1092.4794
 Red. masses --      1.9500                 2.4857                 1.5234
 Frc consts  --      1.1713                 1.6187                 1.0712
 IR Inten    --      6.3936                31.1696                29.2102

                     25                     26                     27
                      A                      A                      A
 Frequencies --   1109.7877              1139.6616              1174.2872
 Red. masses --      1.6628                 1.9601                 2.0314
 Frc consts  --      1.2066                 1.5000                 1.6505
 IR Inten    --      6.0206                62.2413                 9.8163

                     28                     29                     30
                      A                      A                      A
 Frequencies --   1180.2410              1214.8527              1241.7744
 Red. masses --      1.7688                 1.4590                 1.9692
 Frc consts  --      1.4516                 1.2686                 1.7891
 IR Inten    --      0.0682                 1.3733                 0.8891

                     31                     32                     33
                      A                      A                      A
 Frequencies --   1252.3133              1275.7280              1282.8067
 Red. masses --      1.4780                 1.6355                 1.5872
 Frc consts  --      1.3657                 1.5682                 1.5389
 IR Inten    --      3.8484                 0.5123                 0.6348

                     34                     35                     36
                      A                      A                      A
 Frequencies --   1305.7699              1362.7469              1403.6326
 Red. masses --      1.5441                 1.6703                 1.2770
 Frc consts  --      1.5512                 1.8276                 1.4823
 IR Inten    --     14.0208                29.8842                 9.2184

                     37                     38                     39
                      A                      A                      A
 Frequencies --   1477.0254              1483.9116              1490.0502
 Red. masses --      1.0718                 1.0667                 1.0741
 Frc consts  --      1.3776                 1.3840                 1.4050
 IR Inten    --      3.0219                 3.8421                 2.2086

                     40                     41                     42
                      A                      A                      A
 Frequencies --   1505.1658              1875.4792              3034.4534
 Red. masses --      1.0925                12.6115                 1.0353
 Frc consts  --      1.4583                26.1361                 5.6167
 IR Inten    --      2.4570               233.1475                12.3980

                     43                     44                     45
                      A                      A                      A
 Frequencies --   3063.9823              3069.0778              3101.8524
 Red. masses --      1.0578                 1.0611                 1.1032
 Frc consts  --      5.8511                 5.8886                 6.2536
 IR Inten    --     32.1385                35.8597                12.6098

                     46                     47                     48
                      A                      A                      A
 Frequencies --   3103.7970              3113.1784              3117.1068
 Red. masses --      1.1028                 1.0934                 1.1003
 Frc consts  --      6.2596                 6.2435                 6.2988
 IR Inten    --     13.3919                 6.1586                18.9896

                     49                     50                     51
                      A                      A                      A
 Frequencies --   3124.2422              3133.4427              3784.0273
 Red. masses --      1.1019                 1.0928                 1.0660
 Frc consts  --      6.3367                 6.3216                 8.9934
 IR Inten    --     19.9319                29.7362                23.4817

 - Thermochemistry -
 -------------------
 Temperature   298.150 Kelvin.  Pressure   1.00000 Atm.
 Atom     1 has atomic number  6 and mass  12.00000

 Molecular mass:   126.06808 amu.
 Principal axes and moments of inertia in atomic units:
                           1         2         3
     Eigenvalues --   780.048741089.417261378.90941
           X            0.99910  -0.03857   0.01746
           Y            0.03973   0.99666  -0.07137
           Z           -0.01465   0.07200   0.99730
 This molecule is an asymmetric top.
 Rotational symmetry number  1.
 Warning -- assumption of classical behavior for rotation
           may cause significant error
 Rotational temperatures (Kelvin)      0.11104     0.07950     0.06281
 Rotational constants (GHZ):           2.31363     1.65661     1.30882
 Zero-point vibrational energy     414686.5 (Joules/Mol)
                                   99.11246 (Kcal/Mol)
 Warning -- explicit consideration of  11 degrees of freedom as
           vibrations may cause significant error
 Vibrational temperatures:     56.07   223.82   272.26   293.69   373.18
          (Kelvin)            378.67   491.40   527.28   595.17   692.16
                              886.61   944.70  1040.84  1096.94  1147.64
                             1186.29  1224.38  1323.39  1365.08  1381.04
                             1414.04  1452.72  1512.63  1571.83  1596.73
                             1639.72  1689.54  1698.10  1747.90  1786.63
                             1801.80  1835.49  1845.67  1878.71  1960.69
                             2019.51  2125.11  2135.02  2143.85  2165.60
                             2698.39  4365.90  4408.38  4415.71  4462.87
                             4465.67  4479.16  4484.82  4495.08  4508.32
                             5444.36

 Zero-point correction=                           0.157946 (Hartree/Particle)
 Thermal correction to Energy=                    0.166752
 Thermal correction to Enthalpy=                  0.167696
 Thermal correction to Gibbs Free Energy=         0.124234
 Sum of electronic and zero-point Energies=           -423.016232
 Sum of electronic and thermal Energies=              -423.007426
 Sum of electronic and thermal Enthalpies=            -423.006482
 Sum of electronic and thermal Free Energies=         -423.049944

                     E (Thermal)             CV                S
                      KCal/Mol        Cal/Mol-Kelvin    Cal/Mol-Kelvin
 Total                  104.638             33.363             91.474
 Electronic               0.000              0.000              0.000
 Translational            0.889              2.981             40.409
 Rotational               0.889              2.981             28.551
 Vibrational            102.861             27.402             22.515
 Vibration     1          0.594              1.981              5.311
 Vibration     2          0.620              1.896              2.603
 Vibration     3          0.633              1.855              2.235
 Vibration     4          0.640              1.834              2.096
 Vibration     5          0.668              1.747              1.666
 Vibration     6          0.670              1.740              1.641
 Vibration     7          0.721              1.592              1.205
 Vibration     8          0.739              1.541              1.094
 Vibration     9          0.777              1.441              0.914
 Vibration    10          0.837              1.292              0.707
 Vibration    11          0.976              0.998              0.423

 Optimization completed.
    -- Stationary point found.
 Normal termination of Gaussian 09 at Mon Jan 27 16:56:39 2020.
