 Gaussian 09, Revision D.01,
 Gaussian 09:  ES64L-G09RevD.01 24-Apr-2013

 -----------------------------
 # b3lyp 6-31G(2df,p) opt Freq
 -----------------------------

 -----
 titel
 -----
 Symbolic Z-matrix:
 Charge =  0 Multiplicity = 1

 SCF Done:  E(RB3LYP) =  -423.163603452     A.U. after   14 cycles
 Optimization completed.
    -- Stationary point found.
 Normal termination of Gaussian 09 at Mon Jan 27 13:41:51 2020.

 ----------------------------------------------------------------------
 #N Geom=AllCheck Guess=TCheck SCRF=Check GenChk RB3LYP/6-31G(2df,p) Fr
 eq
 ----------------------------------------------------------------------

 Structure from the checkpoint file:  "/scratch/puck/g09_4259cf20-ffeb-453d-bb13-d7e7f1b03e61/Gau-102296.chk"
 -----
 titel
 -----
 Charge =  0 Multiplicity = 1

                         Standard orientation:
 ---------------------------------------------------------------------
 Center     Atomic      Atomic             Coordinates (Angstroms)
 Number     Number       Type             X           Y           Z
 ---------------------------------------------------------------------
      1          8           0       -3.804476    0.212766   -0.337617
      2          6           0       -2.756991   -0.011169    0.211501
      3          6           0       -1.428686    0.608024   -0.184253
      4          6           0       -0.358146   -0.445330   -0.371734
      5          8           0        0.111789   -1.090034    0.827306
      6          6           0        1.020702   -0.279349    0.102633
      7          6           0        2.315389   -0.780338   -0.540671
      8          6           0        2.894694    0.652429   -0.335236
      9          6           0        1.718346    0.975243    0.636370
     10          1           0       -2.692011   -0.709090    1.074905
     11          1           0       -1.572189    1.195385   -1.096462
     12          1           0       -1.123285    1.282578    0.625931
     13          1           0       -0.527403   -1.134313   -1.201552
     14          1           0        2.807383   -1.523646    0.093500
     15          1           0        2.257161   -1.168808   -1.560132
     16          1           0        3.901115    0.716897    0.080256
     17          1           0        2.852616    1.251235   -1.247565
     18          1           0        1.997894    0.856567    1.687185
     19          1           0        1.208366    1.934282    0.514759
 ---------------------------------------------------------------------

 SCF Done:  E(RB3LYP) =  -423.163603452     A.U. after    1 cycles

 The electronic state is 1-A.
 Alpha  occ. eigenvalues --  -19.15718 -19.14118 -10.27319 -10.24874 -10.24781
 Alpha  occ. eigenvalues --  -10.20217 -10.19551 -10.19382 -10.19183  -1.07901
 Alpha  occ. eigenvalues --   -1.04772  -0.84499  -0.78086  -0.67812  -0.65681
 Alpha  occ. eigenvalues --   -0.62711  -0.57571  -0.54693  -0.51055  -0.49524
 Alpha  occ. eigenvalues --   -0.48016  -0.44836  -0.44694  -0.43142  -0.40079
 Alpha  occ. eigenvalues --   -0.39631  -0.37713  -0.36475  -0.35630  -0.33363
 Alpha  occ. eigenvalues --   -0.32935  -0.30048  -0.27070  -0.24930
 Alpha virt. eigenvalues --   -0.02489   0.06874   0.08585   0.10581   0.11183
 Alpha virt. eigenvalues --    0.11670   0.13210   0.14178   0.14765   0.16696
 Alpha virt. eigenvalues --    0.16968   0.17979   0.19009   0.19860   0.20304

 Mulliken charges:
               1
     1  O   -0.237249
     2  C    0.160268
     3  C   -0.306433
     4  C   -0.069627
     5  O   -0.291411
     6  C    0.456514
     7  C   -0.313559
     8  C   -0.212185
     9  C   -0.311093
    10  H    0.097016
    11  H    0.123262
    12  H    0.127166
    13  H    0.102932
    14  H    0.119252
    15  H    0.108222
    16  H    0.109386
    17  H    0.111093
    18  H    0.119222
    19  H    0.107223
 Sum of Mulliken charges =   0.00000

 Dipole moment (field-independent basis, Debye):
    X=              3.1590    Y=              0.8868    Z=             -0.3780  Tot=              3.3028
 Quadrupole moment (field-independent basis, Debye-Ang):
   XX=            -64.0683   YY=            -53.4489   ZZ=            -52.6158
   XY=              1.0060   XZ=             -2.4556   YZ=              2.1352

  Exact polarizability: 100.212   0.393  66.849   2.922  -0.224  65.688
 Approx polarizability: 127.320  -0.563  99.557   9.017  -4.367 103.983

                      1                      2                      3
                      A                      A                      A
 Frequencies --     47.7894                62.6695                99.0175
 Red. masses --      3.7590                 4.4403                 2.3569
 Frc consts  --      0.0051                 0.0103                 0.0136
 IR Inten    --      2.2015                 6.1528                 1.2574

                      4                      5                      6
                      A                      A                      A
 Frequencies --    142.4704               196.8322               267.9920
 Red. masses --      2.7782                 2.4073                 2.9529
 Frc consts  --      0.0332                 0.0550                 0.1250
 IR Inten    --      1.5836                 0.4960                 3.9797

                      7                      8                      9
                      A                      A                      A
 Frequencies --    376.4416               414.8742               485.5225
 Red. masses --      2.9096                 3.9518                 3.7503
 Frc consts  --      0.2429                 0.4008                 0.5209
 IR Inten    --      2.5658                 7.9224                 4.5181

                     10                     11                     12
                      A                      A                      A
 Frequencies --    517.6225               565.5951               714.3032
 Red. masses --      1.9207                 4.5905                 1.3936
 Frc consts  --      0.3032                 0.8652                 0.4189
 IR Inten    --     14.7172                 7.8458                 0.0776

                     13                     14                     15
                      A                      A                      A
 Frequencies --    779.6202               813.9076               823.0907
 Red. masses --      1.2733                 2.4259                 2.0450
 Frc consts  --      0.4560                 0.9468                 0.8163
 IR Inten    --      1.1110                14.9924                 3.3271

                     16                     17                     18
                      A                      A                      A
 Frequencies --    856.0320               908.3265               924.0908
 Red. masses --      2.5531                 2.5818                 2.8157
 Frc consts  --      1.1023                 1.2551                 1.4166
 IR Inten    --      9.7424                 7.5692                 1.0214

                     19                     20                     21
                      A                      A                      A
 Frequencies --    957.3092              1004.6403              1028.4468
 Red. masses --      2.9900                 1.8091                 1.4417
 Frc consts  --      1.6145                 1.0758                 0.8984
 IR Inten    --      9.3342                15.9207                11.3729

                     22                     23                     24
                      A                      A                      A
 Frequencies --   1047.5415              1091.5416              1114.9957
 Red. masses --      2.4472                 2.7066                 2.2773
 Frc consts  --      1.5822                 1.9000                 1.6680
 IR Inten    --      6.1369                49.2843                 0.4332

                     25                     26                     27
                      A                      A                      A
 Frequencies --   1143.2691              1169.8024              1205.9660
 Red. masses --      2.5492                 1.5824                 1.4321
 Frc consts  --      1.9631                 1.2758                 1.2271
 IR Inten    --     10.9162                 8.4582                 0.2935

                     28                     29                     30
                      A                      A                      A
 Frequencies --   1223.2116              1227.7917              1245.0693
 Red. masses --      1.3437                 1.2915                 1.1639
 Frc consts  --      1.1845                 1.1471                 1.0630
 IR Inten    --      2.2009                 6.4155                 0.3544

                     31                     32                     33
                      A                      A                      A
 Frequencies --   1267.2903              1277.7524              1294.6611
 Red. masses --      1.4653                 1.5644                 1.5189
 Frc consts  --      1.3865                 1.5048                 1.5000
 IR Inten    --      0.6238                 1.3106                 3.1760

                     34                     35                     36
                      A                      A                      A
 Frequencies --   1354.1072              1421.8229              1445.8316
 Red. masses --      1.3657                 1.1965                 1.0967
 Frc consts  --      1.4754                 1.4251                 1.3508
 IR Inten    --     32.6114                 7.0125                 5.5003

                     37                     38                     39
                      A                      A                      A
 Frequencies --   1467.3755              1479.2701              1485.1695
 Red. masses --      1.0942                 1.0897                 1.7265
 Frc consts  --      1.3881                 1.4049                 2.2437
 IR Inten    --      2.1274                 2.2416                 8.3419

                     40                     41                     42
                      A                      A                      A
 Frequencies --   1515.8564              1833.6373              2898.1885
 Red. masses --      1.9490                 9.9084                 1.0836
 Frc consts  --      2.6386                19.6283                 5.3627
 IR Inten    --     11.6069               204.8523                76.8799

                     43                     44                     45
                      A                      A                      A
 Frequencies --   3032.1900              3057.0465              3061.2407
 Red. masses --      1.0606                 1.0574                 1.0588
 Frc consts  --      5.7455                 5.8221                 5.8457
 IR Inten    --      3.6349                40.6125                 5.5508

                     46                     47                     48
                      A                      A                      A
 Frequencies --   3076.6924              3089.1463              3104.4923
 Red. masses --      1.0615                 1.0890                 1.0985
 Frc consts  --      5.9201                 6.1229                 6.2380
 IR Inten    --     31.5408                11.8478                19.2383

                     49                     50                     51
                      A                      A                      A
 Frequencies --   3106.2970              3112.0001              3135.2058
 Red. masses --      1.1066                 1.1072                 1.1080
 Frc consts  --      6.2911                 6.3179                 6.4171
 IR Inten    --     11.7636                11.4575                37.0711

 - Thermochemistry -
 -------------------
 Temperature   298.150 Kelvin.  Pressure   1.00000 Atm.
 Atom     1 has atomic number  8 and mass  15.99491

 Molecular mass:   126.06808 amu.
 Principal axes and moments of inertia in atomic units:
                           1         2         3
     Eigenvalues --   367.979132324.674362433.04340
           X            0.99996   0.00579  -0.00609
           Y           -0.00523   0.99615   0.08749
           Z            0.00658  -0.08745   0.99615
 This molecule is an asymmetric top.
 Rotational symmetry number  1.
 Rotational temperatures (Kelvin)      0.23538     0.03726     0.03560
 Rotational constants (GHZ):           4.90447     0.77634     0.74176
 Zero-point vibrational energy     412538.5 (Joules/Mol)
                                   98.59908 (Kcal/Mol)
 Warning -- explicit consideration of  11 degrees of freedom as
           vibrations may cause significant error
 Vibrational temperatures:     68.76    90.17   142.46   204.98   283.20
          (Kelvin)            385.58   541.61   596.91   698.56   744.74
                              813.76  1027.72  1121.70  1171.03  1184.24
                             1231.64  1306.88  1329.56  1377.35  1445.45
                             1479.70  1507.18  1570.48  1604.23  1644.91
                             1683.08  1735.11  1759.93  1766.52  1791.37
                             1823.35  1838.40  1862.73  1948.26  2045.68
                             2080.23  2111.22  2128.34  2136.82  2180.98
                             2638.19  4169.84  4362.64  4398.40  4404.44
                             4426.67  4444.59  4466.67  4469.26  4477.47
                             4510.86

 Zero-point correction=                           0.157128 (Hartree/Particle)
 Thermal correction to Energy=                    0.166160
 Thermal correction to Enthalpy=                  0.167104
 Thermal correction to Gibbs Free Energy=         0.122029
 Sum of electronic and zero-point Energies=           -423.006476
 Sum of electronic and thermal Energies=              -422.997443
 Sum of electronic and thermal Enthalpies=            -422.996499
 Sum of electronic and thermal Free Energies=         -423.041574

                     E (Thermal)             CV                S
                      KCal/Mol        Cal/Mol-Kelvin    Cal/Mol-Kelvin
 Total                  104.267             32.534             94.869
 Electronic               0.000              0.000              0.000
 Translational            0.889              2.981             40.409
 Rotational               0.889              2.981             29.122
 Vibrational            102.490             26.572             25.338
 Vibration     1          0.595              1.978              4.907
 Vibration     2          0.597              1.972              4.371
 Vibration     3          0.604              1.950              3.474
 Vibration     4          0.616              1.911              2.770
 Vibration     5          0.636              1.844              2.163
 Vibration     6          0.673              1.732              1.609
 Vibration     7          0.747              1.520              1.053
 Vibration     8          0.778              1.438              0.910
 Vibration     9          0.842              1.282              0.695
 Vibration    10          0.873              1.211              0.616
 Vibration    11          0.921              1.106              0.513

 Normal termination of Gaussian 09 at Mon Jan 27 14:19:00 2020.
