 Gaussian 09, Revision D.01,
 Gaussian 09:  ES64L-G09RevD.01 24-Apr-2013

 -----------------------------
 # b3lyp 6-31G(2df,p) opt Freq
 -----------------------------

 -----
 titel
 -----
 Symbolic Z-matrix:
 Charge =  0 Multiplicity = 1

 SCF Done:  E(RB3LYP) =  -423.133764913     A.U. after   13 cycles
 Optimization completed.
    -- Stationary point found.
 Normal termination of Gaussian 09 at Mon Jan 27 22:15:33 2020.

 ----------------------------------------------------------------------
 #N Geom=AllCheck Guess=TCheck SCRF=Check GenChk RB3LYP/6-31G(2df,p) Fr
 eq
 ----------------------------------------------------------------------

 Structure from the checkpoint file:  "/scratch/puck/g09_cd41941b-233c-4d66-bf13-45c7760467d2/Gau-29098.chk"
 -----
 titel
 -----
 Charge =  0 Multiplicity = 1

                         Standard orientation:
 ---------------------------------------------------------------------
 Center     Atomic      Atomic             Coordinates (Angstroms)
 Number     Number       Type             X           Y           Z
 ---------------------------------------------------------------------
      1          8           0       -2.919755   -0.383737    0.000210
      2          6           0       -1.694038    0.287400    0.000029
      3          6           0       -0.540908   -0.302711    0.772929
      4          6           0       -0.540963   -0.302860   -0.772737
      5          6           0        0.737004    0.513514   -1.036094
      6          6           0        0.676097    1.667696   -0.000124
      7          6           0        0.737112    0.513665    1.036010
      8          6           0        1.722208   -0.153961   -0.000039
      9          8           0        1.954477   -1.528205    0.000052
     10          1           0       -2.756235   -1.332764   -0.001999
     11          1           0       -1.890235    1.352037   -0.000061
     12          1           0       -0.731386   -1.194902    1.362715
     13          1           0       -0.731310   -1.195192   -1.362377
     14          1           0        1.016622    0.685214   -2.075150
     15          1           0        1.595670    2.256287   -0.000219
     16          1           0       -0.176639    2.344048   -0.000134
     17          1           0        1.016851    0.685529    2.075005
     18          1           0        2.703767    0.325640   -0.000148
     19          1           0        1.096049   -1.966821    0.000432
 ---------------------------------------------------------------------

 SCF Done:  E(RB3LYP) =  -423.133764913     A.U. after    1 cycles

 The electronic state is 1-A.
 Alpha  occ. eigenvalues --  -19.14862 -19.13832 -10.24282 -10.23343 -10.19601
 Alpha  occ. eigenvalues --  -10.19601 -10.19419 -10.19398 -10.18838  -1.03513
 Alpha  occ. eigenvalues --   -1.02583  -0.90352  -0.79683  -0.68683  -0.65370
 Alpha  occ. eigenvalues --   -0.62922  -0.57456  -0.55179  -0.52380  -0.51632
 Alpha  occ. eigenvalues --   -0.48596  -0.43738  -0.41577  -0.40230  -0.39637
 Alpha  occ. eigenvalues --   -0.38214  -0.37546  -0.35896  -0.34619  -0.32036
 Alpha  occ. eigenvalues --   -0.31472  -0.26845  -0.26115  -0.23778
 Alpha virt. eigenvalues --    0.06216   0.07898   0.10108   0.11054   0.12207
 Alpha virt. eigenvalues --    0.12927   0.14304   0.15388   0.16183   0.16456
 Alpha virt. eigenvalues --    0.18711   0.18733   0.20831   0.22878   0.23682

 Mulliken charges:
               1
     1  O   -0.444374
     2  C    0.120822
     3  C   -0.125615
     4  C   -0.125717
     5  C   -0.095488
     6  C   -0.248218
     7  C   -0.095466
     8  C    0.186784
     9  O   -0.443734
    10  H    0.281857
    11  H    0.110790
    12  H    0.085060
    13  H    0.085015
    14  H    0.066364
    15  H    0.102999
    16  H    0.106151
    17  H    0.066366
    18  H    0.087031
    19  H    0.279373
 Sum of Mulliken charges =   0.00000

 Dipole moment (field-independent basis, Debye):
    X=             -0.0970    Y=             -0.1936    Z=             -0.0029  Tot=              0.2166
 Quadrupole moment (field-independent basis, Debye-Ang):
   XX=            -62.3616   YY=            -48.9986   ZZ=            -53.5513
   XY=              6.8403   XZ=              0.0097   YZ=              0.0042

  Exact polarizability:  82.874   3.763  73.348   0.001   0.003  65.509
 Approx polarizability: 118.175   1.600 111.383  -0.002   0.008 105.050

                      1                      2                      3
                      A                      A                      A
 Frequencies --    177.2054               195.4438               267.6641
 Red. masses --      5.5815                 1.0423                 4.6784
 Frc consts  --      0.1033                 0.0235                 0.1975
 IR Inten    --      5.6344                65.4665                 1.6480

                      4                      5                      6
                      A                      A                      A
 Frequencies --    309.7459               334.7949               353.6056
 Red. masses --      4.4420                 3.5133                 1.4975
 Frc consts  --      0.2511                 0.2320                 0.1103
 IR Inten    --      1.9076                 0.4337                33.2147

                      7                      8                      9
                      A                      A                      A
 Frequencies --    440.0704               442.2302               541.3397
 Red. masses --      3.6891                 1.7842                 2.3405
 Frc consts  --      0.4209                 0.2056                 0.4041
 IR Inten    --      2.1387                58.9656                 0.5978

                     10                     11                     12
                      A                      A                      A
 Frequencies --    625.6626               711.6138               767.8663
 Red. masses --      3.8843                 4.3443                 2.2120
 Frc consts  --      0.8959                 1.2962                 0.7684
 IR Inten    --      4.0613                 1.0330                14.4931

                     13                     14                     15
                      A                      A                      A
 Frequencies --    793.8961               810.0636               824.3818
 Red. masses --      2.1883                 3.3301                 3.3996
 Frc consts  --      0.8126                 1.2875                 1.3613
 IR Inten    --      1.4196                 0.1457                 3.9411

                     16                     17                     18
                      A                      A                      A
 Frequencies --    850.2378               923.0529               940.1848
 Red. masses --      2.4566                 2.1073                 2.0400
 Frc consts  --      1.0463                 1.0578                 1.0625
 IR Inten    --     19.1378                 7.2416                 5.1092

                     19                     20                     21
                      A                      A                      A
 Frequencies --    985.6500               990.7426              1010.9239
 Red. masses --      1.8587                 2.2206                 1.6830
 Frc consts  --      1.0639                 1.2842                 1.0134
 IR Inten    --      4.4967                 9.4748                17.4836

                     22                     23                     24
                      A                      A                      A
 Frequencies --   1025.1316              1052.2607              1072.9246
 Red. masses --      3.0249                 1.3086                 1.1765
 Frc consts  --      1.8729                 0.8537                 0.7979
 IR Inten    --      5.8138                 2.3023                 3.0749

                     25                     26                     27
                      A                      A                      A
 Frequencies --   1091.5251              1112.4630              1120.5084
 Red. masses --      1.2489                 1.5210                 1.7347
 Frc consts  --      0.8767                 1.1091                 1.2832
 IR Inten    --      0.2167                 0.4661                59.7481

                     28                     29                     30
                      A                      A                      A
 Frequencies --   1139.8337              1171.8283              1174.9144
 Red. masses --      2.3885                 2.3442                 1.5403
 Frc consts  --      1.8283                 1.8966                 1.2528
 IR Inten    --    122.3909                92.1304                 0.0617

                     31                     32                     33
                      A                      A                      A
 Frequencies --   1221.0483              1230.0614              1257.9394
 Red. masses --      1.5819                 1.6654                 1.6676
 Frc consts  --      1.3896                 1.4846                 1.5547
 IR Inten    --      1.6830                52.5239                23.8197

                     34                     35                     36
                      A                      A                      A
 Frequencies --   1263.9744              1278.9430              1305.0273
 Red. masses --      1.3450                 1.5912                 1.6685
 Frc consts  --      1.2660                 1.5335                 1.6742
 IR Inten    --      0.5504                 6.6855                 4.1365

                     37                     38                     39
                      A                      A                      A
 Frequencies --   1320.0902              1358.8890              1445.5367
 Red. masses --      1.6439                 1.6119                 1.2113
 Frc consts  --      1.6878                 1.7537                 1.4913
 IR Inten    --      5.4996                 5.7385                53.5354

                     40                     41                     42
                      A                      A                      A
 Frequencies --   1454.2368              1527.5622              3083.5561
 Red. masses --      1.6183                 1.1090                 1.0654
 Frc consts  --      2.0165                 1.5246                 5.9683
 IR Inten    --     95.9017                13.6070                11.1872

                     43                     44                     45
                      A                      A                      A
 Frequencies --   3094.6383              3118.2936              3122.8335
 Red. masses --      1.0818                 1.0881                 1.0903
 Frc consts  --      6.1038                 6.2339                 6.2644
 IR Inten    --     30.6178                58.1813                31.8302

                     46                     47                     48
                      A                      A                      A
 Frequencies --   3142.4132              3142.6692              3152.9241
 Red. masses --      1.0883                 1.1049                 1.0926
 Frc consts  --      6.3317                 6.4294                 6.3995
 IR Inten    --     21.9408                18.9975                13.1016

                     49                     50                     51
                      A                      A                      A
 Frequencies --   3192.0150              3797.3874              3811.3571
 Red. masses --      1.0883                 1.0642                 1.0658
 Frc consts  --      6.5330                 9.0417                 9.1216
 IR Inten    --     20.9068                12.4494                16.5305

 - Thermochemistry -
 -------------------
 Temperature   298.150 Kelvin.  Pressure   1.00000 Atm.
 Atom     1 has atomic number  8 and mass  15.99491

 Molecular mass:   126.06808 amu.
 Principal axes and moments of inertia in atomic units:
                           1         2         3
     Eigenvalues --   561.853021325.971261512.73673
           X            0.99959   0.02866   0.00002
           Y           -0.02866   0.99959   0.00003
           Z           -0.00002  -0.00003   1.00000
 This molecule is an asymmetric top.
 Rotational symmetry number  1.
 Warning -- assumption of classical behavior for rotation
           may cause significant error
 Rotational temperatures (Kelvin)      0.15416     0.06532     0.05726
 Rotational constants (GHZ):           3.21212     1.36107     1.19303
 Zero-point vibrational energy     422157.1 (Joules/Mol)
                                  100.89798 (Kcal/Mol)
 Warning -- explicit consideration of   9 degrees of freedom as
           vibrations may cause significant error
 Vibrational temperatures:    254.96   281.20   385.11   445.65   481.69
          (Kelvin)            508.76   633.16   636.27   778.87   900.19
                             1023.85  1104.79  1142.24  1165.50  1186.10
                             1223.30  1328.07  1352.71  1418.13  1425.46
                             1454.49  1474.93  1513.97  1543.70  1570.46
                             1600.58  1612.16  1639.96  1686.00  1690.44
                             1756.81  1769.78  1809.89  1818.57  1840.11
                             1877.64  1899.31  1955.14  2079.80  2092.32
                             2197.82  4436.54  4452.49  4486.52  4493.06
                             4521.23  4521.59  4536.35  4592.59  5463.59
                             5483.69

 Zero-point correction=                           0.160791 (Hartree/Particle)
 Thermal correction to Energy=                    0.168314
 Thermal correction to Enthalpy=                  0.169258
 Thermal correction to Gibbs Free Energy=         0.129300
 Sum of electronic and zero-point Energies=           -422.972974
 Sum of electronic and thermal Energies=              -422.965451
 Sum of electronic and thermal Enthalpies=            -422.964507
 Sum of electronic and thermal Free Energies=         -423.004465

                     E (Thermal)             CV                S
                      KCal/Mol        Cal/Mol-Kelvin    Cal/Mol-Kelvin
 Total                  105.619             31.207             84.099
 Electronic               0.000              0.000              0.000
 Translational            0.889              2.981             40.409
 Rotational               0.889              2.981             28.512
 Vibrational            103.841             25.246             15.178
 Vibration     1          0.628              1.870              2.358
 Vibration     2          0.636              1.846              2.176
 Vibration     3          0.673              1.733              1.611
 Vibration     4          0.699              1.655              1.364
 Vibration     5          0.716              1.606              1.237
 Vibration     6          0.730              1.568              1.150
 Vibration     7          0.800              1.383              0.826
 Vibration     8          0.802              1.378              0.820
 Vibration     9          0.896              1.159              0.562

 Normal termination of Gaussian 09 at Tue Jan 28 00:30:46 2020.
