 Gaussian 09, Revision D.01,
 Gaussian 09:  ES64L-G09RevD.01 24-Apr-2013

 -----------------------------
 # b3lyp 6-31G(2df,p) opt Freq
 -----------------------------

 -----
 titel
 -----
 Symbolic Z-matrix:
 Charge =  0 Multiplicity = 1

 SCF Done:  E(RB3LYP) =  -423.162828852     A.U. after   14 cycles
 Optimization completed.
    -- Stationary point found.
 Normal termination of Gaussian 09 at Mon Jan 27 13:22:21 2020.

 ----------------------------------------------------------------------
 #N Geom=AllCheck Guess=TCheck SCRF=Check GenChk RB3LYP/6-31G(2df,p) Fr
 eq
 ----------------------------------------------------------------------

 Structure from the checkpoint file:  "/scratch/puck/g09_bd36e525-6bc6-4c1a-8603-76fc33eac134/Gau-28397.chk"
 -----
 titel
 -----
 Charge =  0 Multiplicity = 1

                         Standard orientation:
 ---------------------------------------------------------------------
 Center     Atomic      Atomic             Coordinates (Angstroms)
 Number     Number       Type             X           Y           Z
 ---------------------------------------------------------------------
      1          8           0       -3.436605   -1.062839    0.044288
      2          6           0       -2.603273   -0.298201   -0.373374
      3          6           0       -1.471921    0.238451    0.413042
      4          6           0       -0.962635    1.636834    0.094524
      5          6           0       -0.142366    0.459767   -0.307913
      6          6           0        1.126611    0.116145    0.416738
      7          6           0        1.753258   -1.278823    0.183436
      8          6           0        2.995112   -0.486079   -0.267244
      9          8           0        2.284342    0.766924   -0.160865
     10          1           0       -2.632280    0.068854   -1.428305
     11          1           0       -1.438769   -0.092817    1.445533
     12          1           0       -1.476026    2.194314   -0.681750
     13          1           0       -0.635217    2.233878    0.938255
     14          1           0       -0.131175    0.215005   -1.367502
     15          1           0        1.025291    0.378812    1.480577
     16          1           0        1.867086   -1.911640    1.064173
     17          1           0        1.268264   -1.850744   -0.610174
     18          1           0        3.847319   -0.529807    0.422761
     19          1           0        3.354894   -0.667103   -1.286213
 ---------------------------------------------------------------------

 SCF Done:  E(RB3LYP) =  -423.162828852     A.U. after    1 cycles

 The electronic state is 1-A.
 Alpha  occ. eigenvalues --  -19.13638 -19.13336 -10.27042 -10.24745 -10.23589
 Alpha  occ. eigenvalues --  -10.21370 -10.21066 -10.20993 -10.19587  -1.04218
 Alpha  occ. eigenvalues --   -1.04140  -0.88643  -0.75169  -0.71564  -0.66537
 Alpha  occ. eigenvalues --   -0.61224  -0.58437  -0.56078  -0.51351  -0.49836
 Alpha  occ. eigenvalues --   -0.48306  -0.45378  -0.44656  -0.43071  -0.40472
 Alpha  occ. eigenvalues --   -0.39843  -0.38678  -0.37628  -0.35558  -0.32191
 Alpha  occ. eigenvalues --   -0.30437  -0.30198  -0.25492  -0.25005
 Alpha virt. eigenvalues --   -0.01978   0.07644   0.08034   0.09067   0.10059
 Alpha virt. eigenvalues --    0.12297   0.12754   0.13839   0.14246   0.15973
 Alpha virt. eigenvalues --    0.17054   0.17504   0.18484   0.21094   0.22415

 Mulliken charges:
               1
     1  O   -0.267504
     2  C    0.163926
     3  C   -0.110574
     4  C   -0.302349
     5  C   -0.019403
     6  C    0.145390
     7  C   -0.297790
     8  C   -0.062842
     9  O   -0.291830
    10  H    0.063881
    11  H    0.107480
    12  H    0.127926
    13  H    0.133949
    14  H    0.096211
    15  H    0.071284
    16  H    0.115521
    17  H    0.114917
    18  H    0.103798
    19  H    0.108009
 Sum of Mulliken charges =   0.00000

 Dipole moment (field-independent basis, Debye):
    X=              2.0979    Y=              0.2720    Z=             -0.0822  Tot=              2.1170
 Quadrupole moment (field-independent basis, Debye-Ang):
   XX=            -64.8506   YY=            -54.9494   ZZ=            -50.2948
   XY=            -10.8317   XZ=              2.3515   YZ=              0.9118

  Exact polarizability:  97.848   2.063  71.333  -0.616  -1.082  66.935
 Approx polarizability: 126.131  12.278 109.701  -5.399  -4.348 102.912

                      1                      2                      3
                      A                      A                      A
 Frequencies --     52.4125                79.7695               100.5643
 Red. masses --      4.5617                 2.2423                 4.7677
 Frc consts  --      0.0074                 0.0084                 0.0284
 IR Inten    --      3.8404                 1.3232                 5.3399

                      4                      5                      6
                      A                      A                      A
 Frequencies --    151.1774               212.7962               308.6429
 Red. masses --      4.1495                 2.2605                 2.9741
 Frc consts  --      0.0559                 0.0603                 0.1669
 IR Inten    --      3.8795                 2.7016                 2.9632

                      7                      8                      9
                      A                      A                      A
 Frequencies --    316.8999               391.3794               440.3548
 Red. masses --      3.9231                 2.8502                 2.9519
 Frc consts  --      0.2321                 0.2572                 0.3373
 IR Inten    --      2.7957                 0.3054                 0.1724

                     10                     11                     12
                      A                      A                      A
 Frequencies --    533.7837               736.3697               808.8754
 Red. masses --      4.5983                 1.6769                 1.3408
 Frc consts  --      0.7719                 0.5357                 0.5169
 IR Inten    --     23.3020                 2.2168                 0.9624

                     13                     14                     15
                      A                      A                      A
 Frequencies --    845.8214               862.7108               871.8362
 Red. masses --      4.0764                 1.3791                 2.3721
 Frc consts  --      1.7183                 0.6048                 1.0623
 IR Inten    --      1.4613                 7.3462                20.8049

                     16                     17                     18
                      A                      A                      A
 Frequencies --    925.6695               946.6755               965.7735
 Red. masses --      2.0754                 2.8781                 1.8126
 Frc consts  --      1.0477                 1.5197                 0.9961
 IR Inten    --     20.0114                15.8677                 9.0510

                     19                     20                     21
                      A                      A                      A
 Frequencies --   1007.2515              1022.1949              1042.5190
 Red. masses --      3.8452                 7.8377                 1.8043
 Frc consts  --      2.2985                 4.8251                 1.1554
 IR Inten    --     12.3308               141.7386                 9.1033

                     22                     23                     24
                      A                      A                      A
 Frequencies --   1062.7676              1075.5429              1099.1499
 Red. masses --      1.4795                 1.5577                 2.5002
 Frc consts  --      0.9845                 1.0616                 1.7797
 IR Inten    --     23.0017                13.3882                28.0524

                     25                     26                     27
                      A                      A                      A
 Frequencies --   1123.0444              1163.7037              1182.4158
 Red. masses --      1.1055                 1.2129                 1.7391
 Frc consts  --      0.8215                 0.9677                 1.4326
 IR Inten    --      1.8511                 1.8730                42.2086

                     28                     29                     30
                      A                      A                      A
 Frequencies --   1203.4833              1214.7154              1225.8878
 Red. masses --      1.5689                 1.8948                 1.6119
 Frc consts  --      1.3388                 1.6473                 1.4272
 IR Inten    --      5.9315                 4.8312                 0.2024

                     31                     32                     33
                      A                      A                      A
 Frequencies --   1258.6836              1275.0052              1290.9927
 Red. masses --      1.4512                 1.2962                 1.3186
 Frc consts  --      1.3546                 1.2415                 1.2949
 IR Inten    --      3.7066                 0.7425                 4.1252

                     34                     35                     36
                      A                      A                      A
 Frequencies --   1351.7231              1360.2506              1431.4290
 Red. masses --      1.4266                 1.3861                 1.2972
 Frc consts  --      1.5357                 1.5111                 1.5660
 IR Inten    --     14.8472                 8.9637                18.0409

                     37                     38                     39
                      A                      A                      A
 Frequencies --   1451.9917              1486.4637              1490.3619
 Red. masses --      1.4430                 1.4228                 1.1428
 Frc consts  --      1.7924                 1.8522                 1.4956
 IR Inten    --      5.6359                 1.4356                 3.7136

                     40                     41                     42
                      A                      A                      A
 Frequencies --   1532.4940              1823.2559              2836.5300
 Red. masses --      1.1192                10.1683                 1.0810
 Frc consts  --      1.5487                19.9156                 5.1243
 IR Inten    --      0.5568               278.9656                97.7688

                     43                     44                     45
                      A                      A                      A
 Frequencies --   2985.9430              3018.2286              3062.0959
 Red. masses --      1.0837                 1.0586                 1.1075
 Frc consts  --      5.6930                 5.6816                 6.1183
 IR Inten    --     52.2525                83.8067                33.3271

                     46                     47                     48
                      A                      A                      A
 Frequencies --   3080.8574              3135.1657              3136.8551
 Red. masses --      1.0610                 1.0672                 1.0870
 Frc consts  --      5.9332                 6.1806                 6.3018
 IR Inten    --     20.3554                11.2284                 4.9040

                     49                     50                     51
                      A                      A                      A
 Frequencies --   3139.7784              3176.4490              3223.8739
 Red. masses --      1.0952                 1.0896                 1.1166
 Frc consts  --      6.3613                 6.4774                 6.8379
 IR Inten    --     24.4098                 3.8382                 3.9991

 - Thermochemistry -
 -------------------
 Temperature   298.150 Kelvin.  Pressure   1.00000 Atm.
 Atom     1 has atomic number  8 and mass  15.99491

 Molecular mass:   126.06808 amu.
 Principal axes and moments of inertia in atomic units:
                           1         2         3
     Eigenvalues --   449.192832203.057312497.11974
           X            0.99956  -0.02934   0.00390
           Y            0.02933   0.99956   0.00367
           Z           -0.00401  -0.00355   0.99999
 This molecule is an asymmetric top.
 Rotational symmetry number  1.
 Warning -- assumption of classical behavior for rotation
           may cause significant error
 Rotational temperatures (Kelvin)      0.19282     0.03932     0.03469
 Rotational constants (GHZ):           4.01774     0.81920     0.72273
 Zero-point vibrational energy     415837.6 (Joules/Mol)
                                   99.38757 (Kcal/Mol)
 Warning -- explicit consideration of  10 degrees of freedom as
           vibrations may cause significant error
 Vibrational temperatures:     75.41   114.77   144.69   217.51   306.17
          (Kelvin)            444.07   455.95   563.11   633.57   767.99
                             1059.47  1163.79  1216.95  1241.25  1254.38
                             1331.83  1362.05  1389.53  1449.21  1470.71
                             1499.95  1529.08  1547.46  1581.43  1615.81
                             1674.31  1701.23  1731.54  1747.70  1763.78
                             1810.96  1834.45  1857.45  1944.83  1957.09
                             2059.50  2089.09  2138.69  2144.30  2204.91
                             2623.26  4081.13  4296.10  4342.55  4405.67
                             4432.66  4510.80  4513.23  4517.44  4570.20
                             4638.43

 Zero-point correction=                           0.158384 (Hartree/Particle)
 Thermal correction to Energy=                    0.167208
 Thermal correction to Enthalpy=                  0.168152
 Thermal correction to Gibbs Free Energy=         0.123599
 Sum of electronic and zero-point Energies=           -423.004445
 Sum of electronic and thermal Energies=              -422.995621
 Sum of electronic and thermal Enthalpies=            -422.994677
 Sum of electronic and thermal Free Energies=         -423.039230

                     E (Thermal)             CV                S
                      KCal/Mol        Cal/Mol-Kelvin    Cal/Mol-Kelvin
 Total                  104.925             31.712             93.771
 Electronic               0.000              0.000              0.000
 Translational            0.889              2.981             40.409
 Rotational               0.889              2.981             29.293
 Vibrational            103.147             25.750             24.070
 Vibration     1          0.596              1.977              4.724
 Vibration     2          0.600              1.963              3.897
 Vibration     3          0.604              1.949              3.443
 Vibration     4          0.619              1.901              2.657
 Vibration     5          0.644              1.821              2.020
 Vibration     6          0.698              1.657              1.370
 Vibration     7          0.704              1.641              1.326
 Vibration     8          0.759              1.489              0.995
 Vibration     9          0.800              1.382              0.825
 Vibration    10          0.889              1.175              0.579

 Optimization completed.
    -- Stationary point found.
 Normal termination of Gaussian 09 at Mon Jan 27 14:32:00 2020.
