 Gaussian 09, Revision D.01,
 Gaussian 09:  ES64L-G09RevD.01 24-Apr-2013

 -----------------------------
 # b3lyp 6-31G(2df,p) opt Freq
 -----------------------------

 -----
 titel
 -----
 Symbolic Z-matrix:
 Charge =  0 Multiplicity = 1

 SCF Done:  E(RB3LYP) =  -423.233249153     A.U. after   14 cycles
 Optimization completed.
    -- Stationary point found.
 Normal termination of Gaussian 09 at Tue Jan 28 03:00:53 2020.

 ----------------------------------------------------------------------
 #N Geom=AllCheck Guess=TCheck SCRF=Check GenChk RB3LYP/6-31G(2df,p) Fr
 eq
 ----------------------------------------------------------------------

 Structure from the checkpoint file:  "/scratch/puck/g09_6bf07048-a648-40b9-b456-037bd71db299/Gau-113872.chk"
 -----
 titel
 -----
 Charge =  0 Multiplicity = 1

                         Standard orientation:
 ---------------------------------------------------------------------
 Center     Atomic      Atomic             Coordinates (Angstroms)
 Number     Number       Type             X           Y           Z
 ---------------------------------------------------------------------
      1          6           0       -2.931589   -0.578966    0.033057
      2          6           0       -1.504957   -0.362674   -0.457386
      3          6           0       -1.094616    1.128205   -0.685613
      4          6           0       -0.135078    1.060586    0.540792
      5          6           0        1.360559    1.156351    0.276323
      6          6           0        1.789837   -0.272456   -0.063747
      7          8           0        2.845433   -0.645130   -0.483129
      8          8           0        0.767107   -1.137085    0.198941
      9          6           0       -0.416476   -0.469499    0.642704
     10          1           0       -3.154362    0.047542    0.904937
     11          1           0       -3.655155   -0.324328   -0.748082
     12          1           0       -3.097710   -1.622638    0.320602
     13          1           0       -1.289480   -1.020965   -1.303045
     14          1           0       -0.582536    1.315599   -1.633264
     15          1           0       -1.912119    1.847070   -0.591654
     16          1           0       -0.464208    1.651792    1.395134
     17          1           0        1.634953    1.823533   -0.544356
     18          1           0        1.929360    1.474958    1.156227
     19          1           0       -0.715156   -0.904119    1.600226
 ---------------------------------------------------------------------

 SCF Done:  E(RB3LYP) =  -423.233249153     A.U. after    1 cycles

 The electronic state is 1-A.
 Alpha  occ. eigenvalues --  -19.17867 -19.11851 -10.30129 -10.24512 -10.20494
 Alpha  occ. eigenvalues --  -10.20303 -10.19838 -10.19344 -10.18740  -1.09632
 Alpha  occ. eigenvalues --   -1.01846  -0.85710  -0.77856  -0.71639  -0.68179
 Alpha  occ. eigenvalues --   -0.61971  -0.58495  -0.54119  -0.51721  -0.48617
 Alpha  occ. eigenvalues --   -0.46401  -0.45294  -0.43453  -0.42140  -0.40799
 Alpha  occ. eigenvalues --   -0.40236  -0.38365  -0.36701  -0.35393  -0.34254
 Alpha  occ. eigenvalues --   -0.32100  -0.30449  -0.28091  -0.26332
 Alpha virt. eigenvalues --    0.01631   0.07325   0.08171   0.09663   0.11577
 Alpha virt. eigenvalues --    0.12912   0.14360   0.14784   0.14881   0.15993
 Alpha virt. eigenvalues --    0.16617   0.18726   0.19678   0.20367   0.20588

 Mulliken charges:
               1
     1  C   -0.408059
     2  C    0.013604
     3  C   -0.262392
     4  C   -0.031227
     5  C   -0.379785
     6  C    0.414560
     7  O   -0.329748
     8  O   -0.221540
     9  C    0.088457
    10  H    0.114567
    11  H    0.122591
    12  H    0.123724
    13  H    0.092167
    14  H    0.107278
    15  H    0.106135
    16  H    0.083425
    17  H    0.140055
    18  H    0.139852
    19  H    0.086335
 Sum of Mulliken charges =   0.00000

 Dipole moment (field-independent basis, Debye):
    X=             -3.4855    Y=              2.3360    Z=              1.1371  Tot=              4.3473
 Quadrupole moment (field-independent basis, Debye-Ang):
   XX=            -61.5585   YY=            -54.0497   ZZ=            -51.1881
   XY=              5.0998   XZ=              2.6706   YZ=             -0.3400

  Exact polarizability:  91.699   2.214  69.618  -2.365   0.009  63.554
 Approx polarizability: 122.034  -0.081 103.503  -7.488   0.641  98.187

                      1                      2                      3
                      A                      A                      A
 Frequencies --     35.8416                95.1676               233.0827
 Red. masses --      2.6720                 5.4154                 1.3338
 Frc consts  --      0.0020                 0.0289                 0.0427
 IR Inten    --      0.8396                 2.0560                 0.5317

                      4                      5                      6
                      A                      A                      A
 Frequencies --    250.8958               274.1823               365.4887
 Red. masses --      2.0106                 2.4086                 2.5089
 Frc consts  --      0.0746                 0.1067                 0.1975
 IR Inten    --      0.5516                 0.5673                 0.3348

                      7                      8                      9
                      A                      A                      A
 Frequencies --    420.8559               489.7250               555.0124
 Red. masses --      2.5733                 5.3738                 2.7372
 Frc consts  --      0.2685                 0.7593                 0.4968
 IR Inten    --      1.3382                 2.8606                 4.5421

                     10                     11                     12
                      A                      A                      A
 Frequencies --    638.2414               677.9339               765.1373
 Red. masses --      4.0358                 4.9774                 2.8931
 Frc consts  --      0.9686                 1.3478                 0.9979
 IR Inten    --      4.3476                 4.5556                 1.3564

                     13                     14                     15
                      A                      A                      A
 Frequencies --    816.3018               835.6308               865.6501
 Red. masses --      2.4504                 3.6970                 2.1080
 Frc consts  --      0.9620                 1.5210                 0.9307
 IR Inten    --      1.8536                 7.9592                13.8569

                     16                     17                     18
                      A                      A                      A
 Frequencies --    872.0695               915.5714               920.3132
 Red. masses --      2.0645                 1.8343                 2.3643
 Frc consts  --      0.9251                 0.9059                 1.1798
 IR Inten    --      3.9476                 3.4694                 1.4102

                     19                     20                     21
                      A                      A                      A
 Frequencies --    971.4203              1044.2071              1061.4877
 Red. masses --      1.4633                 1.9853                 3.8951
 Frc consts  --      0.8136                 1.2754                 2.5858
 IR Inten    --      7.5517                 7.5887                69.2299

                     22                     23                     24
                      A                      A                      A
 Frequencies --   1088.0054              1098.8956              1120.2854
 Red. masses --      1.7137                 1.7258                 2.2059
 Frc consts  --      1.1952                 1.2279                 1.6311
 IR Inten    --     31.0712                 1.0270                16.0056

                     25                     26                     27
                      A                      A                      A
 Frequencies --   1153.8843              1177.0564              1211.9102
 Red. masses --      3.2094                 1.5203                 1.4304
 Frc consts  --      2.5177                 1.2410                 1.2378
 IR Inten    --    170.4224                 1.6600                24.8600

                     28                     29                     30
                      A                      A                      A
 Frequencies --   1216.6519              1256.3129              1266.8740
 Red. masses --      1.6378                 1.6765                 1.3974
 Frc consts  --      1.4283                 1.5590                 1.3214
 IR Inten    --     13.3399                 0.4360                 0.7649

                     31                     32                     33
                      A                      A                      A
 Frequencies --   1285.7562              1299.5121              1328.9123
 Red. masses --      1.6401                 1.5375                 1.4463
 Frc consts  --      1.5975                 1.5298                 1.5049
 IR Inten    --     26.1089                 2.0918                 2.1121

                     34                     35                     36
                      A                      A                      A
 Frequencies --   1344.2771              1378.4001              1411.2804
 Red. masses --      1.5364                 1.4958                 1.2358
 Frc consts  --      1.6358                 1.6745                 1.4501
 IR Inten    --      5.0559                13.7365                 1.9536

                     37                     38                     39
                      A                      A                      A
 Frequencies --   1461.0102              1484.5477              1496.5084
 Red. masses --      1.0886                 1.0988                 1.0488
 Frc consts  --      1.3691                 1.4268                 1.3839
 IR Inten    --      4.8836                 5.3021                 3.9725

                     40                     41                     42
                      A                      A                      A
 Frequencies --   1497.7143              1881.8996              3025.5025
 Red. masses --      1.0470                12.9429                 1.0360
 Frc consts  --      1.3838                27.0069                 5.5873
 IR Inten    --      3.2555               402.4587                21.8550

                     43                     44                     45
                      A                      A                      A
 Frequencies --   3058.2716              3059.6303              3070.7888
 Red. masses --      1.0608                 1.0639                 1.0867
 Frc consts  --      5.8457                 5.8678                 6.0375
 IR Inten    --     28.9214                11.4988                 3.7115

                     46                     47                     48
                      A                      A                      A
 Frequencies --   3073.3407              3094.1895              3101.9668
 Red. masses --      1.0878                 1.0992                 1.0997
 Frc consts  --      6.0536                 6.2006                 6.2344
 IR Inten    --     31.6951                34.7757                13.7642

                     49                     50                     51
                      A                      A                      A
 Frequencies --   3103.5278              3108.8934              3118.1640
 Red. masses --      1.0960                 1.1008                 1.0994
 Frc consts  --      6.2198                 6.2684                 6.2982
 IR Inten    --     10.6647                 6.1065                41.5909

 - Thermochemistry -
 -------------------
 Temperature   298.150 Kelvin.  Pressure   1.00000 Atm.
 Atom     1 has atomic number  6 and mass  12.00000

 Molecular mass:   126.06808 amu.
 Principal axes and moments of inertia in atomic units:
                           1         2         3
     Eigenvalues --   476.400231522.110901752.98724
           X            0.99958   0.02851   0.00577
           Y           -0.02846   0.99956  -0.00776
           Z           -0.00599   0.00760   0.99995
 This molecule is an asymmetric top.
 Rotational symmetry number  1.
 Warning -- assumption of classical behavior for rotation
           may cause significant error
 Rotational temperatures (Kelvin)      0.18181     0.05690     0.04941
 Rotational constants (GHZ):           3.78829     1.18568     1.02952
 Zero-point vibrational energy     420955.0 (Joules/Mol)
                                  100.61067 (Kcal/Mol)
 Warning -- explicit consideration of   9 degrees of freedom as
           vibrations may cause significant error
 Vibrational temperatures:     51.57   136.92   335.35   360.98   394.49
          (Kelvin)            525.86   605.52   704.60   798.54   918.29
                              975.39  1100.86  1174.47  1202.28  1245.48
                             1254.71  1317.30  1324.12  1397.66  1502.38
                             1527.24  1565.40  1581.06  1611.84  1660.18
                             1693.52  1743.67  1750.49  1807.55  1822.75
                             1849.91  1869.71  1912.01  1934.11  1983.21
                             2030.52  2102.07  2135.93  2153.14  2154.87
                             2707.63  4353.02  4400.17  4402.12  4418.17
                             4421.85  4451.84  4463.03  4465.28  4473.00
                             4486.34

 Zero-point correction=                           0.160333 (Hartree/Particle)
 Thermal correction to Energy=                    0.168344
 Thermal correction to Enthalpy=                  0.169288
 Thermal correction to Gibbs Free Energy=         0.126904
 Sum of electronic and zero-point Energies=           -423.072916
 Sum of electronic and thermal Energies=              -423.064906
 Sum of electronic and thermal Enthalpies=            -423.063961
 Sum of electronic and thermal Free Energies=         -423.106346

                     E (Thermal)             CV                S
                      KCal/Mol        Cal/Mol-Kelvin    Cal/Mol-Kelvin
 Total                  105.637             30.523             89.205
 Electronic               0.000              0.000              0.000
 Translational            0.889              2.981             40.409
 Rotational               0.889              2.981             28.632
 Vibrational            103.860             24.561             20.164
 Vibration     1          0.594              1.982              5.477
 Vibration     2          0.603              1.953              3.551
 Vibration     3          0.654              1.790              1.855
 Vibration     4          0.663              1.761              1.724
 Vibration     5          0.676              1.721              1.570
 Vibration     6          0.739              1.543              1.099
 Vibration     7          0.783              1.425              0.889
 Vibration     8          0.846              1.273              0.684
 Vibration     9          0.910              1.129              0.534

 Optimization completed on the basis of negligible forces.
    -- Stationary point found.
 Normal termination of Gaussian 09 at Tue Jan 28 03:44:03 2020.
