 Gaussian 09, Revision D.01,
 Gaussian 09:  ES64L-G09RevD.01 24-Apr-2013

 -----------------------------
 # b3lyp 6-31G(2df,p) opt Freq
 -----------------------------

 -----
 titel
 -----
 Symbolic Z-matrix:
 Charge =  0 Multiplicity = 1

 SCF Done:  E(RB3LYP) =  -423.210288343     A.U. after   14 cycles
 Optimization completed.
    -- Stationary point found.
 Normal termination of Gaussian 09 at Mon Jan 27 13:09:21 2020.

 ----------------------------------------------------------------------
 #N Geom=AllCheck Guess=TCheck SCRF=Check GenChk RB3LYP/6-31G(2df,p) Fr
 eq
 ----------------------------------------------------------------------

 Structure from the checkpoint file:  "/scratch/puck/g09_5279a6b0-3008-4b25-b314-595dec1ea7d0/Gau-28008.chk"
 -----
 titel
 -----
 Charge =  0 Multiplicity = 1

                         Standard orientation:
 ---------------------------------------------------------------------
 Center     Atomic      Atomic             Coordinates (Angstroms)
 Number     Number       Type             X           Y           Z
 ---------------------------------------------------------------------
      1          8           0        2.575593   -0.937660   -0.179207
      2          6           0        1.513196   -0.421624    0.042123
      3          6           0        0.286700   -1.233556    0.451318
      4          6           0       -0.927971   -1.072256   -0.442939
      5          6           0       -2.302880   -0.947103    0.172036
      6          6           0       -1.637648    0.256675   -0.443772
      7          6           0       -1.037379    1.368015    0.393537
      8          6           0        0.322502    1.807894   -0.146643
      9          8           0        1.452925    0.936709    0.033789
     10          1           0        0.615606   -2.274380    0.477113
     11          1           0        0.036823   -0.951906    1.480047
     12          1           0       -0.860420   -1.595312   -1.391889
     13          1           0       -3.143750   -1.391756   -0.348409
     14          1           0       -2.376064   -0.993044    1.254432
     15          1           0       -2.032848    0.587817   -1.400514
     16          1           0       -1.689901    2.249924    0.376458
     17          1           0       -0.948873    1.080870    1.446267
     18          1           0        0.236767    2.010193   -1.222529
     19          1           0        0.635396    2.736932    0.338398
 ---------------------------------------------------------------------

 SCF Done:  E(RB3LYP) =  -423.210288343     A.U. after    1 cycles

 The electronic state is 1-A.
 Alpha  occ. eigenvalues --  -19.16814 -19.11197 -10.30050 -10.24948 -10.20464
 Alpha  occ. eigenvalues --  -10.20315 -10.20245 -10.20024 -10.19693  -1.08289
 Alpha  occ. eigenvalues --   -1.00435  -0.88152  -0.78293  -0.74297  -0.68105
 Alpha  occ. eigenvalues --   -0.60465  -0.56907  -0.55235  -0.51244  -0.49919
 Alpha  occ. eigenvalues --   -0.49142  -0.45875  -0.43328  -0.42090  -0.40651
 Alpha  occ. eigenvalues --   -0.40365  -0.39056  -0.37614  -0.34335  -0.33432
 Alpha  occ. eigenvalues --   -0.30308  -0.29232  -0.27468  -0.25447
 Alpha virt. eigenvalues --    0.01298   0.07684   0.08953   0.10003   0.11588
 Alpha virt. eigenvalues --    0.12605   0.13765   0.14479   0.15731   0.16000
 Alpha virt. eigenvalues --    0.16648   0.17361   0.18699   0.21765   0.23080

 Mulliken charges:
               1
     1  O   -0.307550
     2  C    0.393073
     3  C   -0.346702
     4  C   -0.012176
     5  C   -0.322870
     6  C    0.006724
     7  C   -0.259680
     8  C   -0.040716
     9  O   -0.238251
    10  H    0.132711
    11  H    0.120755
    12  H    0.098153
    13  H    0.117901
    14  H    0.113960
    15  H    0.090346
    16  H    0.109676
    17  H    0.110887
    18  H    0.113623
    19  H    0.120135
 Sum of Mulliken charges =   0.00000

 Dipole moment (field-independent basis, Debye):
    X=             -4.2675    Y=              1.1914    Z=              0.3416  Tot=              4.4438
 Quadrupole moment (field-independent basis, Debye-Ang):
   XX=            -64.3327   YY=            -50.6979   ZZ=            -50.5587
   XY=              2.1690   XZ=              1.7367   YZ=             -0.3927

  Exact polarizability:  83.890  -3.182  81.125  -0.967  -0.349  61.206
 Approx polarizability: 117.695 -10.256 116.127  -3.474   0.303  95.916

                      1                      2                      3
                      A                      A                      A
 Frequencies --     72.6087                99.4706               223.9530
 Red. masses --      6.6452                 2.9253                 2.2703
 Frc consts  --      0.0206                 0.0171                 0.0671
 IR Inten    --      1.2830                 6.2814                 0.3111

                      4                      5                      6
                      A                      A                      A
 Frequencies --    282.8667               314.9508               348.8834
 Red. masses --      2.4198                 4.6032                 4.7075
 Frc consts  --      0.1141                 0.2690                 0.3376
 IR Inten    --      1.4109                 0.1541                 0.8582

                      7                      8                      9
                      A                      A                      A
 Frequencies --    430.8788               490.2480               539.6855
 Red. masses --      2.5215                 2.4632                 2.7576
 Frc consts  --      0.2758                 0.3488                 0.4732
 IR Inten    --      0.4122                 1.4259                 6.9295

                     10                     11                     12
                      A                      A                      A
 Frequencies --    583.8333               665.4827               758.1147
 Red. masses --      2.6854                 4.2838                 2.5651
 Frc consts  --      0.5393                 1.1178                 0.8686
 IR Inten    --      7.9851                 3.7211                12.4937

                     13                     14                     15
                      A                      A                      A
 Frequencies --    810.0499               831.1129               867.8604
 Red. masses --      2.6308                 2.7193                 1.5006
 Frc consts  --      1.0171                 1.1067                 0.6659
 IR Inten    --      9.7559                 2.5511                19.1221

                     16                     17                     18
                      A                      A                      A
 Frequencies --    908.6023               915.4144               945.6895
 Red. masses --      1.6948                 1.8943                 2.5299
 Frc consts  --      0.8244                 0.9353                 1.3331
 IR Inten    --      9.8607                 5.2815                 0.3517

                     19                     20                     21
                      A                      A                      A
 Frequencies --    992.2984              1045.6912              1053.5470
 Red. masses --      1.6949                 2.6609                 1.6872
 Frc consts  --      0.9833                 1.7143                 1.1034
 IR Inten    --      9.7313                 1.0376                 2.3644

                     22                     23                     24
                      A                      A                      A
 Frequencies --   1072.0024              1091.4125              1122.1951
 Red. masses --      1.7261                 2.7186                 1.8259
 Frc consts  --      1.1687                 1.9080                 1.3547
 IR Inten    --     13.5699                30.7766                49.7936

                     25                     26                     27
                      A                      A                      A
 Frequencies --   1142.0486              1165.5850              1201.0473
 Red. masses --      1.2956                 1.7208                 2.6498
 Frc consts  --      0.9956                 1.3774                 2.2521
 IR Inten    --      0.9141                 5.3543               191.2198

                     28                     29                     30
                      A                      A                      A
 Frequencies --   1231.7574              1247.3705              1278.7061
 Red. masses --      1.3600                 1.4036                 1.5058
 Frc consts  --      1.2158                 1.2867                 1.4506
 IR Inten    --      5.2029                 0.6032                61.3846

                     31                     32                     33
                      A                      A                      A
 Frequencies --   1301.5588              1318.1705              1353.2049
 Red. masses --      1.2044                 1.3855                 1.3146
 Frc consts  --      1.2022                 1.4184                 1.4183
 IR Inten    --     20.2309                23.4826                12.4876

                     34                     35                     36
                      A                      A                      A
 Frequencies --   1393.0755              1430.4266              1438.1867
 Red. masses --      1.5722                 1.6517                 1.3782
 Frc consts  --      1.7977                 1.9912                 1.6796
 IR Inten    --      0.6584                 2.7531                15.3677

                     37                     38                     39
                      A                      A                      A
 Frequencies --   1468.7348              1488.0480              1499.4344
 Red. masses --      1.0916                 1.2648                 1.2014
 Frc consts  --      1.3874                 1.6500                 1.5914
 IR Inten    --      1.8076                 3.2790                10.8527

                     40                     41                     42
                      A                      A                      A
 Frequencies --   1507.8555              1827.8599              3020.1896
 Red. masses --      1.1110                11.8914                 1.0667
 Frc consts  --      1.4883                23.4083                 5.7328
 IR Inten    --      7.0740               320.3514                34.6858

                     43                     44                     45
                      A                      A                      A
 Frequencies --   3033.9686              3051.7659              3078.7706
 Red. masses --      1.0640                 1.0665                 1.0945
 Frc consts  --      5.7703                 5.8520                 6.1124
 IR Inten    --     19.6792                 5.7880                27.5002

                     46                     47                     48
                      A                      A                      A
 Frequencies --   3088.0278              3113.2874              3127.3970
 Red. masses --      1.0990                 1.0974                 1.0551
 Frc consts  --      6.1744                 6.2667                 6.0800
 IR Inten    --     32.3029                 8.2834                15.2228

                     49                     50                     51
                      A                      A                      A
 Frequencies --   3138.4011              3155.7758              3214.1931
 Red. masses --      1.0881                 1.0906                 1.1157
 Frc consts  --      6.3144                 6.3994                 6.7913
 IR Inten    --     15.4541                15.0624                12.4229

 - Thermochemistry -
 -------------------
 Temperature   298.150 Kelvin.  Pressure   1.00000 Atm.
 Atom     1 has atomic number  8 and mass  15.99491

 Molecular mass:   126.06808 amu.
 Principal axes and moments of inertia in atomic units:
                           1         2         3
     Eigenvalues --   669.454541197.409591708.88592
           X            0.99983   0.01847   0.00112
           Y           -0.01847   0.99981  -0.00667
           Z           -0.00124   0.00665   0.99998
 This molecule is an asymmetric top.
 Rotational symmetry number  1.
 Warning -- assumption of classical behavior for rotation
           may cause significant error
 Rotational temperatures (Kelvin)      0.12938     0.07233     0.05068
 Rotational constants (GHZ):           2.69584     1.50720     1.05609
 Zero-point vibrational energy     423368.6 (Joules/Mol)
                                  101.18752 (Kcal/Mol)
 Warning -- explicit consideration of  10 degrees of freedom as
           vibrations may cause significant error
 Vibrational temperatures:    104.47   143.12   322.22   406.98   453.14
          (Kelvin)            501.96   619.94   705.36   776.49   840.00
                              957.48  1090.76  1165.48  1195.78  1248.66
                             1307.27  1317.08  1360.63  1427.69  1504.51
                             1515.82  1542.37  1570.30  1614.59  1643.15
                             1677.01  1728.04  1772.22  1794.69  1839.77
                             1872.65  1896.55  1946.96  2004.32  2058.06
                             2069.23  2113.18  2140.97  2157.35  2169.47
                             2629.88  4345.37  4365.20  4390.80  4429.66
                             4442.98  4479.32  4499.62  4515.45  4540.45
                             4624.50

 Zero-point correction=                           0.161253 (Hartree/Particle)
 Thermal correction to Energy=                    0.169137
 Thermal correction to Enthalpy=                  0.170081
 Thermal correction to Gibbs Free Energy=         0.128473
 Sum of electronic and zero-point Energies=           -423.049036
 Sum of electronic and thermal Energies=              -423.041152
 Sum of electronic and thermal Enthalpies=            -423.040208
 Sum of electronic and thermal Free Energies=         -423.081815

                     E (Thermal)             CV                S
                      KCal/Mol        Cal/Mol-Kelvin    Cal/Mol-Kelvin
 Total                  106.135             30.453             87.571
 Electronic               0.000              0.000              0.000
 Translational            0.889              2.981             40.409
 Rotational               0.889              2.981             28.706
 Vibrational            104.357             24.491             18.456
 Vibration     1          0.599              1.967              4.081
 Vibration     2          0.604              1.949              3.465
 Vibration     3          0.649              1.805              1.927
 Vibration     4          0.682              1.705              1.516
 Vibration     5          0.702              1.645              1.336
 Vibration     6          0.726              1.578              1.171
 Vibration     7          0.792              1.403              0.856
 Vibration     8          0.846              1.272              0.683
 Vibration     9          0.895              1.162              0.566
 Vibration    10          0.941              1.066              0.478

 Optimization completed.
    -- Stationary point found.
 Normal termination of Gaussian 09 at Mon Jan 27 14:29:39 2020.
