 Gaussian 09, Revision D.01,
 Gaussian 09:  ES64L-G09RevD.01 24-Apr-2013

 -----------------------------
 # b3lyp 6-31G(2df,p) opt Freq
 -----------------------------

 -----
 titel
 -----
 Symbolic Z-matrix:
 Charge =  0 Multiplicity = 1

 SCF Done:  E(RB3LYP) =  -423.232641203     A.U. after   14 cycles
 Optimization completed.
    -- Stationary point found.
 Normal termination of Gaussian 09 at Mon Jan 27 16:19:08 2020.

 ----------------------------------------------------------------------
 #N Geom=AllCheck Guess=TCheck SCRF=Check GenChk RB3LYP/6-31G(2df,p) Fr
 eq
 ----------------------------------------------------------------------

 Structure from the checkpoint file:  "/scratch/puck/g09_56702fe5-35b7-41f2-8dd7-2588b020621d/Gau-83544.chk"
 -----
 titel
 -----
 Charge =  0 Multiplicity = 1

                         Standard orientation:
 ---------------------------------------------------------------------
 Center     Atomic      Atomic             Coordinates (Angstroms)
 Number     Number       Type             X           Y           Z
 ---------------------------------------------------------------------
      1          6           0        1.440904   -0.298254    1.445126
      2          6           0        0.975061   -0.137126   -0.021554
      3          6           0        2.122465    0.388502   -0.887064
      4          6           0        0.344587   -1.455656   -0.549875
      5          6           0       -1.121813   -1.469090   -0.065477
      6          6           0       -1.524664   -0.004398   -0.008188
      7          8           0       -2.628172    0.467961    0.022576
      8          6           0       -0.207541    0.833054   -0.013101
      9          8           0       -0.168501    2.034220   -0.010782
     10          1           0        0.641406   -0.659866    2.100251
     11          1           0        2.264245   -1.018481    1.493806
     12          1           0        1.791562    0.658434    1.842500
     13          1           0        1.814705    0.494762   -1.932054
     14          1           0        2.445909    1.371109   -0.532895
     15          1           0        2.978235   -0.293691   -0.852544
     16          1           0        0.367133   -1.453575   -1.645258
     17          1           0        0.904246   -2.334357   -0.218539
     18          1           0       -1.802656   -2.043425   -0.697557
     19          1           0       -1.205378   -1.880553    0.948738
 ---------------------------------------------------------------------

 SCF Done:  E(RB3LYP) =  -423.232641203     A.U. after    1 cycles

 The electronic state is 1-A.
 Alpha  occ. eigenvalues --  -19.15259 -19.15195 -10.27835 -10.27338 -10.21493
 Alpha  occ. eigenvalues --  -10.20569 -10.20464 -10.19701 -10.18683  -1.06859
 Alpha  occ. eigenvalues --   -1.04761  -0.85924  -0.77416  -0.70361  -0.67854
 Alpha  occ. eigenvalues --   -0.66033  -0.56792  -0.50673  -0.49617  -0.47754
 Alpha  occ. eigenvalues --   -0.45813  -0.44889  -0.43453  -0.42526  -0.42247
 Alpha  occ. eigenvalues --   -0.39417  -0.39239  -0.38056  -0.37860  -0.35672
 Alpha  occ. eigenvalues --   -0.34451  -0.33894  -0.30256  -0.22824
 Alpha virt. eigenvalues --   -0.08658   0.04361   0.06822   0.10252   0.11005
 Alpha virt. eigenvalues --    0.12926   0.13658   0.14896   0.16008   0.16836
 Alpha virt. eigenvalues --    0.18232   0.19090   0.19666   0.20784   0.21336

 Mulliken charges:
               1
     1  C   -0.421732
     2  C    0.155913
     3  C   -0.429514
     4  C   -0.264821
     5  C   -0.342544
     6  C    0.322660
     7  O   -0.276967
     8  C    0.298650
     9  O   -0.298843
    10  H    0.120196
    11  H    0.124595
    12  H    0.139325
    13  H    0.119667
    14  H    0.138153
    15  H    0.114600
    16  H    0.112137
    17  H    0.109453
    18  H    0.138068
    19  H    0.141004
 Sum of Mulliken charges =   0.00000

 Dipole moment (field-independent basis, Debye):
    X=              2.6290    Y=             -3.6067    Z=              0.0529  Tot=              4.4635
 Quadrupole moment (field-independent basis, Debye-Ang):
   XX=            -59.3490   YY=            -57.5384   ZZ=            -50.6512
   XY=              3.3893   XZ=              0.5348   YZ=             -0.0422

  Exact polarizability:  84.584   0.053  77.628   0.211  -0.274  63.927
 Approx polarizability: 119.306  -5.025 122.182   0.712  -0.902  94.754

                      1                      2                      3
                      A                      A                      A
 Frequencies --     55.7190               149.5023               192.4440
 Red. masses --      5.8892                 2.4059                 1.7732
 Frc consts  --      0.0108                 0.0317                 0.0387
 IR Inten    --      0.1539                 3.7582                 0.8207

                      4                      5                      6
                      A                      A                      A
 Frequencies --    209.1211               238.7804               284.9907
 Red. masses --      1.3519                 1.1690                 2.4216
 Frc consts  --      0.0348                 0.0393                 0.1159
 IR Inten    --      1.1400                 0.6359                 2.0110

                      7                      8                      9
                      A                      A                      A
 Frequencies --    321.9481               336.0972               345.6208
 Red. masses --      9.0937                 2.4248                 2.4517
 Frc consts  --      0.5553                 0.1614                 0.1726
 IR Inten    --      4.0331                 0.3132                 2.4327

                     10                     11                     12
                      A                      A                      A
 Frequencies --    412.6453               529.8868               556.2680
 Red. masses --      3.0695                 4.6635                 3.5732
 Frc consts  --      0.3079                 0.7715                 0.6514
 IR Inten    --      3.2352                 0.8389                 3.6503

                     13                     14                     15
                      A                      A                      A
 Frequencies --    588.9192               674.3593               701.7237
 Red. masses --      2.9183                 5.3279                 2.8815
 Frc consts  --      0.5963                 1.4275                 0.8360
 IR Inten    --      7.1323                 1.8356                 2.7388

                     16                     17                     18
                      A                      A                      A
 Frequencies --    791.0837               872.4048               925.9264
 Red. masses --      2.2847                 2.2367                 2.2526
 Frc consts  --      0.8424                 1.0030                 1.1379
 IR Inten    --      2.4473                 3.3613                 2.1721

                     19                     20                     21
                      A                      A                      A
 Frequencies --    958.4327               971.4589               993.8546
 Red. masses --      1.6395                 1.5654                 2.4844
 Frc consts  --      0.8873                 0.8704                 1.4459
 IR Inten    --      1.9627                 1.7281                15.8827

                     22                     23                     24
                      A                      A                      A
 Frequencies --    996.6197              1049.4978              1070.9387
 Red. masses --      2.0630                 1.6967                 1.8071
 Frc consts  --      1.2073                 1.1011                 1.2211
 IR Inten    --     40.6138                 7.9616                18.3651

                     25                     26                     27
                      A                      A                      A
 Frequencies --   1115.6909              1191.5606              1222.7018
 Red. masses --      2.1766                 2.1411                 1.9259
 Frc consts  --      1.5963                 1.7911                 1.6963
 IR Inten    --     33.4170                 5.0479                 1.7378

                     28                     29                     30
                      A                      A                      A
 Frequencies --   1244.0971              1276.4310              1299.7697
 Red. masses --      2.4677                 2.2136                 1.3407
 Frc consts  --      2.2504                 2.1249                 1.3345
 IR Inten    --     11.0168                 7.3646                 1.5579

                     31                     32                     33
                      A                      A                      A
 Frequencies --   1343.7766              1394.8125              1417.4524
 Red. masses --      1.6119                 1.2124                 1.2112
 Frc consts  --      1.7150                 1.3897                 1.4338
 IR Inten    --      4.0215                 2.6066                 4.9756

                     34                     35                     36
                      A                      A                      A
 Frequencies --   1448.9390              1480.7609              1485.5585
 Red. masses --      1.0797                 1.0498                 1.0475
 Frc consts  --      1.3355                 1.3562                 1.3621
 IR Inten    --     10.2002                 1.5898                 2.9754

                     37                     38                     39
                      A                      A                      A
 Frequencies --   1499.9646              1501.9833              1507.6159
 Red. masses --      1.0568                 1.0834                 1.0583
 Frc consts  --      1.4009                 1.4400                 1.4173
 IR Inten    --      6.9828                 3.3387                 7.8104

                     40                     41                     42
                      A                      A                      A
 Frequencies --   1837.0320              1857.6086              3030.8095
 Red. masses --     12.8703                12.8129                 1.0378
 Frc consts  --     25.5902                26.0500                 5.6167
 IR Inten    --    208.0570                48.7854                15.6509

                     43                     44                     45
                      A                      A                      A
 Frequencies --   3035.4989              3037.7727              3045.6353
 Red. masses --      1.0421                 1.0592                 1.0605
 Frc consts  --      5.6573                 5.7591                 5.7961
 IR Inten    --     15.8928                 3.7506                33.1178

                     46                     47                     48
                      A                      A                      A
 Frequencies --   3093.0651              3099.6423              3104.4589
 Red. masses --      1.1010                 1.1013                 1.1017
 Frc consts  --      6.2062                 6.2341                 6.2557
 IR Inten    --     11.7452                20.6128                27.8226

                     49                     50                     51
                      A                      A                      A
 Frequencies --   3111.2138              3115.1103              3120.0701
 Red. masses --      1.0961                 1.1021                 1.1010
 Frc consts  --      6.2511                 6.3010                 6.3147
 IR Inten    --     11.4417                 6.9171                21.0672

 - Thermochemistry -
 -------------------
 Temperature   298.150 Kelvin.  Pressure   1.00000 Atm.
 Atom     1 has atomic number  6 and mass  12.00000

 Molecular mass:   126.06808 amu.
 Principal axes and moments of inertia in atomic units:
                           1         2         3
     Eigenvalues --   745.288381198.719351535.00736
           X            0.99937   0.03559   0.00002
           Y           -0.03559   0.99935  -0.00648
           Z           -0.00025   0.00647   0.99998
 This molecule is an asymmetric top.
 Rotational symmetry number  1.
 Warning -- assumption of classical behavior for rotation
           may cause significant error
 Rotational temperatures (Kelvin)      0.11622     0.07226     0.05643
 Rotational constants (GHZ):           2.42153     1.50556     1.17572
 Zero-point vibrational energy     413592.6 (Joules/Mol)
                                   98.85099 (Kcal/Mol)
 Warning -- explicit consideration of  13 degrees of freedom as
           vibrations may cause significant error
 Vibrational temperatures:     80.17   215.10   276.88   300.88   343.55
          (Kelvin)            410.04   463.21   483.57   497.27   593.70
                              762.39   800.34   847.32   970.25  1009.62
                             1138.19  1255.19  1332.20  1378.97  1397.71
                             1429.93  1433.91  1509.99  1540.84  1605.23
                             1714.39  1759.19  1789.98  1836.50  1870.08
                             1933.39  2006.82  2039.40  2084.70  2130.48
                             2137.38  2158.11  2161.02  2169.12  2643.08
                             2672.68  4360.65  4367.40  4370.67  4381.98
                             4450.23  4459.69  4466.62  4476.34  4481.94
                             4489.08

 Zero-point correction=                           0.157529 (Hartree/Particle)
 Thermal correction to Energy=                    0.166672
 Thermal correction to Enthalpy=                  0.167616
 Thermal correction to Gibbs Free Energy=         0.123785
 Sum of electronic and zero-point Energies=           -423.075112
 Sum of electronic and thermal Energies=              -423.065969
 Sum of electronic and thermal Enthalpies=            -423.065025
 Sum of electronic and thermal Free Energies=         -423.108856

                     E (Thermal)             CV                S
                      KCal/Mol        Cal/Mol-Kelvin    Cal/Mol-Kelvin
 Total                  104.588             34.237             92.251
 Electronic               0.000              0.000              0.000
 Translational            0.889              2.981             40.409
 Rotational               0.889              2.981             28.707
 Vibrational            102.811             28.276             23.135
 Vibration     1          0.596              1.975              4.603
 Vibration     2          0.618              1.903              2.679
 Vibration     3          0.634              1.850              2.204
 Vibration     4          0.642              1.827              2.051
 Vibration     5          0.657              1.781              1.812
 Vibration     6          0.683              1.702              1.504
 Vibration     7          0.707              1.631              1.300
 Vibration     8          0.717              1.603              1.231
 Vibration     9          0.724              1.584              1.186
 Vibration    10          0.776              1.443              0.917
 Vibration    11          0.885              1.184              0.587
 Vibration    12          0.912              1.126              0.531
 Vibration    13          0.946              1.055              0.469

 Optimization completed.
    -- Stationary point found.
 Normal termination of Gaussian 09 at Mon Jan 27 17:02:24 2020.
