 Gaussian 09, Revision D.01,
 Gaussian 09:  ES64L-G09RevD.01 24-Apr-2013

 -----------------------------
 # b3lyp 6-31G(2df,p) opt Freq
 -----------------------------

 -----
 titel
 -----
 Symbolic Z-matrix:
 Charge =  0 Multiplicity = 1

 SCF Done:  E(RB3LYP) =  -423.205147432     A.U. after   14 cycles
 Optimization completed.
    -- Stationary point found.
 Normal termination of Gaussian 09 at Mon Jan 27 22:01:14 2020.

 ----------------------------------------------------------------------
 #N Geom=AllCheck Guess=TCheck SCRF=Check GenChk RB3LYP/6-31G(2df,p) Fr
 eq
 ----------------------------------------------------------------------

 Structure from the checkpoint file:  "/scratch/puck/g09_53bc5e3c-3997-4d51-b72e-a37087adaec8/Gau-45698.chk"
 -----
 titel
 -----
 Charge =  0 Multiplicity = 1

                         Standard orientation:
 ---------------------------------------------------------------------
 Center     Atomic      Atomic             Coordinates (Angstroms)
 Number     Number       Type             X           Y           Z
 ---------------------------------------------------------------------
      1          6           0        0.943441    1.798632    0.810199
      2          6           0        0.254565    0.612576    0.170844
      3          8           0       -0.627975    1.063082   -0.840651
      4          6           0       -1.628089    0.065629   -1.030506
      5          6           0       -1.902214   -0.507972    0.371401
      6          6           0       -0.524797   -0.443530    1.046031
      7          6           0        0.489425   -1.560251    0.656747
      8          6           0        1.196026   -0.558260   -0.273773
      9          8           0        2.095909   -0.638743   -1.056568
     10          1           0        1.617538    1.477777    1.610111
     11          1           0        1.532675    2.334547    0.060773
     12          1           0        0.200682    2.484715    1.228289
     13          1           0       -2.494621    0.547166   -1.489609
     14          1           0       -1.269429   -0.717540   -1.716582
     15          1           0       -2.609454    0.135071    0.903828
     16          1           0       -2.321447   -1.517466    0.338345
     17          1           0       -0.579244   -0.232846    2.114012
     18          1           0        1.129718   -1.907165    1.473701
     19          1           0        0.079976   -2.439919    0.149235
 ---------------------------------------------------------------------

 SCF Done:  E(RB3LYP) =  -423.205147432     A.U. after    1 cycles

 The electronic state is 1-A.
 Alpha  occ. eigenvalues --  -19.14791 -19.14084 -10.26493 -10.23954 -10.23381
 Alpha  occ. eigenvalues --  -10.19831 -10.19412 -10.19373 -10.18324  -1.05450
 Alpha  occ. eigenvalues --   -1.03974  -0.84111  -0.77675  -0.72449  -0.66167
 Alpha  occ. eigenvalues --   -0.61920  -0.58465  -0.51424  -0.50208  -0.48903
 Alpha  occ. eigenvalues --   -0.45993  -0.44353  -0.43428  -0.41998  -0.41136
 Alpha  occ. eigenvalues --   -0.39796  -0.38757  -0.36634  -0.34587  -0.34191
 Alpha  occ. eigenvalues --   -0.33008  -0.31060  -0.28460  -0.22572
 Alpha virt. eigenvalues --   -0.02906   0.07660   0.10358   0.11402   0.12566
 Alpha virt. eigenvalues --    0.12975   0.14127   0.14984   0.15940   0.16940
 Alpha virt. eigenvalues --    0.17866   0.18643   0.19395   0.19909   0.21260

 Mulliken charges:
               1
     1  C   -0.465090
     2  C    0.313666
     3  O   -0.282423
     4  C   -0.100613
     5  C   -0.230911
     6  C   -0.091072
     7  C   -0.369268
     8  C    0.357089
     9  O   -0.295827
    10  H    0.118479
    11  H    0.145216
    12  H    0.125328
    13  H    0.115329
    14  H    0.102491
    15  H    0.111371
    16  H    0.105732
    17  H    0.078801
    18  H    0.133695
    19  H    0.128008
 Sum of Mulliken charges =   0.00000

 Dipole moment (field-independent basis, Debye):
    X=             -2.2542    Y=             -0.7241    Z=              2.3547  Tot=              3.3392
 Quadrupole moment (field-independent basis, Debye-Ang):
   XX=            -55.4862   YY=            -52.7903   ZZ=            -53.9241
   XY=              2.4652   XZ=              4.8229   YZ=              0.6901

  Exact polarizability:  80.029   0.808  74.871  -0.318   0.130  69.598
 Approx polarizability: 113.641  -0.641 107.292  -6.254  -1.444 106.991

                      1                      2                      3
                      A                      A                      A
 Frequencies --     46.7390               161.3236               194.1467
 Red. masses --      3.6098                 3.2561                 1.3168
 Frc consts  --      0.0046                 0.0499                 0.0292
 IR Inten    --      2.3997                 2.1457                 1.1425

                      4                      5                      6
                      A                      A                      A
 Frequencies --    211.3230               272.8994               286.0445
 Red. masses --      1.6847                 2.7725                 3.6261
 Frc consts  --      0.0443                 0.1217                 0.1748
 IR Inten    --      2.1998                 1.3606                 1.4052

                      7                      8                      9
                      A                      A                      A
 Frequencies --    368.1636               474.0302               514.6345
 Red. masses --      2.0638                 3.4176                 2.0723
 Frc consts  --      0.1648                 0.4525                 0.3234
 IR Inten    --      1.7474                 2.3820                 2.2012

                     10                     11                     12
                      A                      A                      A
 Frequencies --    572.2636               626.5981               668.8999
 Red. masses --      4.1049                 2.7760                 3.6844
 Frc consts  --      0.7920                 0.6422                 0.9713
 IR Inten    --      0.1860                 0.5769                 9.0992

                     13                     14                     15
                      A                      A                      A
 Frequencies --    754.0229               783.5499               827.8595
 Red. masses --      4.0934                 2.3343                 2.1685
 Frc consts  --      1.3712                 0.8444                 0.8756
 IR Inten    --      0.8359                 1.8730                 5.6572

                     16                     17                     18
                      A                      A                      A
 Frequencies --    896.5333               909.9327               920.7358
 Red. masses --      2.1158                 2.5181                 1.9861
 Frc consts  --      1.0020                 1.2284                 0.9920
 IR Inten    --      9.4294                11.8506                 5.5075

                     19                     20                     21
                      A                      A                      A
 Frequencies --    957.8127              1016.3143              1030.8450
 Red. masses --      2.1249                 1.7999                 4.7465
 Frc consts  --      1.1485                 1.0953                 2.9717
 IR Inten    --      7.8865                 0.6518                41.1742

                     22                     23                     24
                      A                      A                      A
 Frequencies --   1043.2816              1083.9168              1113.4142
 Red. masses --      1.9552                 1.8491                 2.3432
 Frc consts  --      1.2539                 1.2800                 1.7115
 IR Inten    --     42.6668                22.1853                34.6101

                     25                     26                     27
                      A                      A                      A
 Frequencies --   1147.4772              1170.7737              1188.4209
 Red. masses --      1.6821                 1.9848                 2.3106
 Frc consts  --      1.3049                 1.6029                 1.9227
 IR Inten    --     13.2689                18.5173                28.6754

                     28                     29                     30
                      A                      A                      A
 Frequencies --   1214.2954              1221.0720              1253.9989
 Red. masses --      1.5044                 1.5919                 1.3698
 Frc consts  --      1.3070                 1.3985                 1.2692
 IR Inten    --      0.8853                 3.2915                 8.0222

                     31                     32                     33
                      A                      A                      A
 Frequencies --   1293.3854              1312.0662              1339.6037
 Red. masses --      2.7004                 1.4885                 1.3726
 Frc consts  --      2.6616                 1.5098                 1.4513
 IR Inten    --      3.9863                 1.6267                 1.2756

                     34                     35                     36
                      A                      A                      A
 Frequencies --   1384.9303              1402.9054              1432.1064
 Red. masses --      1.3317                 1.2834                 1.1027
 Frc consts  --      1.5049                 1.4883                 1.3325
 IR Inten    --      4.0331                 5.4902                12.3624

                     37                     38                     39
                      A                      A                      A
 Frequencies --   1477.9823              1486.1187              1489.9471
 Red. masses --      1.0490                 1.0884                 1.0610
 Frc consts  --      1.3501                 1.4163                 1.3878
 IR Inten    --      2.8112                 2.7389                 3.3451

                     40                     41                     42
                      A                      A                      A
 Frequencies --   1520.9442              1891.2810              2983.9534
 Red. masses --      1.0921                12.8706                 1.0716
 Frc consts  --      1.4885                27.1245                 5.6218
 IR Inten    --      1.1937               215.3660                49.5032

                     43                     44                     45
                      A                      A                      A
 Frequencies --   3040.2272              3050.0945              3054.9852
 Red. masses --      1.0344                 1.0594                 1.0605
 Frc consts  --      5.6331                 5.8068                 5.8316
 IR Inten    --     14.7190                 8.9737                20.9909

                     46                     47                     48
                      A                      A                      A
 Frequencies --   3097.5537              3098.4882              3104.9205
 Red. masses --      1.0952                 1.1019                 1.1001
 Frc consts  --      6.1915                 6.2328                 6.2485
 IR Inten    --     22.7614                 3.9106                25.2449

                     49                     50                     51
                      A                      A                      A
 Frequencies --   3113.5848              3115.5291              3121.0635
 Red. masses --      1.0970                 1.0984                 1.1015
 Frc consts  --      6.2660                 6.2818                 6.3216
 IR Inten    --     29.0202                14.4405                14.0947

 - Thermochemistry -
 -------------------
 Temperature   298.150 Kelvin.  Pressure   1.00000 Atm.
 Atom     1 has atomic number  6 and mass  12.00000

 Molecular mass:   126.06808 amu.
 Principal axes and moments of inertia in atomic units:
                           1         2         3
     Eigenvalues --   786.172151076.940801238.69003
           X            0.99546   0.08128   0.04962
           Y           -0.08373   0.99526   0.04937
           Z           -0.04537  -0.05330   0.99755
 This molecule is an asymmetric top.
 Rotational symmetry number  1.
 Warning -- assumption of classical behavior for rotation
           may cause significant error
 Rotational temperatures (Kelvin)      0.11017     0.08043     0.06992
 Rotational constants (GHZ):           2.29561     1.67580     1.45698
 Zero-point vibrational energy     417155.7 (Joules/Mol)
                                   99.70261 (Kcal/Mol)
 Warning -- explicit consideration of  10 degrees of freedom as
           vibrations may cause significant error
 Vibrational temperatures:     67.25   232.11   279.33   304.05   392.64
          (Kelvin)            411.55   529.70   682.02   740.44   823.36
                              901.53   962.40  1084.87  1127.35  1191.10
                             1289.91  1309.19  1324.73  1378.08  1462.25
                             1483.15  1501.05  1559.51  1601.95  1650.96
                             1684.48  1709.87  1747.10  1756.85  1804.22
                             1860.89  1887.77  1927.39  1992.60  2018.47
                             2060.48  2126.48  2138.19  2143.70  2188.30
                             2721.13  4293.24  4374.20  4388.40  4395.44
                             4456.68  4458.03  4467.28  4479.75  4482.55
                             4490.51

 Zero-point correction=                           0.158886 (Hartree/Particle)
 Thermal correction to Energy=                    0.167209
 Thermal correction to Enthalpy=                  0.168153
 Thermal correction to Gibbs Free Energy=         0.125727
 Sum of electronic and zero-point Energies=           -423.046261
 Sum of electronic and thermal Energies=              -423.037938
 Sum of electronic and thermal Enthalpies=            -423.036994
 Sum of electronic and thermal Free Energies=         -423.079420

                     E (Thermal)             CV                S
                      KCal/Mol        Cal/Mol-Kelvin    Cal/Mol-Kelvin
 Total                  104.925             31.746             89.293
 Electronic               0.000              0.000              0.000
 Translational            0.889              2.981             40.409
 Rotational               0.889              2.981             28.441
 Vibrational            103.148             25.785             20.444
 Vibration     1          0.595              1.979              4.951
 Vibration     2          0.622              1.890              2.534
 Vibration     3          0.635              1.848              2.188
 Vibration     4          0.643              1.824              2.032
 Vibration     5          0.676              1.723              1.578
 Vibration     6          0.684              1.700              1.497
 Vibration     7          0.741              1.538              1.087
 Vibration     8          0.831              1.308              0.726
 Vibration     9          0.870              1.218              0.623
 Vibration    10          0.928              1.091              0.500

 Normal termination of Gaussian 09 at Mon Jan 27 22:52:30 2020.
