 Gaussian 09, Revision D.01,
 Gaussian 09:  ES64L-G09RevD.01 24-Apr-2013

 -----------------------------
 # b3lyp 6-31G(2df,p) opt Freq
 -----------------------------

 -----
 titel
 -----
 Symbolic Z-matrix:
 Charge =  0 Multiplicity = 1

 SCF Done:  E(RB3LYP) =  -423.100714230     A.U. after   13 cycles
 Optimization completed.
    -- Stationary point found.
 Normal termination of Gaussian 09 at Tue Jan 28 09:37:44 2020.

 ----------------------------------------------------------------------
 #N Geom=AllCheck Guess=TCheck SCRF=Check GenChk RB3LYP/6-31G(2df,p) Fr
 eq
 ----------------------------------------------------------------------

 Structure from the checkpoint file:  "/scratch/puck/g09_8f882091-761e-48a7-a43a-b48700f05972/Gau-132185.chk"
 -----
 titel
 -----
 Charge =  0 Multiplicity = 1

                         Standard orientation:
 ---------------------------------------------------------------------
 Center     Atomic      Atomic             Coordinates (Angstroms)
 Number     Number       Type             X           Y           Z
 ---------------------------------------------------------------------
      1          6           0       -2.642185    0.517130    0.480882
      2          6           0       -1.794450   -0.080815   -0.651516
      3          6           0       -0.398450   -0.398534   -0.216838
      4          8           0       -0.173523   -1.508171    0.657570
      5          6           0        0.557632   -1.450120   -0.568354
      6          6           0        1.757451   -0.445229   -0.376855
      7          8           0        1.702280    0.065263    0.956607
      8          6           0        0.823313    0.624737   -0.020667
      9          6           0        0.816141    2.099615   -0.250811
     10          1           0       -2.695261   -0.175065    1.325852
     11          1           0       -2.217283    1.458079    0.844936
     12          1           0       -3.660991    0.719789    0.138250
     13          1           0       -2.258755   -1.003521   -1.017260
     14          1           0       -1.755904    0.612940   -1.500906
     15          1           0        0.490073   -2.286938   -1.253309
     16          1           0        2.706304   -0.430857   -0.899604
     17          1           0        0.280421    2.619350    0.551415
     18          1           0        1.839767    2.482813   -0.279989
     19          1           0        0.324869    2.345965   -1.197846
 ---------------------------------------------------------------------

 SCF Done:  E(RB3LYP) =  -423.100714230     A.U. after    1 cycles

 The electronic state is 1-A.
 Alpha  occ. eigenvalues --  -19.15126 -19.15116 -10.24324 -10.24012 -10.23648
 Alpha  occ. eigenvalues --  -10.23629 -10.19579 -10.19252 -10.17986  -1.10255
 Alpha  occ. eigenvalues --   -1.04691  -0.78730  -0.75475  -0.72909  -0.65725
 Alpha  occ. eigenvalues --   -0.61692  -0.58892  -0.52920  -0.51270  -0.48955
 Alpha  occ. eigenvalues --   -0.45453  -0.44723  -0.43067  -0.41311  -0.40570
 Alpha  occ. eigenvalues --   -0.39234  -0.37698  -0.36282  -0.35136  -0.34914
 Alpha  occ. eigenvalues --   -0.32751  -0.28657  -0.24304  -0.24269
 Alpha virt. eigenvalues --    0.05019   0.08000   0.09306   0.11557   0.11949
 Alpha virt. eigenvalues --    0.12982   0.13836   0.14007   0.15410   0.16265
 Alpha virt. eigenvalues --    0.17983   0.18289   0.18663   0.19542   0.21926

 Mulliken charges:
               1
     1  C   -0.380770
     2  C   -0.314638
     3  C    0.394546
     4  O   -0.266478
     5  C   -0.128522
     6  C   -0.109984
     7  O   -0.260194
     8  C    0.369025
     9  C   -0.514410
    10  H    0.140549
    11  H    0.120707
    12  H    0.115049
    13  H    0.114821
    14  H    0.102600
    15  H    0.108770
    16  H    0.108049
    17  H    0.136428
    18  H    0.137982
    19  H    0.126469
 Sum of Mulliken charges =   0.00000

 Dipole moment (field-independent basis, Debye):
    X=             -0.6499    Y=              1.2646    Z=             -2.9999  Tot=              3.3198
 Quadrupole moment (field-independent basis, Debye-Ang):
   XX=            -51.2656   YY=            -51.7002   ZZ=            -54.7931
   XY=             -0.7375   XZ=             -3.1833   YZ=              2.8784

  Exact polarizability:  84.187  -2.887  78.655  -2.164   3.659  61.234
 Approx polarizability: 113.466  -6.511 114.232  -1.914   3.218 101.875

                      1                      2                      3
                      A                      A                      A
 Frequencies --     76.0742               128.6709               179.4255
 Red. masses --      2.4037                 3.1804                 1.3324
 Frc consts  --      0.0082                 0.0310                 0.0253
 IR Inten    --      0.5868                 0.8979                 0.2626

                      4                      5                      6
                      A                      A                      A
 Frequencies --    194.0177               229.3435               249.3921
 Red. masses --      1.1450                 2.3370                 1.8770
 Frc consts  --      0.0254                 0.0724                 0.0688
 IR Inten    --      0.7031                 0.8754                 1.2329

                      7                      8                      9
                      A                      A                      A
 Frequencies --    363.5020               381.8705               447.4630
 Red. masses --      2.7426                 3.0461                 9.4596
 Frc consts  --      0.2135                 0.2617                 1.1159
 IR Inten    --      1.1652                 1.0806                 0.5548

                     10                     11                     12
                      A                      A                      A
 Frequencies --    478.4754               590.3829               608.4558
 Red. masses --      3.4603                 3.9915                 3.4283
 Frc consts  --      0.4667                 0.8197                 0.7478
 IR Inten    --      6.3424                 4.5986                 2.8339

                     13                     14                     15
                      A                      A                      A
 Frequencies --    727.6739               748.7308               784.8512
 Red. masses --      5.6589                 2.1912                 3.1221
 Frc consts  --      1.7654                 0.7237                 1.1331
 IR Inten    --     27.2740                 2.7471                 5.0935

                     16                     17                     18
                      A                      A                      A
 Frequencies --    823.3000               835.5664               863.6674
 Red. masses --      2.4125                 2.5324                 2.0422
 Frc consts  --      0.9635                 1.0417                 0.8975
 IR Inten    --      5.1415                 1.8498                 9.2792

                     19                     20                     21
                      A                      A                      A
 Frequencies --    921.4116               961.1201               982.9655
 Red. masses --      2.4324                 2.0763                 1.8306
 Frc consts  --      1.2167                 1.1300                 1.0421
 IR Inten    --     21.6838                13.4176                 2.8497

                     22                     23                     24
                      A                      A                      A
 Frequencies --   1002.4929              1020.5854              1060.4947
 Red. masses --      2.0182                 2.1962                 2.4746
 Frc consts  --      1.1950                 1.3478                 1.6397
 IR Inten    --      9.1278                 6.2684                 1.8639

                     25                     26                     27
                      A                      A                      A
 Frequencies --   1094.4235              1106.8979              1144.8744
 Red. masses --      1.7002                 1.9148                 2.1260
 Frc consts  --      1.1998                 1.3823                 1.6418
 IR Inten    --      9.4101                 6.8423                11.2496

                     28                     29                     30
                      A                      A                      A
 Frequencies --   1209.8655              1211.3041              1250.3103
 Red. masses --      1.4721                 2.0313                 1.5646
 Frc consts  --      1.2696                 1.7560                 1.4411
 IR Inten    --     17.5295                 3.4262                 3.8647

                     31                     32                     33
                      A                      A                      A
 Frequencies --   1306.3535              1344.4022              1401.7214
 Red. masses --      1.2734                 1.5123                 1.2704
 Frc consts  --      1.2804                 1.6105                 1.4707
 IR Inten    --      1.0463                 7.8077                 3.7669

                     34                     35                     36
                      A                      A                      A
 Frequencies --   1408.4017              1455.3263              1462.1983
 Red. masses --      1.2416                 3.2646                 1.7065
 Frc consts  --      1.4510                 4.0738                 2.1497
 IR Inten    --      2.0116                12.3064                 7.1210

                     37                     38                     39
                      A                      A                      A
 Frequencies --   1475.6232              1484.7205              1493.3988
 Red. masses --      1.4304                 1.2223                 1.2329
 Frc consts  --      1.8351                 1.5875                 1.6200
 IR Inten    --      2.9229                11.4521                 0.5866

                     40                     41                     42
                      A                      A                      A
 Frequencies --   1497.4940              1508.6016              3027.7777
 Red. masses --      1.0398                 1.1629                 1.0598
 Frc consts  --      1.3738                 1.5594                 5.7245
 IR Inten    --      4.3842                 5.2699                17.9441

                     43                     44                     45
                      A                      A                      A
 Frequencies --   3033.5094              3041.4527              3068.5437
 Red. masses --      1.0372                 1.0352                 1.0998
 Frc consts  --      5.6233                 5.6422                 6.1014
 IR Inten    --     19.0803                23.0962                11.0907

                     46                     47                     48
                      A                      A                      A
 Frequencies --   3095.3199              3110.2661              3118.3766
 Red. masses --      1.1001                 1.1014                 1.1010
 Frc consts  --      6.2098                 6.2778                 6.3078
 IR Inten    --     15.4763                39.7839                 9.3848

                     49                     50                     51
                      A                      A                      A
 Frequencies --   3121.3900              3184.9913              3194.7633
 Red. masses --      1.1024                 1.0920                 1.0970
 Frc consts  --      6.3284                 6.5264                 6.5970
 IR Inten    --     22.8618                10.3188                17.6253

 - Thermochemistry -
 -------------------
 Temperature   298.150 Kelvin.  Pressure   1.00000 Atm.
 Atom     1 has atomic number  6 and mass  12.00000

 Molecular mass:   126.06808 amu.
 Principal axes and moments of inertia in atomic units:
                           1         2         3
     Eigenvalues --   717.594681139.902501527.83282
           X            0.99978  -0.00568  -0.02032
           Y            0.00610   0.99977   0.02046
           Z            0.02020  -0.02058   0.99958
 This molecule is an asymmetric top.
 Rotational symmetry number  1.
 Warning -- assumption of classical behavior for rotation
           may cause significant error
 Rotational temperatures (Kelvin)      0.12070     0.07598     0.05669
 Rotational constants (GHZ):           2.51499     1.58324     1.18124
 Zero-point vibrational energy     409794.2 (Joules/Mol)
                                   97.94317 (Kcal/Mol)
 Warning -- explicit consideration of  12 degrees of freedom as
           vibrations may cause significant error
 Vibrational temperatures:    109.45   185.13   258.15   279.15   329.97
          (Kelvin)            358.82   523.00   549.43   643.80   688.42
                              849.43   875.43  1046.96  1077.26  1129.22
                             1184.54  1202.19  1242.62  1325.70  1382.84
                             1414.27  1442.36  1468.39  1525.81  1574.63
                             1592.58  1647.22  1740.72  1742.79  1798.92
                             1879.55  1934.29  2016.76  2026.37  2093.89
                             2103.77  2123.09  2136.18  2148.67  2154.56
                             2170.54  4356.29  4364.54  4375.97  4414.94
                             4453.47  4474.97  4486.64  4490.98  4582.49
                             4596.55

 Zero-point correction=                           0.156082 (Hartree/Particle)
 Thermal correction to Energy=                    0.164948
 Thermal correction to Enthalpy=                  0.165892
 Thermal correction to Gibbs Free Energy=         0.122650
 Sum of electronic and zero-point Energies=           -422.944632
 Sum of electronic and thermal Energies=              -422.935766
 Sum of electronic and thermal Enthalpies=            -422.934822
 Sum of electronic and thermal Free Energies=         -422.978064

                     E (Thermal)             CV                S
                      KCal/Mol        Cal/Mol-Kelvin    Cal/Mol-Kelvin
 Total                  103.507             33.613             91.011
 Electronic               0.000              0.000              0.000
 Translational            0.889              2.981             40.409
 Rotational               0.889              2.981             28.615
 Vibrational            101.729             27.651             21.988
 Vibration     1          0.599              1.965              3.990
 Vibration     2          0.611              1.925              2.966
 Vibration     3          0.629              1.868              2.334
 Vibration     4          0.635              1.848              2.189
 Vibration     5          0.652              1.796              1.884
 Vibration     6          0.662              1.764              1.735
 Vibration     7          0.737              1.547              1.107
 Vibration     8          0.751              1.509              1.032
 Vibration     9          0.807              1.366              0.803
 Vibration    10          0.835              1.298              0.714
 Vibration    11          0.948              1.052              0.466
 Vibration    12          0.967              1.014              0.435

 Optimization completed.
    -- Stationary point found.
 Normal termination of Gaussian 09 at Tue Jan 28 10:19:54 2020.
