 Gaussian 09, Revision D.01,
 Gaussian 09:  ES64L-G09RevD.01 24-Apr-2013

 -----------------------------
 # b3lyp 6-31G(2df,p) opt Freq
 -----------------------------

 -----
 titel
 -----
 Symbolic Z-matrix:
 Charge =  0 Multiplicity = 1

 SCF Done:  E(RB3LYP) =  -423.184314542     A.U. after   14 cycles
 Optimization completed.
    -- Stationary point found.
 Normal termination of Gaussian 09 at Tue Jan 28 09:50:56 2020.

 ----------------------------------------------------------------------
 #N Geom=AllCheck Guess=TCheck SCRF=Check GenChk RB3LYP/6-31G(2df,p) Fr
 eq
 ----------------------------------------------------------------------

 Structure from the checkpoint file:  "/scratch/puck/g09_559cb7b5-d7e3-4dbc-a5d9-5f1ee1be8ab9/Gau-96549.chk"
 -----
 titel
 -----
 Charge =  0 Multiplicity = 1

                         Standard orientation:
 ---------------------------------------------------------------------
 Center     Atomic      Atomic             Coordinates (Angstroms)
 Number     Number       Type             X           Y           Z
 ---------------------------------------------------------------------
      1          8           0        2.826646   -0.375190   -0.092486
      2          6           0        1.955718    0.709736   -0.307695
      3          6           0        0.507695    0.346424   -0.020902
      4          8           0        0.385421   -0.606166    1.079520
      5          6           0        0.024380   -1.024311   -0.248794
      6          6           0       -1.443738   -1.248543   -0.524200
      7          6           0       -2.343387   -0.194286    0.152773
      8          6           0       -1.797410    1.202439    0.014735
      9          6           0       -0.488115    1.447883   -0.052702
     10          1           0        2.527242   -0.779990    0.733540
     11          1           0        2.227104    1.578401    0.317537
     12          1           0        2.061098    1.018221   -1.354454
     13          1           0        0.719152   -1.739360   -0.687376
     14          1           0       -1.578232   -1.211915   -1.613372
     15          1           0       -1.739634   -2.254026   -0.205410
     16          1           0       -3.356319   -0.252517   -0.258686
     17          1           0       -2.432190   -0.433903    1.219907
     18          1           0       -2.505793    2.026300    0.003572
     19          1           0       -0.109827    2.463589   -0.130815
 ---------------------------------------------------------------------

 SCF Done:  E(RB3LYP) =  -423.184314542     A.U. after    1 cycles

 The electronic state is 1-A.
 Alpha  occ. eigenvalues --  -19.15251 -19.13181 -10.23983 -10.23454 -10.22991
 Alpha  occ. eigenvalues --  -10.19272 -10.19227 -10.19203 -10.18611  -1.06972
 Alpha  occ. eigenvalues --   -1.01249  -0.81999  -0.76327  -0.72295  -0.67379
 Alpha  occ. eigenvalues --   -0.60560  -0.60017  -0.53208  -0.51555  -0.48418
 Alpha  occ. eigenvalues --   -0.45704  -0.44865  -0.44147  -0.43825  -0.41012
 Alpha  occ. eigenvalues --   -0.39176  -0.36870  -0.35786  -0.34479  -0.32501
 Alpha  occ. eigenvalues --   -0.31267  -0.27480  -0.26444  -0.24571
 Alpha virt. eigenvalues --   -0.00311   0.08606   0.10609   0.11904   0.12134
 Alpha virt. eigenvalues --    0.13117   0.13907   0.14432   0.15383   0.16825
 Alpha virt. eigenvalues --    0.17790   0.19578   0.20584   0.20980   0.22208

 Mulliken charges:
               1
     1  O   -0.418965
     2  C   -0.148408
     3  C    0.326562
     4  O   -0.314465
     5  C   -0.000443
     6  C   -0.249848
     7  C   -0.268576
     8  C   -0.079096
     9  C   -0.093516
    10  H    0.292144
    11  H    0.092520
    12  H    0.116993
    13  H    0.101182
    14  H    0.111914
    15  H    0.110390
    16  H    0.104222
    17  H    0.133859
    18  H    0.096886
    19  H    0.086643
 Sum of Mulliken charges =   0.00000

 Dipole moment (field-independent basis, Debye):
    X=             -2.0576    Y=              0.4701    Z=             -0.7464  Tot=              2.2387
 Quadrupole moment (field-independent basis, Debye-Ang):
   XX=            -55.9388   YY=            -49.7511   ZZ=            -54.4835
   XY=              1.6812   XZ=              1.6334   YZ=              0.0310

  Exact polarizability:  92.898   2.919  79.116  -0.315   0.190  56.704
 Approx polarizability: 129.840   4.370 115.303   0.162  -2.592  94.639

                      1                      2                      3
                      A                      A                      A
 Frequencies --    116.0004               162.8912               199.2590
 Red. masses --      3.7365                 2.2381                 3.9094
 Frc consts  --      0.0296                 0.0350                 0.0915
 IR Inten    --      4.2743                 6.6130                 0.8467

                      4                      5                      6
                      A                      A                      A
 Frequencies --    243.2035               300.8348               382.4224
 Red. masses --      2.3612                 2.8104                 3.8521
 Frc consts  --      0.0823                 0.1499                 0.3319
 IR Inten    --      6.5595                 4.0205                10.4029

                      7                      8                      9
                      A                      A                      A
 Frequencies --    390.7795               488.6822               510.1194
 Red. masses --      3.1995                 1.5316                 1.8593
 Frc consts  --      0.2879                 0.2155                 0.2851
 IR Inten    --     16.0151                81.7988                34.0925

                     10                     11                     12
                      A                      A                      A
 Frequencies --    553.5574               638.8313               687.9333
 Red. masses --      3.5716                 4.3775                 3.3690
 Frc consts  --      0.6448                 1.0526                 0.9394
 IR Inten    --     21.6447                15.9027                13.6937

                     13                     14                     15
                      A                      A                      A
 Frequencies --    713.5567               720.6372               806.0907
 Red. masses --      2.0311                 2.5408                 2.0062
 Frc consts  --      0.6093                 0.7774                 0.7681
 IR Inten    --      4.9846                 5.9553                22.9383

                     16                     17                     18
                      A                      A                      A
 Frequencies --    865.1171               906.2118               943.4935
 Red. masses --      3.1074                 2.6475                 2.4930
 Frc consts  --      1.3703                 1.2810                 1.3076
 IR Inten    --      7.9947                24.7907                 4.2500

                     19                     20                     21
                      A                      A                      A
 Frequencies --    966.7881               990.6124              1027.9515
 Red. masses --      2.1603                 1.2840                 2.0884
 Frc consts  --      1.1897                 0.7424                 1.3002
 IR Inten    --      3.2334                 0.8708                13.8933

                     22                     23                     24
                      A                      A                      A
 Frequencies --   1055.6759              1073.9626              1098.6105
 Red. masses --      2.1567                 1.7444                 3.5250
 Frc consts  --      1.4161                 1.1854                 2.5067
 IR Inten    --     15.2488                 6.0553                71.8971

                     25                     26                     27
                      A                      A                      A
 Frequencies --   1123.2731              1189.1956              1198.6557
 Red. masses --      2.0440                 1.1624                 1.5004
 Frc consts  --      1.5195                 0.9685                 1.2701
 IR Inten    --     15.5170                 3.7611                 5.2421

                     28                     29                     30
                      A                      A                      A
 Frequencies --   1222.2927              1229.4532              1269.0439
 Red. masses --      1.3289                 1.3352                 1.2946
 Frc consts  --      1.1698                 1.1891                 1.2284
 IR Inten    --      0.9061                22.2608                 4.2483

                     31                     32                     33
                      A                      A                      A
 Frequencies --   1309.0047              1350.5261              1365.9063
 Red. masses --      1.3387                 1.5555                 1.3116
 Frc consts  --      1.3515                 1.6716                 1.4417
 IR Inten    --      1.6144                 2.6284                 0.8424

                     34                     35                     36
                      A                      A                      A
 Frequencies --   1386.0659              1426.0739              1443.8954
 Red. masses --      1.4455                 1.6616                 1.4690
 Frc consts  --      1.6362                 1.9910                 1.8044
 IR Inten    --      3.4548                22.2780                57.6228

                     37                     38                     39
                      A                      A                      A
 Frequencies --   1462.8088              1477.0341              1484.1870
 Red. masses --      1.6009                 1.3987                 1.1663
 Frc consts  --      2.0183                 1.7979                 1.5137
 IR Inten    --      8.7557                 1.6915                 1.3999

                     40                     41                     42
                      A                      A                      A
 Frequencies --   1506.8420              1709.3115              2953.4792
 Red. masses --      1.1105                 6.7992                 1.0715
 Frc consts  --      1.4856                11.7044                 5.5072
 IR Inten    --      0.2355                 7.9443                64.3494

                     43                     44                     45
                      A                      A                      A
 Frequencies --   3025.9290              3030.2100              3058.0924
 Red. masses --      1.0642                 1.0634                 1.0895
 Frc consts  --      5.7410                 5.7532                 6.0030
 IR Inten    --     21.2278                15.9410                24.7295

                     46                     47                     48
                      A                      A                      A
 Frequencies --   3067.6446              3075.2373              3126.9358
 Red. masses --      1.0942                 1.1016                 1.0879
 Frc consts  --      6.0666                 6.1380                 6.2675
 IR Inten    --     32.1989                23.4747                19.1137

                     49                     50                     51
                      A                      A                      A
 Frequencies --   3153.9665              3176.3188              3749.6811
 Red. masses --      1.0837                 1.0977                 1.0648
 Frc consts  --      6.3512                 6.5249                 8.8205
 IR Inten    --      4.8813                26.2501                34.3801

 - Thermochemistry -
 -------------------
 Temperature   298.150 Kelvin.  Pressure   1.00000 Atm.
 Atom     1 has atomic number  8 and mass  15.99491

 Molecular mass:   126.06808 amu.
 Principal axes and moments of inertia in atomic units:
                           1         2         3
     Eigenvalues --   519.831071387.573961682.85156
           X            0.99981   0.01943   0.00070
           Y           -0.01944   0.99967   0.01653
           Z           -0.00038  -0.01654   0.99986
 This molecule is an asymmetric top.
 Rotational symmetry number  1.
 Warning -- assumption of classical behavior for rotation
           may cause significant error
 Rotational temperatures (Kelvin)      0.16662     0.06242     0.05147
 Rotational constants (GHZ):           3.47178     1.30065     1.07243
 Zero-point vibrational energy     421171.0 (Joules/Mol)
                                  100.66228 (Kcal/Mol)
 Warning -- explicit consideration of  10 degrees of freedom as
           vibrations may cause significant error
 Vibrational temperatures:    166.90   234.36   286.69   349.92   432.83
          (Kelvin)            550.22   562.24   703.10   733.95   796.44
                              919.13   989.78  1026.65  1036.83  1159.78
                             1244.71  1303.84  1357.48  1390.99  1425.27
                             1478.99  1518.88  1545.19  1580.65  1616.14
                             1710.99  1724.60  1758.60  1768.91  1825.87
                             1883.36  1943.10  1965.23  1994.24  2051.80
                             2077.44  2104.65  2125.12  2135.41  2168.01
                             2459.31  4249.39  4353.63  4359.79  4399.91
                             4413.65  4424.58  4498.96  4537.85  4570.01
                             5394.95

 Zero-point correction=                           0.160416 (Hartree/Particle)
 Thermal correction to Energy=                    0.168407
 Thermal correction to Enthalpy=                  0.169351
 Thermal correction to Gibbs Free Energy=         0.128154
 Sum of electronic and zero-point Energies=           -423.023899
 Sum of electronic and thermal Energies=              -423.015908
 Sum of electronic and thermal Enthalpies=            -423.014963
 Sum of electronic and thermal Free Energies=         -423.056160

                     E (Thermal)             CV                S
                      KCal/Mol        Cal/Mol-Kelvin    Cal/Mol-Kelvin
 Total                  105.677             31.543             86.706
 Electronic               0.000              0.000              0.000
 Translational            0.889              2.981             40.409
 Rotational               0.889              2.981             28.586
 Vibrational            103.900             25.581             17.711
 Vibration     1          0.608              1.936              3.166
 Vibration     2          0.623              1.888              2.516
 Vibration     3          0.637              1.841              2.140
 Vibration     4          0.659              1.774              1.779
 Vibration     5          0.693              1.672              1.412
 Vibration     6          0.752              1.508              1.030
 Vibration     7          0.758              1.490              0.997
 Vibration     8          0.845              1.275              0.687
 Vibration     9          0.865              1.228              0.633
 Vibration    10          0.909              1.132              0.537

 Optimization completed.
    -- Stationary point found.
 Normal termination of Gaussian 09 at Tue Jan 28 10:34:59 2020.
