 Gaussian 09, Revision D.01,
 Gaussian 09:  ES64L-G09RevD.01 24-Apr-2013

 -----------------------------
 # b3lyp 6-31G(2df,p) opt Freq
 -----------------------------

 -----
 titel
 -----
 Symbolic Z-matrix:
 Charge =  0 Multiplicity = 1

 SCF Done:  E(RB3LYP) =  -423.160965836     A.U. after   14 cycles
 Optimization completed.
    -- Stationary point found.
 Normal termination of Gaussian 09 at Tue Jan 28 14:08:44 2020.

 ----------------------------------------------------------------------
 #N Geom=AllCheck Guess=TCheck SCRF=Check GenChk RB3LYP/6-31G(2df,p) Fr
 eq
 ----------------------------------------------------------------------

 Structure from the checkpoint file:  "/scratch/puck/g09_9751f818-f084-4f17-ad6b-4972550b1419/Gau-71738.chk"
 -----
 titel
 -----
 Charge =  0 Multiplicity = 1

                         Standard orientation:
 ---------------------------------------------------------------------
 Center     Atomic      Atomic             Coordinates (Angstroms)
 Number     Number       Type             X           Y           Z
 ---------------------------------------------------------------------
      1          6           0       -3.125411   -0.288500   -0.128851
      2          8           0       -1.829362   -0.794190   -0.368658
      3          6           0       -0.821957   -0.179705    0.416955
      4          6           0        0.414080   -1.048614    0.457418
      5          6           0        1.493222   -0.447457   -0.057314
      6          6           0        2.884602   -0.982536   -0.167243
      7          6           0        1.124647    0.936611   -0.501029
      8          8           0        0.676730    1.793246    0.582760
      9          6           0       -0.300805    1.121998   -0.209124
     10          1           0       -3.212186    0.782065   -0.367311
     11          1           0       -3.811234   -0.844514   -0.772474
     12          1           0       -3.426693   -0.429815    0.920692
     13          1           0       -1.203967    0.011836    1.433549
     14          1           0        0.397266   -2.035420    0.906486
     15          1           0        3.586664   -0.379657    0.421880
     16          1           0        2.945937   -2.016949    0.180086
     17          1           0        3.238208   -0.950580   -1.205337
     18          1           0        1.659587    1.450112   -1.295058
     19          1           0       -0.962789    1.749689   -0.800206
 ---------------------------------------------------------------------

 SCF Done:  E(RB3LYP) =  -423.160965836     A.U. after    1 cycles

 The electronic state is 1-A.
 Alpha  occ. eigenvalues --  -19.14779 -19.14208 -10.23639 -10.23405 -10.23092
 Alpha  occ. eigenvalues --  -10.22608 -10.19519 -10.18772 -10.17987  -1.06810
 Alpha  occ. eigenvalues --   -1.03260  -0.82387  -0.74944  -0.68854  -0.66128
 Alpha  occ. eigenvalues --   -0.65598  -0.57692  -0.54268  -0.51419  -0.48635
 Alpha  occ. eigenvalues --   -0.46584  -0.44848  -0.42699  -0.41968  -0.41795
 Alpha  occ. eigenvalues --   -0.39367  -0.38326  -0.36864  -0.35603  -0.32990
 Alpha  occ. eigenvalues --   -0.30110  -0.27602  -0.25398  -0.23716
 Alpha virt. eigenvalues --    0.00122   0.09388   0.10183   0.10875   0.12089
 Alpha virt. eigenvalues --    0.13648   0.13952   0.15311   0.15757   0.16081
 Alpha virt. eigenvalues --    0.17394   0.18161   0.19049   0.20290   0.22220

 Mulliken charges:
               1
     1  C   -0.236566
     2  O   -0.247441
     3  C    0.068118
     4  C   -0.219107
     5  C    0.337840
     6  C   -0.501942
     7  C   -0.062522
     8  O   -0.258946
     9  C    0.003312
    10  H    0.106834
    11  H    0.129016
    12  H    0.108119
    13  H    0.082384
    14  H    0.100400
    15  H    0.137817
    16  H    0.128780
    17  H    0.130059
    18  H    0.094947
    19  H    0.098899
 Sum of Mulliken charges =   0.00000

 Dipole moment (field-independent basis, Debye):
    X=             -0.2277    Y=             -0.5237    Z=             -0.5570  Tot=              0.7977
 Quadrupole moment (field-independent basis, Debye-Ang):
   XX=            -45.6998   YY=            -56.0177   ZZ=            -53.5969
   XY=             -3.2295   XZ=             -2.5618   YZ=             -4.2222

  Exact polarizability: 103.271   0.025  71.678  -5.530  -5.233  59.718
 Approx polarizability: 135.537   7.575 108.648 -10.732  -4.534  95.756

                      1                      2                      3
                      A                      A                      A
 Frequencies --     96.8140               112.2120               165.1987
 Red. masses --      2.6916                 2.6815                 1.3061
 Frc consts  --      0.0149                 0.0199                 0.0210
 IR Inten    --      2.1389                 2.6590                 0.1502

                      4                      5                      6
                      A                      A                      A
 Frequencies --    178.6170               208.9008               285.4808
 Red. masses --      1.0907                 2.8124                 2.8934
 Frc consts  --      0.0205                 0.0723                 0.1389
 IR Inten    --      0.2115                 2.2451                 2.6929

                      7                      8                      9
                      A                      A                      A
 Frequencies --    302.6147               355.9113               426.1559
 Red. masses --      2.9198                 4.0404                 3.7071
 Frc consts  --      0.1575                 0.3015                 0.3967
 IR Inten    --      4.8970                 8.8390                 0.6006

                     10                     11                     12
                      A                      A                      A
 Frequencies --    469.8267               597.0307               619.1468
 Red. masses --      4.9650                 4.3335                 3.6820
 Frc consts  --      0.6457                 0.9101                 0.8316
 IR Inten    --      1.3088                 1.9176                 2.6847

                     13                     14                     15
                      A                      A                      A
 Frequencies --    766.6277               832.0002               853.6039
 Red. masses --      3.5490                 3.6570                 1.6488
 Frc consts  --      1.2289                 1.4915                 0.7078
 IR Inten    --      1.8355                 8.6826                12.3376

                     16                     17                     18
                      A                      A                      A
 Frequencies --    869.5809               895.0597               949.7850
 Red. masses --      2.2553                 3.1007                 3.2257
 Frc consts  --      1.0048                 1.4636                 1.7144
 IR Inten    --     26.2566                14.1073                 0.6840

                     19                     20                     21
                      A                      A                      A
 Frequencies --   1001.7133              1008.8431              1036.2889
 Red. masses --      3.5892                 1.4629                 2.2521
 Frc consts  --      2.1219                 0.8772                 1.4249
 IR Inten    --     28.9345                 9.0937                19.1809

                     22                     23                     24
                      A                      A                      A
 Frequencies --   1052.1672              1070.1833              1112.0066
 Red. masses --      1.5093                 1.6338                 1.4540
 Frc consts  --      0.9845                 1.1025                 1.0594
 IR Inten    --      5.4604                 0.0380                 1.2154

                     25                     26                     27
                      A                      A                      A
 Frequencies --   1135.5550              1182.4579              1195.1722
 Red. masses --      4.4655                 1.2939                 2.2143
 Frc consts  --      3.3926                 1.0659                 1.8635
 IR Inten    --    166.8928                 4.5777                11.4274

                     28                     29                     30
                      A                      A                      A
 Frequencies --   1215.1932              1246.2386              1269.7668
 Red. masses --      1.5129                 1.4989                 1.3209
 Frc consts  --      1.3163                 1.3716                 1.2548
 IR Inten    --     43.1692                13.3311                 0.3407

                     31                     32                     33
                      A                      A                      A
 Frequencies --   1304.4773              1335.9698              1369.0024
 Red. masses --      1.8238                 1.4922                 1.7463
 Frc consts  --      1.8285                 1.5692                 1.9283
 IR Inten    --      1.4869                10.6392                38.0131

                     34                     35                     36
                      A                      A                      A
 Frequencies --   1413.4480              1418.0469              1478.4788
 Red. masses --      1.3042                 3.3546                 1.1025
 Frc consts  --      1.5352                 3.9745                 1.4199
 IR Inten    --      0.5326                 9.9344                 4.1154

                     37                     38                     39
                      A                      A                      A
 Frequencies --   1478.9822              1487.3246              1489.0717
 Red. masses --      1.0656                 1.0634                 1.0651
 Frc consts  --      1.3733                 1.3859                 1.3914
 IR Inten    --      3.2855                10.2549                 3.9316

                     40                     41                     42
                      A                      A                      A
 Frequencies --   1509.8410              1702.9986              2968.0107
 Red. masses --      1.0624                 7.1119                 1.0756
 Frc consts  --      1.4270                12.1525                 5.5824
 IR Inten    --      8.3812                 7.2603                20.2927

                     43                     44                     45
                      A                      A                      A
 Frequencies --   2979.2048              3021.8431              3024.9996
 Red. masses --      1.0421                 1.0379                 1.1027
 Frc consts  --      5.4497                 5.5839                 5.9451
 IR Inten    --     77.5098                24.5037                50.6196

                     46                     47                     48
                      A                      A                      A
 Frequencies --   3070.1030              3116.1773              3116.4223
 Red. masses --      1.0986                 1.0965                 1.0993
 Frc consts  --      6.1011                 6.2737                 6.2903
 IR Inten    --     15.1917                27.4495                18.8774

                     49                     50                     51
                      A                      A                      A
 Frequencies --   3145.7528              3159.7318              3196.1193
 Red. masses --      1.0875                 1.0949                 1.0942
 Frc consts  --      6.3406                 6.4408                 6.5857
 IR Inten    --     19.4560                28.2782                 9.4239

 - Thermochemistry -
 -------------------
 Temperature   298.150 Kelvin.  Pressure   1.00000 Atm.
 Atom     1 has atomic number  6 and mass  12.00000

 Molecular mass:   126.06808 amu.
 Principal axes and moments of inertia in atomic units:
                           1         2         3
     Eigenvalues --   558.016041537.227671919.54018
           X            0.99950  -0.03046  -0.00855
           Y            0.03009   0.99871  -0.04094
           Z            0.00979   0.04067   0.99912
 This molecule is an asymmetric top.
 Rotational symmetry number  1.
 Warning -- assumption of classical behavior for rotation
           may cause significant error
 Rotational temperatures (Kelvin)      0.15522     0.05634     0.04512
 Rotational constants (GHZ):           3.23421     1.17402     0.94019
 Zero-point vibrational energy     414483.1 (Joules/Mol)
                                   99.06383 (Kcal/Mol)
 Warning -- explicit consideration of  12 degrees of freedom as
           vibrations may cause significant error
 Vibrational temperatures:    139.29   161.45   237.68   256.99   300.56
          (Kelvin)            410.74   435.39   512.08   613.14   675.97
                              858.99   890.81  1103.00  1197.06  1228.14
                             1251.13  1287.79  1366.53  1441.24  1451.50
                             1490.99  1513.83  1539.75  1599.93  1633.81
                             1701.29  1719.58  1748.39  1793.06  1826.91
                             1876.85  1922.16  1969.69  2033.63  2040.25
                             2127.20  2127.92  2139.93  2142.44  2172.32
                             2450.23  4270.30  4286.41  4347.75  4352.29
                             4417.19  4483.48  4483.83  4526.03  4546.14
                             4598.50

 Zero-point correction=                           0.157868 (Hartree/Particle)
 Thermal correction to Energy=                    0.166705
 Thermal correction to Enthalpy=                  0.167649
 Thermal correction to Gibbs Free Energy=         0.124249
 Sum of electronic and zero-point Energies=           -423.003098
 Sum of electronic and thermal Energies=              -422.994261
 Sum of electronic and thermal Enthalpies=            -422.993317
 Sum of electronic and thermal Free Energies=         -423.036716

                     E (Thermal)             CV                S
                      KCal/Mol        Cal/Mol-Kelvin    Cal/Mol-Kelvin
 Total                  104.609             32.700             91.342
 Electronic               0.000              0.000              0.000
 Translational            0.889              2.981             40.409
 Rotational               0.889              2.981             28.889
 Vibrational            102.832             26.738             22.045
 Vibration     1          0.603              1.951              3.517
 Vibration     2          0.607              1.939              3.230
 Vibration     3          0.624              1.885              2.489
 Vibration     4          0.629              1.869              2.343
 Vibration     5          0.642              1.827              2.053
 Vibration     6          0.683              1.701              1.501
 Vibration     7          0.694              1.669              1.402
 Vibration     8          0.731              1.563              1.140
 Vibration     9          0.788              1.413              0.871
 Vibration    10          0.827              1.317              0.738
 Vibration    11          0.955              1.038              0.455
 Vibration    12          0.979              0.991              0.418

 Optimization completed.
    -- Stationary point found.
 Normal termination of Gaussian 09 at Tue Jan 28 14:51:21 2020.
