 Gaussian 09, Revision D.01,
 Gaussian 09:  ES64L-G09RevD.01 24-Apr-2013

 -----------------------------
 # b3lyp 6-31G(2df,p) opt Freq
 -----------------------------

 -----
 titel
 -----
 Symbolic Z-matrix:
 Charge =  0 Multiplicity = 1

 SCF Done:  E(RB3LYP) =  -423.185221685     A.U. after   13 cycles
 Optimization completed.
    -- Stationary point found.
 Normal termination of Gaussian 09 at Tue Jan 28 03:23:32 2020.

 ----------------------------------------------------------------------
 #N Geom=AllCheck Guess=TCheck SCRF=Check GenChk RB3LYP/6-31G(2df,p) Fr
 eq
 ----------------------------------------------------------------------

 Structure from the checkpoint file:  "/scratch/puck/g09_4da6014c-39f6-4715-a4d4-fa011480d77d/Gau-115303.chk"
 -----
 titel
 -----
 Charge =  0 Multiplicity = 1

                         Standard orientation:
 ---------------------------------------------------------------------
 Center     Atomic      Atomic             Coordinates (Angstroms)
 Number     Number       Type             X           Y           Z
 ---------------------------------------------------------------------
      1          6           0        2.542474   -0.184369    0.256961
      2          6           0        1.264724    0.011028   -0.569172
      3          6           0        0.562586    1.365438   -0.241630
      4          6           0       -0.875080    1.108405    0.201604
      5          8           0       -1.573465    0.414166   -0.825452
      6          6           0       -1.182897   -0.929458   -0.648734
      7          6           0       -0.722530   -1.043675    0.774016
      8          8           0       -0.870622    0.243010    1.334264
      9          6           0        0.290681   -1.143152   -0.352549
     10          1           0        2.310448   -0.200545    1.327137
     11          1           0        3.040735   -1.126631    0.004091
     12          1           0        3.252252    0.630152    0.077038
     13          1           0        1.542422    0.011686   -1.629673
     14          1           0        1.085170    1.889473    0.565336
     15          1           0        0.550399    2.028101   -1.111996
     16          1           0       -1.427557    2.016284    0.453094
     17          1           0       -1.805116   -1.630831   -1.188233
     18          1           0       -0.951754   -1.841873    1.467179
     19          1           0        0.675949   -2.138523   -0.557452
 ---------------------------------------------------------------------

 SCF Done:  E(RB3LYP) =  -423.185221685     A.U. after    1 cycles

 The electronic state is 1-A.
 Alpha  occ. eigenvalues --  -19.14894 -19.14859 -10.27606 -10.23331 -10.23303
 Alpha  occ. eigenvalues --  -10.19686 -10.19034 -10.18044 -10.17504  -1.09696
 Alpha  occ. eigenvalues --   -0.99593  -0.84729  -0.79867  -0.71318  -0.63704
 Alpha  occ. eigenvalues --   -0.62458  -0.60915  -0.54626  -0.52289  -0.47259
 Alpha  occ. eigenvalues --   -0.46782  -0.43824  -0.43321  -0.43091  -0.40355
 Alpha  occ. eigenvalues --   -0.39277  -0.37315  -0.35970  -0.34696  -0.32933
 Alpha  occ. eigenvalues --   -0.32025  -0.31868  -0.24877  -0.22375
 Alpha virt. eigenvalues --    0.08124   0.10888   0.11726   0.12728   0.13433
 Alpha virt. eigenvalues --    0.14086   0.14535   0.15918   0.16343   0.17100
 Alpha virt. eigenvalues --    0.17405   0.18032   0.19611   0.20698   0.22610

 Mulliken charges:
               1
     1  C   -0.395086
     2  C    0.017870
     3  C   -0.241906
     4  C    0.167869
     5  O   -0.263131
     6  C    0.029446
     7  C    0.044730
     8  O   -0.264649
     9  C   -0.129763
    10  H    0.127172
    11  H    0.108622
    12  H    0.112514
    13  H    0.080664
    14  H    0.104127
    15  H    0.106207
    16  H    0.093204
    17  H    0.108593
    18  H    0.107437
    19  H    0.086080
 Sum of Mulliken charges =   0.00000

 Dipole moment (field-independent basis, Debye):
    X=              1.2066    Y=             -0.7727    Z=             -0.4744  Tot=              1.5093
 Quadrupole moment (field-independent basis, Debye-Ang):
   XX=            -55.0468   YY=            -47.8382   ZZ=            -55.9473
   XY=              1.5998   XZ=             -0.7361   YZ=              0.2893

  Exact polarizability:  76.928   0.199  76.436  -0.175   0.515  64.192
 Approx polarizability: 104.229  -2.209 109.884   0.730   1.166 104.928

                      1                      2                      3
                      A                      A                      A
 Frequencies --     67.8083               250.9330               281.6151
 Red. masses --      3.0837                 1.2098                 1.8680
 Frc consts  --      0.0084                 0.0449                 0.0873
 IR Inten    --      0.2859                 0.0898                 0.3290

                      4                      5                      6
                      A                      A                      A
 Frequencies --    346.7538               383.1228               425.1354
 Red. masses --      4.1295                 2.3871                 4.1106
 Frc consts  --      0.2925                 0.2064                 0.4377
 IR Inten    --      5.3968                 0.0782                 4.8507

                      7                      8                      9
                      A                      A                      A
 Frequencies --    565.8386               593.8615               693.0040
 Red. masses --      3.2476                 6.2080                 4.7164
 Frc consts  --      0.6126                 1.2899                 1.3345
 IR Inten    --      4.4304                 2.0875                 5.7770

                     10                     11                     12
                      A                      A                      A
 Frequencies --    731.4093               748.2709               781.5222
 Red. masses --      4.1687                 3.5733                 2.0557
 Frc consts  --      1.3139                 1.1788                 0.7398
 IR Inten    --      9.4496                10.7840                22.5514

                     13                     14                     15
                      A                      A                      A
 Frequencies --    818.7829               849.6499               876.2533
 Red. masses --      1.9729                 3.5281                 2.3642
 Frc consts  --      0.7793                 1.5006                 1.0695
 IR Inten    --      0.6327                 5.4121                23.3465

                     16                     17                     18
                      A                      A                      A
 Frequencies --    933.0762               944.6538               977.9085
 Red. masses --      2.7595                 1.7100                 2.4972
 Frc consts  --      1.4155                 0.8991                 1.4070
 IR Inten    --     17.2349                20.7232                 8.3734

                     19                     20                     21
                      A                      A                      A
 Frequencies --    999.6825              1017.5399              1047.0895
 Red. masses --      1.9504                 1.8474                 3.1646
 Frc consts  --      1.1484                 1.1269                 2.0443
 IR Inten    --      1.7661                 8.7522                 0.6756

                     22                     23                     24
                      A                      A                      A
 Frequencies --   1071.7579              1074.2479              1105.0174
 Red. masses --      2.1496                 1.5147                 1.7062
 Frc consts  --      1.4548                 1.0299                 1.2275
 IR Inten    --     29.5128                 5.6645                10.8820

                     25                     26                     27
                      A                      A                      A
 Frequencies --   1117.3525              1126.6839              1161.7916
 Red. masses --      2.1160                 2.3910                 2.4962
 Frc consts  --      1.5565                 1.7883                 1.9851
 IR Inten    --      5.6239                 6.2333                84.9177

                     28                     29                     30
                      A                      A                      A
 Frequencies --   1178.7311              1234.2766              1274.6878
 Red. masses --      1.7801                 1.2530                 1.1972
 Frc consts  --      1.4572                 1.1247                 1.1461
 IR Inten    --     28.1928                 0.1868                 0.6257

                     31                     32                     33
                      A                      A                      A
 Frequencies --   1294.9412              1314.2084              1347.5993
 Red. masses --      1.6806                 1.3907                 1.3089
 Frc consts  --      1.6604                 1.4152                 1.4005
 IR Inten    --      4.1447                 4.4281                 1.5217

                     34                     35                     36
                      A                      A                      A
 Frequencies --   1362.1000              1373.7112              1385.1519
 Red. masses --      1.7211                 1.4658                 1.3859
 Frc consts  --      1.8814                 1.6297                 1.5666
 IR Inten    --     28.6453                 8.6174                 3.2007

                     37                     38                     39
                      A                      A                      A
 Frequencies --   1405.9805              1419.1834              1479.2181
 Red. masses --      1.3032                 2.3273                 1.0904
 Frc consts  --      1.5178                 2.7618                 1.4057
 IR Inten    --      5.7815                17.2467                 1.4339

                     40                     41                     42
                      A                      A                      A
 Frequencies --   1495.3270              1500.1228              3024.8131
 Red. masses --      1.0452                 1.0554                 1.0834
 Frc consts  --      1.3770                 1.3993                 5.8401
 IR Inten    --      3.7625                 1.0862                19.3565

                     43                     44                     45
                      A                      A                      A
 Frequencies --   3026.6392              3047.4255              3091.5213
 Red. masses --      1.0350                 1.0609                 1.1035
 Frc consts  --      5.5863                 5.8051                 6.2141
 IR Inten    --     25.8064                19.6271                15.8549

                     46                     47                     48
                      A                      A                      A
 Frequencies --   3096.4624              3097.9659              3103.9406
 Red. masses --      1.1021                 1.0907                 1.1017
 Frc consts  --      6.2261                 6.1678                 6.2539
 IR Inten    --     27.7332                53.8812                33.4108

                     49                     50                     51
                      A                      A                      A
 Frequencies --   3143.3348              3201.3170              3210.5403
 Red. masses --      1.0884                 1.0901                 1.0973
 Frc consts  --      6.3364                 6.5823                 6.6642
 IR Inten    --     14.1263                 8.1114                19.4548

 - Thermochemistry -
 -------------------
 Temperature   298.150 Kelvin.  Pressure   1.00000 Atm.
 Atom     1 has atomic number  6 and mass  12.00000

 Molecular mass:   126.06808 amu.
 Principal axes and moments of inertia in atomic units:
                           1         2         3
     Eigenvalues --   620.235841035.980411162.64715
           X            0.99989   0.01442   0.00327
           Y           -0.01441   0.99989  -0.00224
           Z           -0.00330   0.00219   0.99999
 This molecule is an asymmetric top.
 Rotational symmetry number  1.
 Warning -- assumption of classical behavior for rotation
           may cause significant error
 Rotational temperatures (Kelvin)      0.13965     0.08361     0.07450
 Rotational constants (GHZ):           2.90977     1.74206     1.55227
 Zero-point vibrational energy     425272.2 (Joules/Mol)
                                  101.64250 (Kcal/Mol)
 Warning -- explicit consideration of   8 degrees of freedom as
           vibrations may cause significant error
 Vibrational temperatures:     97.56   361.04   405.18   498.90   551.23
          (Kelvin)            611.67   814.11   854.43   997.08  1052.33
                             1076.59  1124.43  1178.04  1222.46  1260.73
                             1342.49  1359.14  1406.99  1438.32  1464.01
                             1506.53  1542.02  1545.60  1589.87  1607.62
                             1621.04  1671.56  1695.93  1775.85  1833.99
                             1863.13  1890.85  1938.89  1959.76  1976.46
                             1992.92  2022.89  2041.89  2128.26  2151.44
                             2158.34  4352.03  4354.65  4384.56  4448.00
                             4455.11  4457.28  4465.87  4522.55  4605.98
                             4619.25

 Zero-point correction=                           0.161978 (Hartree/Particle)
 Thermal correction to Energy=                    0.168960
 Thermal correction to Enthalpy=                  0.169905
 Thermal correction to Gibbs Free Energy=         0.130521
 Sum of electronic and zero-point Energies=           -423.023244
 Sum of electronic and thermal Energies=              -423.016261
 Sum of electronic and thermal Enthalpies=            -423.015317
 Sum of electronic and thermal Free Energies=         -423.054701

                     E (Thermal)             CV                S
                      KCal/Mol        Cal/Mol-Kelvin    Cal/Mol-Kelvin
 Total                  106.024             28.582             82.891
 Electronic               0.000              0.000              0.000
 Translational            0.889              2.981             40.409
 Rotational               0.889              2.981             28.104
 Vibrational            104.247             22.620             14.378
 Vibration     1          0.598              1.970              4.216
 Vibration     2          0.663              1.761              1.724
 Vibration     3          0.681              1.708              1.524
 Vibration     4          0.725              1.582              1.181
 Vibration     5          0.752              1.506              1.027
 Vibration     6          0.787              1.416              0.875
 Vibration     7          0.922              1.105              0.512
 Vibration     8          0.951              1.045              0.460

 Optimization completed.
    -- Stationary point found.
 Normal termination of Gaussian 09 at Tue Jan 28 04:09:55 2020.
