 Gaussian 09, Revision D.01,
 Gaussian 09:  ES64L-G09RevD.01 24-Apr-2013

 -----------------------------
 # b3lyp 6-31G(2df,p) opt Freq
 -----------------------------

 -----
 titel
 -----
 Symbolic Z-matrix:
 Charge =  0 Multiplicity = 1

 SCF Done:  E(RB3LYP) =  -423.202611341     A.U. after   14 cycles
 Optimization completed.
    -- Stationary point found.
 Normal termination of Gaussian 09 at Mon Jan 27 17:15:30 2020.

 ----------------------------------------------------------------------
 #N Geom=AllCheck Guess=TCheck SCRF=Check GenChk RB3LYP/6-31G(2df,p) Fr
 eq
 ----------------------------------------------------------------------

 Structure from the checkpoint file:  "/scratch/puck/g09_d3af1cfa-5d2f-44f5-98a1-0a3df70cf05a/Gau-60021.chk"
 -----
 titel
 -----
 Charge =  0 Multiplicity = 1

                         Standard orientation:
 ---------------------------------------------------------------------
 Center     Atomic      Atomic             Coordinates (Angstroms)
 Number     Number       Type             X           Y           Z
 ---------------------------------------------------------------------
      1          6           0       -2.150329   -0.964325    0.233149
      2          6           0       -0.746529   -0.436077    0.077762
      3          6           0        0.196454   -1.271643   -0.822888
      4          6           0        1.665249   -1.014276   -0.411542
      5          6           0        1.914235    0.445769    0.036269
      6          6           0        0.649799    0.951979    0.760623
      7          8           0       -0.060472   -0.175551    1.353056
      8          6           0       -0.495766    1.045011   -0.251025
      9          8           0       -1.018151    1.887632   -0.915890
     10          1           0       -2.748354   -0.304806    0.866617
     11          1           0       -2.630452   -1.034683   -0.747818
     12          1           0       -2.135617   -1.963256    0.680669
     13          1           0       -0.038732   -2.337337   -0.725192
     14          1           0        0.015496   -1.002180   -1.870550
     15          1           0        1.893656   -1.666181    0.434439
     16          1           0        2.346996   -1.291610   -1.220353
     17          1           0        2.783711    0.492604    0.699130
     18          1           0        2.125091    1.104126   -0.815036
     19          1           0        0.818515    1.768044    1.466680
 ---------------------------------------------------------------------

 SCF Done:  E(RB3LYP) =  -423.202611341     A.U. after    1 cycles

 The electronic state is 1-A.
 Alpha  occ. eigenvalues --  -19.14661 -19.14517 -10.27010 -10.24609 -10.24134
 Alpha  occ. eigenvalues --  -10.19606 -10.19499 -10.19243 -10.18626  -1.06618
 Alpha  occ. eigenvalues --   -1.03910  -0.80700  -0.78120  -0.71907  -0.68851
 Alpha  occ. eigenvalues --   -0.61523  -0.59679  -0.50151  -0.49867  -0.48958
 Alpha  occ. eigenvalues --   -0.46567  -0.44554  -0.43251  -0.40641  -0.39863
 Alpha  occ. eigenvalues --   -0.39382  -0.39191  -0.37550  -0.36132  -0.34412
 Alpha  occ. eigenvalues --   -0.34002  -0.32186  -0.26007  -0.24320
 Alpha virt. eigenvalues --   -0.01754   0.06744   0.09457   0.11411   0.12389
 Alpha virt. eigenvalues --    0.13099   0.14483   0.14840   0.15990   0.16761
 Alpha virt. eigenvalues --    0.17759   0.18080   0.19320   0.20668   0.21905

 Mulliken charges:
               1
     1  C   -0.477096
     2  C    0.282487
     3  C   -0.267833
     4  C   -0.187898
     5  C   -0.238629
     6  C   -0.030949
     7  O   -0.330126
     8  C    0.389209
     9  O   -0.313111
    10  H    0.133829
    11  H    0.135432
    12  H    0.130012
    13  H    0.106426
    14  H    0.116278
    15  H    0.121723
    16  H    0.100722
    17  H    0.111219
    18  H    0.117193
    19  H    0.101112
 Sum of Mulliken charges =   0.00000

 Dipole moment (field-independent basis, Debye):
    X=              1.2784    Y=             -1.6247    Z=             -0.1606  Tot=              2.0736
 Quadrupole moment (field-independent basis, Debye-Ang):
   XX=            -50.8445   YY=            -55.3668   ZZ=            -55.7773
   XY=              3.9173   XZ=             -1.1063   YZ=              4.3335

  Exact polarizability:  81.675   2.236  76.551   2.281   1.167  65.749
 Approx polarizability: 108.282  -0.671 113.664   6.434  -5.744 107.734

                      1                      2                      3
                      A                      A                      A
 Frequencies --    117.5471               164.4832               184.5348
 Red. masses --      4.9235                 1.1362                 1.9188
 Frc consts  --      0.0401                 0.0181                 0.0385
 IR Inten    --      4.2091                 0.5741                 0.4271

                      4                      5                      6
                      A                      A                      A
 Frequencies --    218.9847               255.9516               299.3297
 Red. masses --      2.1138                 2.6785                 2.8439
 Frc consts  --      0.0597                 0.1034                 0.1501
 IR Inten    --      1.2245                 2.2144                 0.7428

                      7                      8                      9
                      A                      A                      A
 Frequencies --    440.3065               448.9075               506.4605
 Red. masses --      3.9423                 4.2158                 4.0149
 Frc consts  --      0.4503                 0.5005                 0.6068
 IR Inten    --      7.6227                 3.7653                 1.9911

                     10                     11                     12
                      A                      A                      A
 Frequencies --    546.2158               685.4755               710.1728
 Red. masses --      3.4596                 3.2836                 2.3575
 Frc consts  --      0.6081                 0.9091                 0.7005
 IR Inten    --      2.3283                 0.8981                 1.9640

                     13                     14                     15
                      A                      A                      A
 Frequencies --    738.6701               819.4163               852.5627
 Red. masses --      2.9033                 3.8144                 2.2910
 Frc consts  --      0.9333                 1.5090                 0.9811
 IR Inten    --      0.8125                15.9652                 2.2781

                     16                     17                     18
                      A                      A                      A
 Frequencies --    868.6394               880.9925               918.9035
 Red. masses --      2.2572                 2.1988                 2.5569
 Frc consts  --      1.0034                 1.0055                 1.2720
 IR Inten    --      4.0666                17.2201                 8.0084

                     19                     20                     21
                      A                      A                      A
 Frequencies --    928.5233               983.5957              1033.3147
 Red. masses --      4.1461                 2.0773                 1.7951
 Frc consts  --      2.1061                 1.1841                 1.1293
 IR Inten    --     55.3823                33.1177                 3.5407

                     22                     23                     24
                      A                      A                      A
 Frequencies --   1046.2912              1075.5408              1086.4620
 Red. masses --      2.3228                 1.9659                 1.4164
 Frc consts  --      1.4982                 1.3399                 0.9851
 IR Inten    --      1.2699                 6.7605                 3.8538

                     25                     26                     27
                      A                      A                      A
 Frequencies --   1146.2577              1201.6429              1213.5457
 Red. masses --      1.9496                 2.0970                 1.6541
 Frc consts  --      1.5092                 1.7840                 1.4352
 IR Inten    --      8.9846                11.1760                 4.4131

                     28                     29                     30
                      A                      A                      A
 Frequencies --   1223.0615              1275.8691              1292.1678
 Red. masses --      1.8053                 1.7370                 1.4511
 Frc consts  --      1.5911                 1.6660                 1.4276
 IR Inten    --      3.9234                 2.1955                 0.4328

                     31                     32                     33
                      A                      A                      A
 Frequencies --   1309.5005              1344.5587              1367.8204
 Red. masses --      1.4811                 1.3914                 1.5620
 Frc consts  --      1.4964                 1.4821                 1.7219
 IR Inten    --      3.1038                 1.1095                 2.8671

                     34                     35                     36
                      A                      A                      A
 Frequencies --   1376.5518              1404.8160              1476.0335
 Red. masses --      1.3752                 1.3214                 1.0594
 Frc consts  --      1.5354                 1.5365                 1.3599
 IR Inten    --      1.6122                 7.1695                 4.1306

                     37                     38                     39
                      A                      A                      A
 Frequencies --   1483.9387              1487.8110              1490.7233
 Red. masses --      1.0740                 1.0782                 1.0539
 Frc consts  --      1.3934                 1.4062                 1.3799
 IR Inten    --      1.4391                 2.8236                 4.1720

                     40                     41                     42
                      A                      A                      A
 Frequencies --   1501.1475              1912.7784              3030.4935
 Red. masses --      1.0932                12.5564                 1.0587
 Frc consts  --      1.4514                27.0674                 5.7285
 IR Inten    --      2.2849               266.5461                21.7460

                     43                     44                     45
                      A                      A                      A
 Frequencies --   3037.1834              3041.7828              3063.0694
 Red. masses --      1.0611                 1.0358                 1.0764
 Frc consts  --      5.7672                 5.6468                 5.9502
 IR Inten    --     23.9904                17.0579                12.5844

                     46                     47                     48
                      A                      A                      A
 Frequencies --   3070.8690              3078.7370              3096.5828
 Red. masses --      1.0902                 1.0995                 1.0898
 Frc consts  --      6.0576                 6.1404                 6.1567
 IR Inten    --     26.2689                18.5011                29.1284

                     49                     50                     51
                      A                      A                      A
 Frequencies --   3111.2138              3112.7738              3127.1111
 Red. masses --      1.1038                 1.1011                 1.1020
 Frc consts  --      6.2951                 6.2859                 6.3490
 IR Inten    --     16.1797                22.9566                12.9991

 - Thermochemistry -
 -------------------
 Temperature   298.150 Kelvin.  Pressure   1.00000 Atm.
 Atom     1 has atomic number  6 and mass  12.00000

 Molecular mass:   126.06808 amu.
 Principal axes and moments of inertia in atomic units:
                           1         2         3
     Eigenvalues --   788.23128 994.301791270.36051
           X            0.99285   0.11842  -0.01504
           Y           -0.11707   0.99058   0.07109
           Z            0.02332  -0.06882   0.99736
 This molecule is an asymmetric top.
 Rotational symmetry number  1.
 Warning -- assumption of classical behavior for rotation
           may cause significant error
 Rotational temperatures (Kelvin)      0.10988     0.08711     0.06818
 Rotational constants (GHZ):           2.28961     1.81508     1.42065
 Zero-point vibrational energy     419227.2 (Joules/Mol)
                                  100.19772 (Kcal/Mol)
 Warning -- explicit consideration of  10 degrees of freedom as
           vibrations may cause significant error
 Vibrational temperatures:    169.12   236.65   265.50   315.07   368.26
          (Kelvin)            430.67   633.50   645.88   728.68   785.88
                              986.25  1021.78  1062.78  1178.96  1226.65
                             1249.78  1267.55  1322.10  1335.94  1415.17
                             1486.71  1505.38  1547.46  1563.17  1649.21
                             1728.89  1746.02  1759.71  1835.69  1859.14
                             1884.08  1934.52  1967.99  1980.55  2021.21
                             2123.68  2135.05  2140.63  2144.82  2159.81
                             2752.06  4360.20  4369.82  4376.44  4407.07
                             4418.29  4429.61  4455.29  4476.34  4478.58
                             4499.21

 Zero-point correction=                           0.159675 (Hartree/Particle)
 Thermal correction to Energy=                    0.167792
 Thermal correction to Enthalpy=                  0.168736
 Thermal correction to Gibbs Free Energy=         0.127299
 Sum of electronic and zero-point Energies=           -423.042936
 Sum of electronic and thermal Energies=              -423.034819
 Sum of electronic and thermal Enthalpies=            -423.033875
 Sum of electronic and thermal Free Energies=         -423.075312

                     E (Thermal)             CV                S
                      KCal/Mol        Cal/Mol-Kelvin    Cal/Mol-Kelvin
 Total                  105.291             31.454             87.212
 Electronic               0.000              0.000              0.000
 Translational            0.889              2.981             40.409
 Rotational               0.889              2.981             28.389
 Vibrational            103.514             25.492             18.414
 Vibration     1          0.608              1.935              3.140
 Vibration     2          0.623              1.886              2.498
 Vibration     3          0.631              1.861              2.282
 Vibration     4          0.647              1.812              1.967
 Vibration     5          0.666              1.753              1.689
 Vibration     6          0.692              1.675              1.421
 Vibration     7          0.800              1.382              0.826
 Vibration     8          0.808              1.363              0.799
 Vibration     9          0.862              1.236              0.642
 Vibration    10          0.901              1.148              0.552

 Optimization completed.
    -- Stationary point found.
 Normal termination of Gaussian 09 at Mon Jan 27 17:59:58 2020.
