 Gaussian 09, Revision D.01,
 Gaussian 09:  ES64L-G09RevD.01 24-Apr-2013

 -----------------------------
 # b3lyp 6-31G(2df,p) opt Freq
 -----------------------------

 -----
 titel
 -----
 Symbolic Z-matrix:
 Charge =  0 Multiplicity = 1

 SCF Done:  E(RB3LYP) =  -423.245582576     A.U. after   14 cycles
 Optimization completed.
    -- Stationary point found.
 Normal termination of Gaussian 09 at Tue Jan 28 03:56:58 2020.

 ----------------------------------------------------------------------
 #N Geom=AllCheck Guess=TCheck SCRF=Check GenChk RB3LYP/6-31G(2df,p) Fr
 eq
 ----------------------------------------------------------------------

 Structure from the checkpoint file:  "/scratch/puck/g09_2ce3e8a8-41e7-4f11-ac43-012685e56f5c/Gau-3137.chk"
 -----
 titel
 -----
 Charge =  0 Multiplicity = 1

                         Standard orientation:
 ---------------------------------------------------------------------
 Center     Atomic      Atomic             Coordinates (Angstroms)
 Number     Number       Type             X           Y           Z
 ---------------------------------------------------------------------
      1          6           0       -1.372647   -1.429579    1.066718
      2          6           0       -1.041353   -0.771818   -0.287519
      3          6           0        0.238719   -1.330457   -0.906644
      4          8           0        1.414853   -0.925844   -0.194336
      5          6           0        1.553039    0.398639    0.100668
      6          8           0        2.619132    0.812026    0.478194
      7          6           0        0.343201    1.238700   -0.014029
      8          6           0       -0.887809    0.729857   -0.159418
      9          6           0       -2.126410    1.574756   -0.173241
     10          1           0       -1.569402   -2.498155    0.934176
     11          1           0       -0.536280   -1.319152    1.762178
     12          1           0       -2.258303   -0.980541    1.524989
     13          1           0       -1.861638   -0.984433   -0.985887
     14          1           0        0.250825   -2.423233   -0.886678
     15          1           0        0.325360   -1.001927   -1.950559
     16          1           0        0.519823    2.301077    0.112530
     17          1           0       -2.655198    1.469326   -1.128931
     18          1           0       -2.828865    1.255260    0.606173
     19          1           0       -1.898642    2.631741   -0.018070
 ---------------------------------------------------------------------

 SCF Done:  E(RB3LYP) =  -423.245582576     A.U. after    1 cycles

 The electronic state is 1-A.
 Alpha  occ. eigenvalues --  -19.17083 -19.10972 -10.29598 -10.24673 -10.22133
 Alpha  occ. eigenvalues --  -10.21293 -10.20137 -10.19297 -10.19236  -1.08648
 Alpha  occ. eigenvalues --   -1.00593  -0.84827  -0.77847  -0.72442  -0.70725
 Alpha  occ. eigenvalues --   -0.63715  -0.59239  -0.52292  -0.51256  -0.49721
 Alpha  occ. eigenvalues --   -0.46484  -0.44061  -0.42857  -0.42166  -0.41400
 Alpha  occ. eigenvalues --   -0.41020  -0.40161  -0.38302  -0.37392  -0.35355
 Alpha  occ. eigenvalues --   -0.32261  -0.28590  -0.26918  -0.25709
 Alpha virt. eigenvalues --   -0.03925   0.06862   0.08392   0.11023   0.11455
 Alpha virt. eigenvalues --    0.12059   0.12977   0.13869   0.15514   0.15757
 Alpha virt. eigenvalues --    0.16514   0.17818   0.19814   0.21118   0.22098

 Mulliken charges:
               1
     1  C   -0.397814
     2  C   -0.097664
     3  C   -0.089802
     4  O   -0.239913
     5  C    0.417195
     6  O   -0.342228
     7  C   -0.296372
     8  C    0.306070
     9  C   -0.484754
    10  H    0.121722
    11  H    0.143952
    12  H    0.121136
    13  H    0.085361
    14  H    0.118718
    15  H    0.110692
    16  H    0.112566
    17  H    0.136575
    18  H    0.139054
    19  H    0.135505
 Sum of Mulliken charges =   0.00000

 Dipole moment (field-independent basis, Debye):
    X=             -5.1168    Y=             -0.5989    Z=             -1.2737  Tot=              5.3069
 Quadrupole moment (field-independent basis, Debye-Ang):
   XX=            -62.4517   YY=            -50.5562   ZZ=            -52.3445
   XY=             -1.9332   XZ=             -2.0438   YZ=              0.2133

  Exact polarizability:  97.455   5.140  80.544   3.447   2.492  59.521
 Approx polarizability: 155.410  16.023 114.088  12.097   6.019  90.226

                      1                      2                      3
                      A                      A                      A
 Frequencies --     94.1941               146.0985               198.7608
 Red. masses --      4.2375                 1.5886                 1.6788
 Frc consts  --      0.0222                 0.0200                 0.0391
 IR Inten    --      0.8885                 0.3465                 0.5952

                      4                      5                      6
                      A                      A                      A
 Frequencies --    207.5839               220.9199               251.8737
 Red. masses --      2.6055                 1.2117                 2.7511
 Frc consts  --      0.0662                 0.0348                 0.1028
 IR Inten    --      2.6351                 0.3507                 0.5563

                      7                      8                      9
                      A                      A                      A
 Frequencies --    299.2825               364.2382               446.0126
 Red. masses --      2.7340                 2.0556                 5.7761
 Frc consts  --      0.1443                 0.1607                 0.6770
 IR Inten    --      2.0265                 0.4043                 0.2934

                     10                     11                     12
                      A                      A                      A
 Frequencies --    496.0411               552.8870               594.3684
 Red. masses --      5.1856                 4.3776                 3.2960
 Frc consts  --      0.7518                 0.7884                 0.6860
 IR Inten    --      3.1364                 4.6567                 3.8795

                     13                     14                     15
                      A                      A                      A
 Frequencies --    698.2035               745.8941               809.4657
 Red. masses --      4.7680                 3.2539                 2.4789
 Frc consts  --      1.3695                 1.0666                 0.9570
 IR Inten    --      5.1392                 2.5848                 1.1908

                     16                     17                     18
                      A                      A                      A
 Frequencies --    852.9348               894.4406               903.6440
 Red. masses --      3.4191                 2.2660                 1.5991
 Frc consts  --      1.4655                 1.0681                 0.7693
 IR Inten    --     19.2306                 4.4901                23.4012

                     19                     20                     21
                      A                      A                      A
 Frequencies --    969.8992              1002.0718              1035.6800
 Red. masses --      1.7170                 1.5881                 1.7786
 Frc consts  --      0.9517                 0.9396                 1.1240
 IR Inten    --      6.8281                18.1357                13.7068

                     22                     23                     24
                      A                      A                      A
 Frequencies --   1054.2373              1098.8760              1135.1552
 Red. masses --      1.5250                 2.3426                 2.9033
 Frc consts  --      0.9986                 1.6667                 2.2042
 IR Inten    --      3.6226                19.5473                21.4800

                     25                     26                     27
                      A                      A                      A
 Frequencies --   1146.9137              1164.0147              1229.5420
 Red. masses --      2.3662                 2.2040                 2.0363
 Frc consts  --      1.8338                 1.7595                 1.8137
 IR Inten    --      2.3031                41.4178               103.1437

                     28                     29                     30
                      A                      A                      A
 Frequencies --   1284.3432              1314.4289              1339.1087
 Red. masses --      1.2194                 1.5269                 1.4345
 Frc consts  --      1.1851                 1.5543                 1.5156
 IR Inten    --     31.9422                23.0859                 9.2028

                     31                     32                     33
                      A                      A                      A
 Frequencies --   1371.9539              1404.2184              1413.1306
 Red. masses --      2.1656                 1.2618                 1.2882
 Frc consts  --      2.4016                 1.4660                 1.5156
 IR Inten    --     12.8310                11.5508                 3.9989

                     34                     35                     36
                      A                      A                      A
 Frequencies --   1431.2068              1477.2211              1481.3535
 Red. masses --      1.3509                 1.0460                 1.0668
 Frc consts  --      1.6304                 1.3448                 1.3793
 IR Inten    --     12.5697                 7.9144                 7.3457

                     37                     38                     39
                      A                      A                      A
 Frequencies --   1494.5016              1500.2916              1506.1642
 Red. masses --      1.0542                 1.0651                 1.0819
 Frc consts  --      1.3873                 1.4125                 1.4461
 IR Inten    --      7.1439                 8.0957                 4.5659

                     40                     41                     42
                      A                      A                      A
 Frequencies --   1703.1338              1825.4462              3015.1828
 Red. masses --      7.2742                12.0524                 1.0737
 Frc consts  --     12.4317                23.6626                 5.7514
 IR Inten    --     25.4056               393.9534                 9.0102

                     43                     44                     45
                      A                      A                      A
 Frequencies --   3023.8511              3029.2432              3042.7784
 Red. masses --      1.0414                 1.0717                 1.0355
 Frc consts  --      5.6103                 5.7941                 5.6489
 IR Inten    --     17.5563                55.8544                18.5384

                     46                     47                     48
                      A                      A                      A
 Frequencies --   3073.4709              3097.8025              3111.3809
 Red. masses --      1.0975                 1.0993                 1.1010
 Frc consts  --      6.1083                 6.2153                 6.2799
 IR Inten    --     13.4574                21.5948                28.2357

                     49                     50                     51
                      A                      A                      A
 Frequencies --   3123.6412              3125.4058              3196.6811
 Red. masses --      1.1001                 1.1018                 1.0916
 Frc consts  --      6.3243                 6.3413                 6.5721
 IR Inten    --     10.9242                20.1148                 4.4708

 - Thermochemistry -
 -------------------
 Temperature   298.150 Kelvin.  Pressure   1.00000 Atm.
 Atom     1 has atomic number  6 and mass  12.00000

 Molecular mass:   126.06808 amu.
 Principal axes and moments of inertia in atomic units:
                           1         2         3
     Eigenvalues --   748.784481231.314151672.14055
           X            0.99960  -0.02499  -0.01323
           Y            0.02481   0.99960  -0.01381
           Z            0.01357   0.01347   0.99982
 This molecule is an asymmetric top.
 Rotational symmetry number  1.
 Warning -- assumption of classical behavior for rotation
           may cause significant error
 Rotational temperatures (Kelvin)      0.11567     0.07034     0.05180
 Rotational constants (GHZ):           2.41023     1.46570     1.07930
 Zero-point vibrational energy     418688.0 (Joules/Mol)
                                  100.06884 (Kcal/Mol)
 Warning -- explicit consideration of  12 degrees of freedom as
           vibrations may cause significant error
 Vibrational temperatures:    135.52   210.20   285.97   298.67   317.85
          (Kelvin)            362.39   430.60   524.06   641.71   713.69
                              795.48   855.16  1004.56  1073.17  1164.64
                             1227.18  1286.90  1300.14  1395.47  1441.76
                             1490.11  1516.81  1581.04  1633.23  1650.15
                             1674.76  1769.03  1847.88  1891.17  1926.68
                             1973.93  2020.35  2033.18  2059.18  2125.39
                             2131.33  2150.25  2158.58  2167.03  2450.43
                             2626.41  4338.17  4350.64  4358.40  4377.87
                             4422.03  4457.04  4476.58  4494.22  4496.76
                             4599.31

 Zero-point correction=                           0.159470 (Hartree/Particle)
 Thermal correction to Energy=                    0.168224
 Thermal correction to Enthalpy=                  0.169168
 Thermal correction to Gibbs Free Energy=         0.126197
 Sum of electronic and zero-point Energies=           -423.086113
 Sum of electronic and thermal Energies=              -423.077359
 Sum of electronic and thermal Enthalpies=            -423.076415
 Sum of electronic and thermal Free Energies=         -423.119386

                     E (Thermal)             CV                S
                      KCal/Mol        Cal/Mol-Kelvin    Cal/Mol-Kelvin
 Total                  105.562             32.798             90.440
 Electronic               0.000              0.000              0.000
 Translational            0.889              2.981             40.409
 Rotational               0.889              2.981             28.824
 Vibrational            103.784             26.837             21.208
 Vibration     1          0.603              1.953              3.571
 Vibration     2          0.617              1.907              2.722
 Vibration     3          0.637              1.842              2.145
 Vibration     4          0.641              1.829              2.065
 Vibration     5          0.648              1.809              1.952
 Vibration     6          0.664              1.760              1.717
 Vibration     7          0.692              1.675              1.421
 Vibration     8          0.738              1.546              1.104
 Vibration     9          0.805              1.370              0.808
 Vibration    10          0.852              1.259              0.668
 Vibration    11          0.908              1.133              0.538
 Vibration    12          0.952              1.044              0.459

 Normal termination of Gaussian 09 at Tue Jan 28 04:42:00 2020.
