 Gaussian 09, Revision D.01,
 Gaussian 09:  ES64L-G09RevD.01 24-Apr-2013

 -----------------------------
 # b3lyp 6-31G(2df,p) opt Freq
 -----------------------------

 -----
 titel
 -----
 Symbolic Z-matrix:
 Charge =  0 Multiplicity = 1

 SCF Done:  E(RB3LYP) =  -423.137795461     A.U. after   14 cycles
 Optimization completed.
    -- Stationary point found.
 Normal termination of Gaussian 09 at Mon Jan 27 14:00:17 2020.

 ----------------------------------------------------------------------
 #N Geom=AllCheck Guess=TCheck SCRF=Check GenChk RB3LYP/6-31G(2df,p) Fr
 eq
 ----------------------------------------------------------------------

 Structure from the checkpoint file:  "/scratch/puck/g09_4dd2ab32-d548-41ea-be73-2cbbced42d65/Gau-49871.chk"
 -----
 titel
 -----
 Charge =  0 Multiplicity = 1

                         Standard orientation:
 ---------------------------------------------------------------------
 Center     Atomic      Atomic             Coordinates (Angstroms)
 Number     Number       Type             X           Y           Z
 ---------------------------------------------------------------------
      1          6           0        3.933852    0.120153   -0.191236
      2          6           0        2.487172    0.061289   -0.045910
      3          6           0        1.287211    0.025348    0.071581
      4          6           0       -0.134976   -0.055170    0.221336
      5          8           0       -0.596527   -0.368803    1.525522
      6          6           0       -1.071715    0.853846   -0.566158
      7          6           0       -2.275139    1.493079    0.088104
      8          6           0       -1.030629   -0.627167   -0.878793
      9          8           0       -2.062627   -1.462439   -0.468721
     10          1           0        4.409593    0.474242    0.730027
     11          1           0        4.358114   -0.861321   -0.430669
     12          1           0        4.218766    0.809851   -0.993484
     13          1           0        0.013068   -1.022429    1.886795
     14          1           0       -0.549359    1.482658   -1.281737
     15          1           0       -2.817860    0.782577    0.712833
     16          1           0       -1.981536    2.340960    0.714390
     17          1           0       -2.966014    1.858730   -0.678392
     18          1           0       -0.572997   -0.956457   -1.806243
     19          1           0       -2.013188   -1.487136    0.498536
 ---------------------------------------------------------------------

 SCF Done:  E(RB3LYP) =  -423.137795461     A.U. after    1 cycles

 The electronic state is 1-A.
 Alpha  occ. eigenvalues --  -19.16292 -19.13514 -10.25616 -10.23127 -10.20940
 Alpha  occ. eigenvalues --  -10.19028 -10.18350 -10.17475 -10.17405  -1.05258
 Alpha  occ. eigenvalues --   -1.01480  -0.84581  -0.78035  -0.72306  -0.69624
 Alpha  occ. eigenvalues --   -0.61685  -0.57819  -0.56049  -0.51265  -0.46466
 Alpha  occ. eigenvalues --   -0.45583  -0.43623  -0.43174  -0.42897  -0.41487
 Alpha  occ. eigenvalues --   -0.38888  -0.38372  -0.35782  -0.34875  -0.33683
 Alpha  occ. eigenvalues --   -0.29265  -0.26910  -0.24308  -0.22257
 Alpha virt. eigenvalues --    0.02658   0.04955   0.08198   0.10594   0.11393
 Alpha virt. eigenvalues --    0.12136   0.14979   0.15507   0.16804   0.17387
 Alpha virt. eigenvalues --    0.18430   0.19270   0.20030   0.20303   0.21682

 Mulliken charges:
               1
     1  C   -0.503397
     2  C    0.129786
     3  C   -0.003372
     4  C    0.127745
     5  O   -0.474729
     6  C   -0.109536
     7  C   -0.400741
     8  C    0.060546
     9  O   -0.431167
    10  H    0.152057
    11  H    0.149126
    12  H    0.153626
    13  H    0.292653
    14  H    0.096014
    15  H    0.126689
    16  H    0.121754
    17  H    0.120350
    18  H    0.105203
    19  H    0.287391
 Sum of Mulliken charges =   0.00000

 Dipole moment (field-independent basis, Debye):
    X=              2.4649    Y=              0.1735    Z=              0.5335  Tot=              2.5280
 Quadrupole moment (field-independent basis, Debye-Ang):
   XX=            -48.5840   YY=            -53.1578   ZZ=            -51.6685
   XY=             -2.7082   XZ=             -1.7270   YZ=             -4.4346

  Exact polarizability: 119.070  -1.282  66.605  -1.310  -1.679  64.712
 Approx polarizability: 164.115   3.112  96.000  -2.738  -2.686  97.848

                      1                      2                      3
                      A                      A                      A
 Frequencies --     20.4551                85.2168                91.3012
 Red. masses --      1.0235                 3.6169                 3.1210
 Frc consts  --      0.0003                 0.0155                 0.0153
 IR Inten    --      0.0242                 0.3613                 0.8561

                      4                      5                      6
                      A                      A                      A
 Frequencies --    105.6531               187.5146               218.1610
 Red. masses --      1.0895                 3.9213                 4.2452
 Frc consts  --      0.0072                 0.0812                 0.1190
 IR Inten    --      0.7174                 4.5461                 2.2199

                      7                      8                      9
                      A                      A                      A
 Frequencies --    261.8958               266.0239               292.3237
 Red. masses --      3.3924                 1.8779                 1.8533
 Frc consts  --      0.1371                 0.0783                 0.0933
 IR Inten    --     13.7937                62.4882                24.9918

                     10                     11                     12
                      A                      A                      A
 Frequencies --    326.2236               397.0781               428.8209
 Red. masses --      4.1933                 3.6158                 6.4209
 Frc consts  --      0.2629                 0.3359                 0.6957
 IR Inten    --      8.0927                 8.8511                 1.4270

                     13                     14                     15
                      A                      A                      A
 Frequencies --    512.1389               546.0826               576.2443
 Red. masses --      1.0678                 6.4296                 3.5560
 Frc consts  --      0.1650                 1.1297                 0.6957
 IR Inten    --     80.5110                14.0436                 0.1010

                     16                     17                     18
                      A                      A                      A
 Frequencies --    628.3362               685.2674               791.2666
 Red. masses --      3.5192                 5.1357                 3.1033
 Frc consts  --      0.8186                 1.4209                 1.1448
 IR Inten    --      3.4573                16.8335                11.4981

                     19                     20                     21
                      A                      A                      A
 Frequencies --    839.7247               934.8839               995.5573
 Red. masses --      2.9784                 4.3974                 1.6353
 Frc consts  --      1.2374                 2.2645                 0.9549
 IR Inten    --     29.4829                14.7782                32.6768

                     22                     23                     24
                      A                      A                      A
 Frequencies --   1010.7749              1050.2635              1054.1175
 Red. masses --      1.4615                 1.4212                 1.3878
 Frc consts  --      0.8798                 0.9237                 0.9086
 IR Inten    --     24.1337                 2.6349                 1.7813

                     25                     26                     27
                      A                      A                      A
 Frequencies --   1063.6094              1131.8608              1144.1813
 Red. masses --      1.5393                 1.8311                 2.9273
 Frc consts  --      1.0260                 1.3821                 2.2579
 IR Inten    --     14.0876                 2.7877                20.5289

                     28                     29                     30
                      A                      A                      A
 Frequencies --   1150.4373              1222.2001              1271.0477
 Red. masses --      1.8979                 1.4941                 4.7054
 Frc consts  --      1.4800                 1.3150                 4.4789
 IR Inten    --     55.1395               100.8503                23.1045

                     31                     32                     33
                      A                      A                      A
 Frequencies --   1313.5637              1337.7700              1401.8579
 Red. masses --      1.4963                 1.4559                 1.3211
 Frc consts  --      1.5212                 1.5352                 1.5296
 IR Inten    --     23.8920                15.7872                99.6597

                     34                     35                     36
                      A                      A                      A
 Frequencies --   1413.5319              1417.9299              1461.3122
 Red. masses --      1.2452                 1.2811                 2.0141
 Frc consts  --      1.4659                 1.5176                 2.5341
 IR Inten    --     10.6738                 0.7429                25.8552

                     37                     38                     39
                      A                      A                      A
 Frequencies --   1474.9526              1479.1111              1488.5573
 Red. masses --      1.0399                 1.0403                 1.0463
 Frc consts  --      1.3328                 1.3409                 1.3660
 IR Inten    --      5.8991                 5.3315                 4.3347

                     40                     41                     42
                      A                      A                      A
 Frequencies --   1500.6170              2357.1444              3026.3670
 Red. masses --      1.1281                11.8758                 1.0347
 Frc consts  --      1.4967                38.8764                 5.5838
 IR Inten    --     14.4035                 2.3041                34.7785

                     43                     44                     45
                      A                      A                      A
 Frequencies --   3044.4059              3086.2868              3089.4351
 Red. masses --      1.0381                 1.1006                 1.0997
 Frc consts  --      5.6687                 6.1764                 6.1844
 IR Inten    --     33.9938                10.2932                 8.2148

                     46                     47                     48
                      A                      A                      A
 Frequencies --   3102.7669              3137.0065              3151.3939
 Red. masses --      1.1016                 1.0937                 1.0905
 Frc consts  --      6.2485                 6.3413                 6.3812
 IR Inten    --     20.0727                 1.9553                12.7118

                     49                     50                     51
                      A                      A                      A
 Frequencies --   3163.3784              3715.1403              3802.4695
 Red. masses --      1.0912                 1.0646                 1.0662
 Frc consts  --      6.4334                 8.6576                 9.0828
 IR Inten    --     21.2617                52.4510                29.7713

 - Thermochemistry -
 -------------------
 Temperature   298.150 Kelvin.  Pressure   1.00000 Atm.
 Atom     1 has atomic number  6 and mass  12.00000

 Molecular mass:   126.06808 amu.
 Principal axes and moments of inertia in atomic units:
                           1         2         3
     Eigenvalues --   576.129142112.866832211.27747
           X            0.99981  -0.01854  -0.00642
           Y            0.01805   0.99744  -0.06922
           Z            0.00769   0.06909   0.99758
 This molecule is an asymmetric top.
 Rotational symmetry number  1.
 Warning -- assumption of classical behavior for rotation
           may cause significant error
 Rotational temperatures (Kelvin)      0.15034     0.04099     0.03917
 Rotational constants (GHZ):           3.13253     0.85417     0.81615
 Zero-point vibrational energy     408247.5 (Joules/Mol)
                                   97.57351 (Kcal/Mol)
 Warning -- explicit consideration of  15 degrees of freedom as
           vibrations may cause significant error
 Vibrational temperatures:     29.43   122.61   131.36   152.01   269.79
          (Kelvin)            313.88   376.81   382.75   420.59   469.36
                              571.31   616.98   736.85   785.69   829.09
                              904.03   985.95  1138.45  1208.18  1345.09
                             1432.38  1454.28  1511.09  1516.64  1530.29
                             1628.49  1646.22  1655.22  1758.47  1828.75
                             1889.92  1924.75  2016.96  2033.75  2040.08
                             2102.50  2122.13  2128.11  2141.70  2159.05
                             3391.40  4354.26  4380.22  4440.47  4445.00
                             4464.18  4513.45  4534.15  4551.39  5345.25
                             5470.90

 Zero-point correction=                           0.155493 (Hartree/Particle)
 Thermal correction to Energy=                    0.166285
 Thermal correction to Enthalpy=                  0.167229
 Thermal correction to Gibbs Free Energy=         0.118335
 Sum of electronic and zero-point Energies=           -422.982302
 Sum of electronic and thermal Energies=              -422.971510
 Sum of electronic and thermal Enthalpies=            -422.970566
 Sum of electronic and thermal Free Energies=         -423.019461

                     E (Thermal)             CV                S
                      KCal/Mol        Cal/Mol-Kelvin    Cal/Mol-Kelvin
 Total                  104.346             37.922            102.908
 Electronic               0.000              0.000              0.000
 Translational            0.889              2.981             40.409
 Rotational               0.889              2.981             29.377
 Vibrational            102.568             31.961             33.122
 Vibration     1          0.593              1.986              6.590
 Vibration     2          0.601              1.959              3.767
 Vibration     3          0.602              1.955              3.632
 Vibration     4          0.605              1.945              3.347
 Vibration     5          0.632              1.857              2.252
 Vibration     6          0.646              1.813              1.974
 Vibration     7          0.669              1.743              1.649
 Vibration     8          0.672              1.735              1.622
 Vibration     9          0.688              1.688              1.460
 Vibration    10          0.710              1.623              1.279
 Vibration    11          0.764              1.476              0.973
 Vibration    12          0.790              1.407              0.863
 Vibration    13          0.867              1.223              0.628
 Vibration    14          0.901              1.148              0.552
 Vibration    15          0.933              1.083              0.492

 Optimization completed.
    -- Stationary point found.
 Normal termination of Gaussian 09 at Mon Jan 27 14:36:32 2020.
