 Gaussian 09, Revision D.01,
 Gaussian 09:  ES64L-G09RevD.01 24-Apr-2013

 -----------------------------
 # b3lyp 6-31G(2df,p) opt Freq
 -----------------------------

 -----
 titel
 -----
 Symbolic Z-matrix:
 Charge =  0 Multiplicity = 1

 SCF Done:  E(RB3LYP) =  -423.148710340     A.U. after   14 cycles
 Optimization completed.
    -- Stationary point found.
 Normal termination of Gaussian 09 at Mon Jan 27 14:18:04 2020.

 ----------------------------------------------------------------------
 #N Geom=AllCheck Guess=TCheck SCRF=Check GenChk RB3LYP/6-31G(2df,p) Fr
 eq
 ----------------------------------------------------------------------

 Structure from the checkpoint file:  "/scratch/puck/g09_3d84e67d-f058-4133-956f-7503b0c135db/Gau-58109.chk"
 -----
 titel
 -----
 Charge =  0 Multiplicity = 1

                         Standard orientation:
 ---------------------------------------------------------------------
 Center     Atomic      Atomic             Coordinates (Angstroms)
 Number     Number       Type             X           Y           Z
 ---------------------------------------------------------------------
      1          8           0        1.445480    1.797801   -0.104635
      2          6           0        0.987805    0.468636   -0.343711
      3          6           0        2.069996   -0.505278   -0.205795
      4          6           0        2.987289   -1.263410   -0.036529
      5          6           0       -0.207508    0.128188    0.580643
      6          6           0       -1.406040    1.072208    0.363012
      7          6           0       -2.325197    0.249412   -0.554395
      8          6           0       -2.041129   -1.172118   -0.067254
      9          8           0       -0.658138   -1.190851    0.280273
     10          1           0        2.015362    1.771733    0.671945
     11          1           0        0.623432    0.465269   -1.378328
     12          1           0        3.789321   -1.947343    0.093609
     13          1           0        0.152175    0.160678    1.618699
     14          1           0       -1.902619    1.273360    1.317173
     15          1           0       -1.093488    2.029119   -0.058257
     16          1           0       -3.378491    0.527596   -0.471708
     17          1           0       -2.028806    0.357397   -1.603075
     18          1           0       -2.656733   -1.415356    0.813183
     19          1           0       -2.210180   -1.943883   -0.824173
 ---------------------------------------------------------------------

 SCF Done:  E(RB3LYP) =  -423.148710340     A.U. after    1 cycles

 The electronic state is 1-A.
 Alpha  occ. eigenvalues --  -19.14627 -19.13472 -10.25337 -10.23272 -10.22610
 Alpha  occ. eigenvalues --  -10.18717 -10.18454 -10.18115 -10.17670  -1.03653
 Alpha  occ. eigenvalues --   -1.02446  -0.78601  -0.77749  -0.73644  -0.67712
 Alpha  occ. eigenvalues --   -0.59892  -0.58340  -0.55246  -0.50219  -0.49982
 Alpha  occ. eigenvalues --   -0.49199  -0.46246  -0.43107  -0.41767  -0.40836
 Alpha  occ. eigenvalues --   -0.36760  -0.35475  -0.34903  -0.33291  -0.31431
 Alpha  occ. eigenvalues --   -0.29692  -0.27222  -0.27027  -0.24152
 Alpha virt. eigenvalues --    0.03320   0.04951   0.09095   0.09601   0.10930
 Alpha virt. eigenvalues --    0.12680   0.13817   0.14430   0.15004   0.16001
 Alpha virt. eigenvalues --    0.16403   0.18299   0.20596   0.21510   0.23049

 Mulliken charges:
               1
     1  O   -0.420229
     2  C   -0.069106
     3  C    0.305048
     4  C   -0.442623
     5  C    0.120062
     6  C   -0.255810
     7  C   -0.224361
     8  C   -0.058520
     9  O   -0.267118
    10  H    0.287727
    11  H    0.114502
    12  H    0.198927
    13  H    0.071037
    14  H    0.101273
    15  H    0.126589
    16  H    0.103592
    17  H    0.109604
    18  H    0.090778
    19  H    0.108627
 Sum of Mulliken charges =   0.00000

 Dipole moment (field-independent basis, Debye):
    X=             -0.8541    Y=              0.2653    Z=              0.6997  Tot=              1.1356
 Quadrupole moment (field-independent basis, Debye-Ang):
   XX=            -46.1600   YY=            -55.9497   ZZ=            -51.7654
   XY=             -2.0830   XZ=              3.1785   YZ=              2.5794

  Exact polarizability:  94.898  -9.165  75.933   3.398   1.088  61.108
 Approx polarizability: 125.014 -19.518 115.700   6.915  -0.970  93.544

                      1                      2                      3
                      A                      A                      A
 Frequencies --     55.8519                69.7096               124.2712
 Red. masses --      3.4921                 3.7166                 4.0229
 Frc consts  --      0.0064                 0.0106                 0.0366
 IR Inten    --      1.9512                 1.7234                 1.8036

                      4                      5                      6
                      A                      A                      A
 Frequencies --    209.4691               225.5675               255.5765
 Red. masses --      2.5576                 2.5446                 1.7763
 Frc consts  --      0.0661                 0.0763                 0.0684
 IR Inten    --      4.5969                 6.3652                21.9617

                      7                      8                      9
                      A                      A                      A
 Frequencies --    278.7582               353.0823               420.4213
 Red. masses --      1.8161                 3.3527                 4.5306
 Frc consts  --      0.0831                 0.2463                 0.4718
 IR Inten    --     70.2136                 4.3620                 8.7904

                     10                     11                     12
                      A                      A                      A
 Frequencies --    499.2175               588.2074               600.0184
 Red. masses --      5.5576                 5.7831                 1.8377
 Frc consts  --      0.8161                 1.1789                 0.3898
 IR Inten    --      6.0785                10.4863                 1.5302

                     13                     14                     15
                      A                      A                      A
 Frequencies --    630.7061               669.4647               719.7038
 Red. masses --      1.2265                 1.2517                 4.6518
 Frc consts  --      0.2875                 0.3305                 1.4196
 IR Inten    --     44.8885                34.3018                 4.3173

                     16                     17                     18
                      A                      A                      A
 Frequencies --    845.7845               883.5142               914.7285
 Red. masses --      1.8469                 2.0722                 2.3482
 Frc consts  --      0.7784                 0.9530                 1.1576
 IR Inten    --      8.8890                 2.4846                28.2021

                     19                     20                     21
                      A                      A                      A
 Frequencies --    932.3996               948.2110               962.1620
 Red. masses --      3.4209                 3.0709                 1.8734
 Frc consts  --      1.7523                 1.6267                 1.0218
 IR Inten    --      7.2129                11.1440                10.9046

                     22                     23                     24
                      A                      A                      A
 Frequencies --   1014.6853              1057.1467              1076.0818
 Red. masses --      2.2710                 2.4484                 2.6577
 Frc consts  --      1.3776                 1.6121                 1.8132
 IR Inten    --     15.3695                61.9514                38.0012

                     25                     26                     27
                      A                      A                      A
 Frequencies --   1111.9042              1139.4000              1190.8713
 Red. masses --      7.6666                 2.1038                 1.4017
 Frc consts  --      5.5845                 1.6092                 1.1712
 IR Inten    --    151.6674                 2.4300                 5.7141

                     28                     29                     30
                      A                      A                      A
 Frequencies --   1203.6470              1242.9344              1264.1066
 Red. masses --      1.4556                 1.2571                 1.2544
 Frc consts  --      1.2424                 1.1443                 1.1810
 IR Inten    --      6.3449                11.7246                 4.5027

                     31                     32                     33
                      A                      A                      A
 Frequencies --   1285.5102              1312.4149              1326.2740
 Red. masses --      1.2934                 1.2794                 1.4330
 Frc consts  --      1.2593                 1.2984                 1.4852
 IR Inten    --     14.5480                 1.9581                 1.1137

                     34                     35                     36
                      A                      A                      A
 Frequencies --   1343.8204              1381.4079              1393.9764
 Red. masses --      1.2836                 1.2637                 1.3434
 Frc consts  --      1.3657                 1.4208                 1.5380
 IR Inten    --      0.4358                19.8798                 0.8000

                     37                     38                     39
                      A                      A                      A
 Frequencies --   1415.0130              1488.7472              1501.0207
 Red. masses --      1.3252                 1.0874                 1.0971
 Frc consts  --      1.5634                 1.4199                 1.4564
 IR Inten    --     58.3553                 3.0635                 5.6923

                     40                     41                     42
                      A                      A                      A
 Frequencies --   1527.0186              2234.3763              2979.1503
 Red. masses --      1.0969                 5.9128                 1.0714
 Frc consts  --      1.5070                17.3922                 5.6023
 IR Inten    --      0.5743                 1.3786                79.4808

                     43                     44                     45
                      A                      A                      A
 Frequencies --   2999.9817              3041.5613              3050.6419
 Red. masses --      1.0839                 1.0837                 1.0666
 Frc consts  --      5.7474                 5.9070                 5.8484
 IR Inten    --     33.9460                24.2622                19.8394

                     46                     47                     48
                      A                      A                      A
 Frequencies --   3061.1480              3079.8927              3108.4273
 Red. masses --      1.0660                 1.0912                 1.0999
 Frc consts  --      5.8853                 6.0987                 6.2617
 IR Inten    --     30.2632                40.5998                29.8155

                     49                     50                     51
                      A                      A                      A
 Frequencies --   3125.3116              3503.7553              3807.9360
 Red. masses --      1.1003                 1.1624                 1.0662
 Frc consts  --      6.3323                 8.4076                 9.1091
 IR Inten    --     15.0740                63.7015                28.0252

 - Thermochemistry -
 -------------------
 Temperature   298.150 Kelvin.  Pressure   1.00000 Atm.
 Atom     1 has atomic number  8 and mass  15.99491

 Molecular mass:   126.06808 amu.
 Principal axes and moments of inertia in atomic units:
                           1         2         3
     Eigenvalues --   618.942451516.023591966.21026
           X            0.99991  -0.01059   0.00819
           Y            0.01047   0.99985   0.01411
           Z           -0.00833  -0.01402   0.99987
 This molecule is an asymmetric top.
 Rotational symmetry number  1.
 Warning -- assumption of classical behavior for rotation
           may cause significant error
 Rotational temperatures (Kelvin)      0.13994     0.05713     0.04405
 Rotational constants (GHZ):           2.91585     1.19044     0.91788
 Zero-point vibrational energy     415433.1 (Joules/Mol)
                                   99.29089 (Kcal/Mol)
 Warning -- explicit consideration of  12 degrees of freedom as
           vibrations may cause significant error
 Vibrational temperatures:     80.36   100.30   178.80   301.38   324.54
          (Kelvin)            367.72   401.07   508.01   604.89   718.26
                              846.30   863.29   907.44   963.21  1035.49
                             1216.89  1271.18  1316.09  1341.51  1364.26
                             1384.33  1459.90  1521.00  1548.24  1599.78
                             1639.34  1713.40  1731.78  1788.30  1818.77
                             1849.56  1888.27  1908.21  1933.46  1987.54
                             2005.62  2035.89  2141.97  2159.63  2197.04
                             3214.77  4286.33  4316.30  4376.12  4389.19
                             4404.30  4431.27  4472.33  4496.62  5041.12
                             5478.76

 Zero-point correction=                           0.158230 (Hartree/Particle)
 Thermal correction to Energy=                    0.167523
 Thermal correction to Enthalpy=                  0.168467
 Thermal correction to Gibbs Free Energy=         0.123550
 Sum of electronic and zero-point Energies=           -422.990480
 Sum of electronic and thermal Energies=              -422.981187
 Sum of electronic and thermal Enthalpies=            -422.980243
 Sum of electronic and thermal Free Energies=         -423.025160

                     E (Thermal)             CV                S
                      KCal/Mol        Cal/Mol-Kelvin    Cal/Mol-Kelvin
 Total                  105.122             34.176             94.536
 Electronic               0.000              0.000              0.000
 Translational            0.889              2.981             40.409
 Rotational               0.889              2.981             29.002
 Vibrational            103.345             28.214             25.125
 Vibration     1          0.596              1.975              4.599
 Vibration     2          0.598              1.969              4.162
 Vibration     3          0.610              1.929              3.033
 Vibration     4          0.642              1.826              2.048
 Vibration     5          0.650              1.802              1.914
 Vibration     6          0.666              1.753              1.692
 Vibration     7          0.679              1.713              1.541
 Vibration     8          0.729              1.569              1.152
 Vibration     9          0.783              1.426              0.891
 Vibration    10          0.855              1.252              0.660
 Vibration    11          0.945              1.057              0.470
 Vibration    12          0.958              1.032              0.450

 Normal termination of Gaussian 09 at Mon Jan 27 15:00:52 2020.
