 Gaussian 09, Revision D.01,
 Gaussian 09:  ES64L-G09RevD.01 24-Apr-2013

 -----------------------------
 # b3lyp 6-31G(2df,p) opt Freq
 -----------------------------

 -----
 titel
 -----
 Symbolic Z-matrix:
 Charge =  0 Multiplicity = 1

 SCF Done:  E(RB3LYP) =  -423.153011050     A.U. after   14 cycles
 Optimization completed.
    -- Stationary point found.
 Normal termination of Gaussian 09 at Tue Jan 28 11:47:14 2020.

 ----------------------------------------------------------------------
 #N Geom=AllCheck Guess=TCheck SCRF=Check GenChk RB3LYP/6-31G(2df,p) Fr
 eq
 ----------------------------------------------------------------------

 Structure from the checkpoint file:  "/scratch/puck/g09_5cf04056-15d8-4158-85e0-fd9643d34383/Gau-195773.chk"
 -----
 titel
 -----
 Charge =  0 Multiplicity = 1

                         Standard orientation:
 ---------------------------------------------------------------------
 Center     Atomic      Atomic             Coordinates (Angstroms)
 Number     Number       Type             X           Y           Z
 ---------------------------------------------------------------------
      1          8           0       -3.237661   -0.016265   -0.435714
      2          6           0       -2.059431   -0.791707   -0.444697
      3          6           0       -1.047118   -0.270288    0.572104
      4          6           0        0.315614   -0.988897    0.534090
      5          6           0        1.338014    0.176217    0.520482
      6          6           0        0.526558    1.261181   -0.217284
      7          8           0       -0.791121    1.121835    0.285653
      8          6           0        2.618605   -0.137500   -0.089173
      9          6           0        3.671303   -0.391560   -0.611020
     10          1           0       -2.943038    0.901584   -0.486679
     11          1           0       -2.344082   -1.821303   -0.199233
     12          1           0       -1.588999   -0.805358   -1.443285
     13          1           0       -1.502904   -0.298581    1.568663
     14          1           0        0.462602   -1.660172    1.381725
     15          1           0        0.420875   -1.577687   -0.382961
     16          1           0        1.497283    0.518798    1.550101
     17          1           0        0.868506    2.277489   -0.006987
     18          1           0        0.573781    1.092034   -1.303526
     19          1           0        4.604970   -0.616040   -1.064344
 ---------------------------------------------------------------------

 SCF Done:  E(RB3LYP) =  -423.153011050     A.U. after    1 cycles

 The electronic state is 1-A.
 Alpha  occ. eigenvalues --  -19.14954 -19.12851 -10.23948 -10.23666 -10.22587
 Alpha  occ. eigenvalues --  -10.22233 -10.19991 -10.18773 -10.17858  -1.04802
 Alpha  occ. eigenvalues --   -1.00963  -0.81990  -0.77188  -0.73126  -0.67274
 Alpha  occ. eigenvalues --   -0.62766  -0.58512  -0.54065  -0.52424  -0.50338
 Alpha  occ. eigenvalues --   -0.49005  -0.45190  -0.43361  -0.42428  -0.40832
 Alpha  occ. eigenvalues --   -0.40094  -0.37699  -0.35728  -0.33776  -0.32382
 Alpha  occ. eigenvalues --   -0.27888  -0.27128  -0.27002  -0.25132
 Alpha virt. eigenvalues --    0.04435   0.04693   0.07990   0.09725   0.10702
 Alpha virt. eigenvalues --    0.12245   0.12775   0.13508   0.14564   0.15566
 Alpha virt. eigenvalues --    0.16097   0.17388   0.19291   0.20257   0.22260

 Mulliken charges:
               1
     1  O   -0.422676
     2  C   -0.062109
     3  C    0.100943
     4  C   -0.273389
     5  C   -0.174779
     6  C   -0.091017
     7  O   -0.281179
     8  C    0.305951
     9  C   -0.445785
    10  H    0.289129
    11  H    0.107723
    12  H    0.082218
    13  H    0.089164
    14  H    0.121529
    15  H    0.118229
    16  H    0.113714
    17  H    0.121527
    18  H    0.102596
    19  H    0.198210
 Sum of Mulliken charges =   0.00000

 Dipole moment (field-independent basis, Debye):
    X=              2.0120    Y=             -0.3383    Z=              0.1685  Tot=              2.0472
 Quadrupole moment (field-independent basis, Debye-Ang):
   XX=            -60.2028   YY=            -51.5254   ZZ=            -51.8404
   XY=             -0.5189   XZ=             -2.1249   YZ=             -0.9904

  Exact polarizability: 102.033  -2.011  67.402  -9.068   0.136  63.466
 Approx polarizability: 137.332  -7.483  99.458 -19.586   2.890  98.836

                      1                      2                      3
                      A                      A                      A
 Frequencies --     40.7855               111.9123               141.2416
 Red. masses --      4.6275                 3.6817                 2.8834
 Frc consts  --      0.0045                 0.0272                 0.0339
 IR Inten    --      0.4215                 2.9625                 1.0137

                      4                      5                      6
                      A                      A                      A
 Frequencies --    163.2596               226.1253               291.2128
 Red. masses --      3.2217                 3.7525                 2.5416
 Frc consts  --      0.0506                 0.1131                 0.1270
 IR Inten    --      3.2990                 0.5370                 4.7448

                      7                      8                      9
                      A                      A                      A
 Frequencies --    369.1973               469.7804               472.8866
 Red. masses --      4.2324                 2.0164                 1.4153
 Frc consts  --      0.3399                 0.2622                 0.1865
 IR Inten    --      3.7760                 8.6357                92.3384

                     10                     11                     12
                      A                      A                      A
 Frequencies --    505.9878               525.0725               544.0266
 Red. masses --      4.9508                 2.9539                 4.0602
 Frc consts  --      0.7468                 0.4798                 0.7080
 IR Inten    --      9.1324                 1.5655                 5.2394

                     13                     14                     15
                      A                      A                      A
 Frequencies --    634.5089               637.8757               685.6019
 Red. masses --      1.2093                 1.2256                 3.6929
 Frc consts  --      0.2869                 0.2938                 1.0227
 IR Inten    --     42.7941                40.0872                 6.6714

                     16                     17                     18
                      A                      A                      A
 Frequencies --    816.4401               876.0687               888.7806
 Red. masses --      3.1331                 2.2707                 1.8162
 Frc consts  --      1.2305                 1.0268                 0.8453
 IR Inten    --     28.6915                 9.7392                 1.8294

                     19                     20                     21
                      A                      A                      A
 Frequencies --    978.7332               998.1316              1052.7183
 Red. masses --      1.4084                 2.6572                 2.8214
 Frc consts  --      0.7949                 1.5597                 1.8422
 IR Inten    --      4.0882                 0.5360                27.6763

                     22                     23                     24
                      A                      A                      A
 Frequencies --   1057.8558              1073.6231              1081.4377
 Red. masses --      3.0607                 3.7693                 3.8978
 Frc consts  --      2.0180                 2.5599                 2.6858
 IR Inten    --      3.4586                20.6824               172.7096

                     25                     26                     27
                      A                      A                      A
 Frequencies --   1111.7496              1130.7062              1196.5082
 Red. masses --      3.7547                 2.5607                 1.4316
 Frc consts  --      2.7343                 1.9289                 1.2076
 IR Inten    --     39.8175                11.1478                 7.2119

                     28                     29                     30
                      A                      A                      A
 Frequencies --   1231.4055              1246.4644              1272.4094
 Red. masses --      1.2818                 1.2057                 1.2875
 Frc consts  --      1.1452                 1.1037                 1.2282
 IR Inten    --      7.4661                 3.4455                 0.3381

                     31                     32                     33
                      A                      A                      A
 Frequencies --   1302.9482              1326.4682              1340.6303
 Red. masses --      1.2361                 1.3184                 1.2673
 Frc consts  --      1.2364                 1.3667                 1.3420
 IR Inten    --      0.6441                 0.8013                15.1649

                     34                     35                     36
                      A                      A                      A
 Frequencies --   1361.9032              1391.5169              1400.1022
 Red. masses --      1.3112                 1.3305                 1.2904
 Frc consts  --      1.4329                 1.5179                 1.4904
 IR Inten    --     15.6720                20.6901                 3.5733

                     37                     38                     39
                      A                      A                      A
 Frequencies --   1437.5370              1494.2119              1499.1406
 Red. masses --      1.3203                 1.0903                 1.0926
 Frc consts  --      1.6076                 1.4343                 1.4468
 IR Inten    --     70.3150                 2.7767                 0.8079

                     40                     41                     42
                      A                      A                      A
 Frequencies --   1522.4274              2239.1623              2955.3571
 Red. masses --      1.0911                 5.9517                 1.0703
 Frc consts  --      1.4900                17.5817                 5.5077
 IR Inten    --      1.9975                 3.4848                40.0295

                     43                     44                     45
                      A                      A                      A
 Frequencies --   2993.9356              3034.4282              3040.3569
 Red. masses --      1.0696                 1.0815                 1.0850
 Frc consts  --      5.6489                 5.8671                 5.9093
 IR Inten    --     43.4660                14.6856                24.2407

                     46                     47                     48
                      A                      A                      A
 Frequencies --   3058.4437              3066.8858              3100.6718
 Red. masses --      1.0644                 1.0922                 1.0957
 Frc consts  --      5.8660                 6.0528                 6.2065
 IR Inten    --     18.6478                40.7907                28.6738

                     49                     50                     51
                      A                      A                      A
 Frequencies --   3121.1890              3504.3086              3782.7023
 Red. masses --      1.1012                 1.1620                 1.0652
 Frc consts  --      6.3208                 8.4077                 8.9800
 IR Inten    --     19.8729                74.2878                28.6033

 - Thermochemistry -
 -------------------
 Temperature   298.150 Kelvin.  Pressure   1.00000 Atm.
 Atom     1 has atomic number  8 and mass  15.99491

 Molecular mass:   126.06808 amu.
 Principal axes and moments of inertia in atomic units:
                           1         2         3
     Eigenvalues --   405.983092109.135582267.73887
           X            0.99999   0.00505  -0.00204
           Y           -0.00510   0.99971  -0.02342
           Z            0.00192   0.02343   0.99972
 This molecule is an asymmetric top.
 Rotational symmetry number  1.
 Rotational temperatures (Kelvin)      0.21334     0.04107     0.03819
 Rotational constants (GHZ):           4.44536     0.85568     0.79583
 Zero-point vibrational energy     417537.6 (Joules/Mol)
                                   99.79388 (Kcal/Mol)
 Warning -- explicit consideration of  12 degrees of freedom as
           vibrations may cause significant error
 Vibrational temperatures:     58.68   161.02   203.21   234.89   325.34
          (Kelvin)            418.99   531.19   675.91   680.38   728.00
                              755.46   782.73   912.92   917.76   986.43
                             1174.67  1260.47  1278.76  1408.18  1436.09
                             1514.62  1522.02  1544.70  1555.95  1599.56
                             1626.83  1721.51  1771.72  1793.38  1830.71
                             1874.65  1908.49  1928.87  1959.47  2002.08
                             2014.43  2068.29  2149.84  2156.93  2190.43
                             3221.65  4252.09  4307.60  4365.86  4374.39
                             4400.41  4412.56  4461.17  4490.69  5041.91
                             5442.46

 Zero-point correction=                           0.159032 (Hartree/Particle)
 Thermal correction to Energy=                    0.168075
 Thermal correction to Enthalpy=                  0.169019
 Thermal correction to Gibbs Free Energy=         0.124611
 Sum of electronic and zero-point Energies=           -422.993979
 Sum of electronic and thermal Energies=              -422.984936
 Sum of electronic and thermal Enthalpies=            -422.983992
 Sum of electronic and thermal Free Energies=         -423.028400

                     E (Thermal)             CV                S
                      KCal/Mol        Cal/Mol-Kelvin    Cal/Mol-Kelvin
 Total                  105.469             33.705             93.465
 Electronic               0.000              0.000              0.000
 Translational            0.889              2.981             40.409
 Rotational               0.889              2.981             29.053
 Vibrational            103.691             27.744             24.003
 Vibration     1          0.594              1.981              5.221
 Vibration     2          0.607              1.940              3.235
 Vibration     3          0.615              1.912              2.787
 Vibration     4          0.623              1.888              2.512
 Vibration     5          0.650              1.801              1.910
 Vibration     6          0.687              1.690              1.467
 Vibration     7          0.741              1.536              1.083
 Vibration     8          0.827              1.317              0.738
 Vibration     9          0.830              1.310              0.730
 Vibration    10          0.861              1.237              0.643
 Vibration    11          0.880              1.194              0.598
 Vibration    12          0.899              1.153              0.557

 Normal termination of Gaussian 09 at Tue Jan 28 12:26:10 2020.
