 Gaussian 09, Revision D.01,
 Gaussian 09:  ES64L-G09RevD.01 24-Apr-2013

 -----------------------------
 # b3lyp 6-31G(2df,p) opt Freq
 -----------------------------

 -----
 titel
 -----
 Symbolic Z-matrix:
 Charge =  0 Multiplicity = 1

 SCF Done:  E(RB3LYP) =  -423.182177708     A.U. after   14 cycles
 Optimization completed.
    -- Stationary point found.
 Normal termination of Gaussian 09 at Mon Jan 27 18:33:10 2020.

 ----------------------------------------------------------------------
 #N Geom=AllCheck Guess=TCheck SCRF=Check GenChk RB3LYP/6-31G(2df,p) Fr
 eq
 ----------------------------------------------------------------------

 Structure from the checkpoint file:  "/scratch/puck/g09_84f359e1-af35-4ce5-bee6-0ef5ac06552d/Gau-75329.chk"
 -----
 titel
 -----
 Charge =  0 Multiplicity = 1

                         Standard orientation:
 ---------------------------------------------------------------------
 Center     Atomic      Atomic             Coordinates (Angstroms)
 Number     Number       Type             X           Y           Z
 ---------------------------------------------------------------------
      1          6           0        1.566483   -1.078962   -0.989874
      2          6           0        0.494928   -0.638265   -0.017139
      3          8           0        1.061122   -0.328747    1.296645
      4          6           0        0.404179    0.952573    1.335680
      5          6           0       -0.131349    0.799640   -0.108625
      6          8           0        0.355628    1.706469   -1.062945
      7          6           0       -1.645887    0.626611   -0.282516
      8          6           0       -1.853547   -0.851345   -0.051796
      9          6           0       -0.714098   -1.531654    0.080312
     10          1           0        2.025110   -2.011791   -0.645702
     11          1           0        1.143009   -1.246896   -1.984430
     12          1           0        2.359737   -0.329095   -1.070280
     13          1           0       -0.362470    1.006758    2.119227
     14          1           0        1.115186    1.777761    1.477036
     15          1           0        1.302038    1.820436   -0.924932
     16          1           0       -2.221987    1.247548    0.414215
     17          1           0       -1.940104    0.932044   -1.294238
     18          1           0       -2.844990   -1.290058   -0.006885
     19          1           0       -0.633774   -2.600081    0.250134
 ---------------------------------------------------------------------

 SCF Done:  E(RB3LYP) =  -423.182177708     A.U. after    1 cycles

 The electronic state is 1-A.
 Alpha  occ. eigenvalues --  -19.14774 -19.12690 -10.23841 -10.23181 -10.22460
 Alpha  occ. eigenvalues --  -10.18955 -10.18677 -10.17973 -10.17853  -1.04597
 Alpha  occ. eigenvalues --   -1.01565  -0.83096  -0.75331  -0.71381  -0.66906
 Alpha  occ. eigenvalues --   -0.64169  -0.55798  -0.55415  -0.50141  -0.48369
 Alpha  occ. eigenvalues --   -0.46596  -0.44220  -0.42022  -0.40998  -0.38988
 Alpha  occ. eigenvalues --   -0.38619  -0.38431  -0.37446  -0.35066  -0.34950
 Alpha  occ. eigenvalues --   -0.29333  -0.26068  -0.25820  -0.24145
 Alpha virt. eigenvalues --    0.01112   0.06488   0.09350   0.11442   0.12574
 Alpha virt. eigenvalues --    0.12681   0.14475   0.15308   0.16538   0.16950
 Alpha virt. eigenvalues --    0.17773   0.18767   0.20241   0.21537   0.22435

 Mulliken charges:
               1
     1  C   -0.452207
     2  C    0.331303
     3  O   -0.328562
     4  C   -0.139061
     5  C    0.309914
     6  O   -0.480717
     7  C   -0.317749
     8  C   -0.076769
     9  C   -0.112931
    10  H    0.128838
    11  H    0.128754
    12  H    0.104468
    13  H    0.101004
    14  H    0.091944
    15  H    0.283157
    16  H    0.108441
    17  H    0.123067
    18  H    0.099465
    19  H    0.097642
 Sum of Mulliken charges =   0.00000

 Dipole moment (field-independent basis, Debye):
    X=             -0.3072    Y=              0.1589    Z=             -0.4260  Tot=              0.5488
 Quadrupole moment (field-independent basis, Debye-Ang):
   XX=            -49.7254   YY=            -51.9803   ZZ=            -56.6280
   XY=              2.6276   XZ=             -3.0197   YZ=              3.3750

  Exact polarizability:  84.305  -1.921  78.056  -0.518   2.474  63.882
 Approx polarizability: 125.231  -9.260 114.552   3.614  -0.737  96.081

                      1                      2                      3
                      A                      A                      A
 Frequencies --     86.6451               171.8979               231.9969
 Red. masses --      2.6972                 1.1071                 2.9432
 Frc consts  --      0.0119                 0.0193                 0.0933
 IR Inten    --      2.6576                 0.7277                 1.3558

                      4                      5                      6
                      A                      A                      A
 Frequencies --    234.6256               283.7110               334.0571
 Red. masses --      2.8762                 1.6310                 1.3945
 Frc consts  --      0.0933                 0.0773                 0.0917
 IR Inten    --      1.0516                24.1604                74.5891

                      7                      8                      9
                      A                      A                      A
 Frequencies --    352.6690               389.3677               464.8309
 Red. masses --      3.1608                 3.4334                 2.1329
 Frc consts  --      0.2316                 0.3067                 0.2715
 IR Inten    --      2.5156                13.0240                 2.3713

                     10                     11                     12
                      A                      A                      A
 Frequencies --    520.1392               565.3095               672.3766
 Red. masses --      3.1134                 3.8064                 4.9924
 Frc consts  --      0.4963                 0.7167                 1.3298
 IR Inten    --     14.3611                 0.9942                 2.1822

                     13                     14                     15
                      A                      A                      A
 Frequencies --    681.5085               752.7034               775.0858
 Red. masses --      4.0636                 2.0262                 2.2788
 Frc consts  --      1.1120                 0.6764                 0.8066
 IR Inten    --      4.5740                 5.0822                21.2589

                     16                     17                     18
                      A                      A                      A
 Frequencies --    868.1481               906.0906               926.0234
 Red. masses --      2.8037                 1.6956                 1.9107
 Frc consts  --      1.2450                 0.8202                 0.9653
 IR Inten    --     20.7938                 9.5470                18.5267

                     19                     20                     21
                      A                      A                      A
 Frequencies --    959.7608               962.1717               980.2699
 Red. masses --      1.7771                 2.1478                 1.2720
 Frc consts  --      0.9644                 1.1715                 0.7201
 IR Inten    --     12.7474                 5.4728                 0.1148

                     22                     23                     24
                      A                      A                      A
 Frequencies --   1012.8895              1045.8247              1094.4950
 Red. masses --      7.5316                 2.4274                 1.7483
 Frc consts  --      4.5526                 1.5642                 1.2340
 IR Inten    --     81.8875                 6.1142                17.6753

                     25                     26                     27
                      A                      A                      A
 Frequencies --   1107.3162              1133.4385              1148.1462
 Red. masses --      1.7741                 1.7659                 1.3524
 Frc consts  --      1.2817                 1.3366                 1.0504
 IR Inten    --     34.3999                24.5608                 5.0739

                     28                     29                     30
                      A                      A                      A
 Frequencies --   1161.8373              1213.5187              1243.1828
 Red. masses --      1.3641                 2.4112                 3.2447
 Frc consts  --      1.0849                 2.0921                 2.9545
 IR Inten    --     28.6304                16.7275                 2.5531

                     31                     32                     33
                      A                      A                      A
 Frequencies --   1259.3693              1309.2501              1351.9420
 Red. masses --      2.0916                 1.4385                 1.6802
 Frc consts  --      1.9545                 1.4528                 1.8094
 IR Inten    --     30.8410                24.0403                24.5795

                     34                     35                     36
                      A                      A                      A
 Frequencies --   1359.4595              1400.1919              1412.7152
 Red. masses --      1.9221                 1.3802                 1.8022
 Frc consts  --      2.0929                 1.5943                 2.1191
 IR Inten    --      8.4239                 4.6935                27.7680

                     37                     38                     39
                      A                      A                      A
 Frequencies --   1475.3706              1480.8412              1489.2216
 Red. masses --      1.0647                 1.0958                 1.0530
 Frc consts  --      1.3655                 1.4158                 1.3760
 IR Inten    --      7.7005                 2.6897                 2.0578

                     40                     41                     42
                      A                      A                      A
 Frequencies --   1515.8255              1677.3551              3001.5356
 Red. masses --      1.1002                 6.4893                 1.0558
 Frc consts  --      1.4894                10.7572                 5.6040
 IR Inten    --      0.2708                 2.9326                63.9259

                     43                     44                     45
                      A                      A                      A
 Frequencies --   3028.1550              3035.6711              3047.1451
 Red. masses --      1.0593                 1.0350                 1.1092
 Frc consts  --      5.7231                 5.6195                 6.0682
 IR Inten    --     30.2855                13.6136                34.1986

                     46                     47                     48
                      A                      A                      A
 Frequencies --   3060.2093              3103.2548              3116.3985
 Red. masses --      1.1031                 1.1010                 1.1014
 Frc consts  --      6.0866                 6.2470                 6.3024
 IR Inten    --     22.2771                20.8395                15.9193

                     49                     50                     51
                      A                      A                      A
 Frequencies --   3177.0022              3201.3567              3808.5887
 Red. masses --      1.0845                 1.1034                 1.0658
 Frc consts  --      6.4491                 6.6629                 9.1089
 IR Inten    --      6.5682                21.9258                14.3240

 - Thermochemistry -
 -------------------
 Temperature   298.150 Kelvin.  Pressure   1.00000 Atm.
 Atom     1 has atomic number  6 and mass  12.00000

 Molecular mass:   126.06808 amu.
 Principal axes and moments of inertia in atomic units:
                           1         2         3
     Eigenvalues --   876.58422 927.732901136.98520
           X            0.99497  -0.07195  -0.06964
           Y            0.07881   0.99173   0.10131
           Z            0.06178  -0.10629   0.99241
 This molecule is an asymmetric top.
 Rotational symmetry number  1.
 Warning -- assumption of classical behavior for rotation
           may cause significant error
 Rotational temperatures (Kelvin)      0.09881     0.09336     0.07618
 Rotational constants (GHZ):           2.05883     1.94532     1.58730
 Zero-point vibrational energy     416246.0 (Joules/Mol)
                                   99.48518 (Kcal/Mol)
 Warning -- explicit consideration of  11 degrees of freedom as
           vibrations may cause significant error
 Vibrational temperatures:    124.66   247.32   333.79   337.57   408.20
          (Kelvin)            480.63   507.41   560.21   668.79   748.36
                              813.35   967.40   980.54  1082.97  1115.17
                             1249.07  1303.66  1332.34  1380.88  1384.35
                             1410.39  1457.32  1504.71  1574.73  1593.18
                             1630.76  1651.92  1671.62  1745.98  1788.66
                             1811.95  1883.72  1945.14  1955.96  2014.56
                             2032.58  2122.73  2130.60  2142.66  2180.93
                             2413.34  4318.53  4356.83  4367.65  4384.16
                             4402.95  4464.89  4483.80  4570.99  4606.03
                             5479.70

 Zero-point correction=                           0.158540 (Hartree/Particle)
 Thermal correction to Energy=                    0.166898
 Thermal correction to Enthalpy=                  0.167842
 Thermal correction to Gibbs Free Energy=         0.126048
 Sum of electronic and zero-point Energies=           -423.023638
 Sum of electronic and thermal Energies=              -423.015280
 Sum of electronic and thermal Enthalpies=            -423.014336
 Sum of electronic and thermal Free Energies=         -423.056130

                     E (Thermal)             CV                S
                      KCal/Mol        Cal/Mol-Kelvin    Cal/Mol-Kelvin
 Total                  104.730             32.777             87.962
 Electronic               0.000              0.000              0.000
 Translational            0.889              2.981             40.409
 Rotational               0.889              2.981             28.316
 Vibrational            102.952             26.816             19.238
 Vibration     1          0.601              1.959              3.734
 Vibration     2          0.626              1.877              2.415
 Vibration     3          0.653              1.792              1.863
 Vibration     4          0.654              1.788              1.843
 Vibration     5          0.682              1.704              1.511
 Vibration     6          0.716              1.607              1.240
 Vibration     7          0.729              1.570              1.154
 Vibration     8          0.757              1.493              1.003
 Vibration     9          0.822              1.328              0.752
 Vibration    10          0.875              1.205              0.610
 Vibration    11          0.921              1.106              0.513

 Optimization completed.
    -- Stationary point found.
 Normal termination of Gaussian 09 at Mon Jan 27 19:32:06 2020.
