 Gaussian 09, Revision D.01,
 Gaussian 09:  ES64L-G09RevD.01 24-Apr-2013

 -----------------------------
 # b3lyp 6-31G(2df,p) opt Freq
 -----------------------------

 -----
 titel
 -----
 Symbolic Z-matrix:
 Charge =  0 Multiplicity = 1

 SCF Done:  E(RB3LYP) =  -423.170400985     A.U. after   12 cycles
 Optimization completed.
    -- Stationary point found.
 Normal termination of Gaussian 09 at Mon Jan 27 11:17:54 2020.

 ----------------------------------------------------------------------
 #N Geom=AllCheck Guess=TCheck SCRF=Check GenChk RB3LYP/6-31G(2df,p) Fr
 eq
 ----------------------------------------------------------------------

 Structure from the checkpoint file:  "/scratch/puck/g09_4bb90a84-ab08-46cb-ae4a-f5e0c12fd517/Gau-49385.chk"
 -----
 titel
 -----
 Charge =  0 Multiplicity = 1

                         Standard orientation:
 ---------------------------------------------------------------------
 Center     Atomic      Atomic             Coordinates (Angstroms)
 Number     Number       Type             X           Y           Z
 ---------------------------------------------------------------------
      1          6           0        0.000210    0.000001    1.563200
      2          6           0        0.014944    0.742209    0.234496
      3          6           0       -1.287437    1.191692   -0.384179
      4          6           0       -2.140108   -0.107148   -0.317570
      5          8           0       -1.231815   -1.220397   -0.265636
      6          6           0       -0.014878   -0.742287    0.234487
      7          6           0        1.287371   -1.191568   -0.384656
      8          6           0        2.140078    0.107136   -0.317200
      9          8           0        1.231715    1.220300   -0.266239
     10          1           0        0.911457   -0.012303    2.151213
     11          1           0       -0.911284    0.012299    2.150847
     12          1           0       -1.785368    2.025593    0.118017
     13          1           0       -1.083645    1.483906   -1.418880
     14          1           0       -2.775240   -0.106896    0.578761
     15          1           0       -2.788734   -0.242255   -1.187250
     16          1           0        1.785283   -2.025951    0.116747
     17          1           0        1.083361   -1.482863   -1.419591
     18          1           0        2.774258    0.106762    0.579826
     19          1           0        2.789637    0.242277   -1.186165
 ---------------------------------------------------------------------

 SCF Done:  E(RB3LYP) =  -423.170400985     A.U. after    1 cycles

 The electronic state is 1-A.
 Alpha  occ. eigenvalues --  -19.14278 -19.14276 -10.23286 -10.23286 -10.22934
 Alpha  occ. eigenvalues --  -10.22903 -10.19102 -10.19101 -10.18656  -1.05544
 Alpha  occ. eigenvalues --   -1.02911  -0.83897  -0.78211  -0.73439  -0.66852
 Alpha  occ. eigenvalues --   -0.62164  -0.57240  -0.54931  -0.50624  -0.48532
 Alpha  occ. eigenvalues --   -0.45916  -0.45306  -0.44038  -0.42600  -0.40629
 Alpha  occ. eigenvalues --   -0.39883  -0.37693  -0.37104  -0.33501  -0.33129
 Alpha  occ. eigenvalues --   -0.31193  -0.30554  -0.24324  -0.22114
 Alpha virt. eigenvalues --    0.08337   0.08647   0.09791   0.11768   0.12115
 Alpha virt. eigenvalues --    0.14229   0.14417   0.16002   0.16073   0.17295
 Alpha virt. eigenvalues --    0.17763   0.20220   0.20767   0.21777   0.21974

 Mulliken charges:
               1
     1  C   -0.427011
     2  C    0.387072
     3  C   -0.321366
     4  C   -0.102855
     5  O   -0.314007
     6  C    0.387016
     7  C   -0.321273
     8  C   -0.102905
     9  O   -0.313977
    10  H    0.117730
    11  H    0.117723
    12  H    0.108954
    13  H    0.119256
    14  H    0.103706
    15  H    0.115043
    16  H    0.108939
    17  H    0.119226
    18  H    0.103690
    19  H    0.115040
 Sum of Mulliken charges =   0.00000

 Dipole moment (field-independent basis, Debye):
    X=              0.0001    Y=              0.0005    Z=              0.1706  Tot=              0.1706
 Quadrupole moment (field-independent basis, Debye-Ang):
   XX=            -48.4705   YY=            -58.1093   ZZ=            -51.3674
   XY=             -5.4085   XZ=              0.0014   YZ=              0.0013

  Exact polarizability:  84.779  -4.510  65.066   0.001   0.001  69.886
 Approx polarizability: 110.617  -3.324 102.711   0.001  -0.001 105.338

                      1                      2                      3
                      A                      A                      A
 Frequencies --    168.4185               197.9949               200.5208
 Red. masses --      2.0905                 2.7709                 2.0810
 Frc consts  --      0.0349                 0.0640                 0.0493
 IR Inten    --      2.6306                 3.4515                 1.1444

                      4                      5                      6
                      A                      A                      A
 Frequencies --    342.5893               369.3288               422.5998
 Red. masses --      2.9322                 3.8806                 2.2504
 Frc consts  --      0.2028                 0.3119                 0.2368
 IR Inten    --      2.7923                 5.8659                 3.6547

                      7                      8                      9
                      A                      A                      A
 Frequencies --    544.6017               573.9576               609.5761
 Red. masses --      3.3141                 3.6068                 5.0313
 Frc consts  --      0.5791                 0.7000                 1.1015
 IR Inten    --     12.9701                 0.1184                 0.2328

                     10                     11                     12
                      A                      A                      A
 Frequencies --    679.9969               751.4940               781.4527
 Red. masses --      2.0414                 4.7962                 2.3133
 Frc consts  --      0.5561                 1.5959                 0.8323
 IR Inten    --      1.5385                 5.1047                 1.8016

                     13                     14                     15
                      A                      A                      A
 Frequencies --    846.0797               871.3943               894.9192
 Red. masses --      2.0775                 1.6414                 1.8339
 Frc consts  --      0.8762                 0.7343                 0.8653
 IR Inten    --      4.7505                14.9627                 0.0478

                     16                     17                     18
                      A                      A                      A
 Frequencies --    902.1539               913.7480               948.6911
 Red. masses --      1.9693                 2.2400                 2.2758
 Frc consts  --      0.9443                 1.1019                 1.2068
 IR Inten    --     10.9564                10.1450                 9.9008

                     19                     20                     21
                      A                      A                      A
 Frequencies --    949.3889              1008.3366              1011.2122
 Red. masses --      2.6278                 3.4066                 1.4819
 Frc consts  --      1.3955                 2.0407                 0.8928
 IR Inten    --      7.4317                 0.6056                 4.3931

                     22                     23                     24
                      A                      A                      A
 Frequencies --   1033.3777              1065.4501              1093.7794
 Red. masses --      3.6524                 2.7811                 2.1455
 Frc consts  --      2.2980                 1.8601                 1.5123
 IR Inten    --     84.9853                54.6550                 3.0597

                     25                     26                     27
                      A                      A                      A
 Frequencies --   1150.9294              1200.2100              1209.7870
 Red. masses --      2.6822                 1.4264                 1.4216
 Frc consts  --      2.0934                 1.2106                 1.2259
 IR Inten    --      9.2700                 4.0060                 5.4328

                     28                     29                     30
                      A                      A                      A
 Frequencies --   1225.6015              1238.4426              1242.0139
 Red. masses --      1.4392                 1.2976                 1.2529
 Frc consts  --      1.2737                 1.1726                 1.1388
 IR Inten    --      9.3180                 1.6714                 6.3507

                     31                     32                     33
                      A                      A                      A
 Frequencies --   1259.3644              1309.3058              1329.0369
 Red. masses --      1.9413                 2.0153                 1.5654
 Frc consts  --      1.8140                 2.0355                 1.6291
 IR Inten    --     55.5337                68.3783                 0.3479

                     34                     35                     36
                      A                      A                      A
 Frequencies --   1380.5346              1389.9526              1404.7898
 Red. masses --      2.4988                 1.3276                 1.7217
 Frc consts  --      2.8059                 1.5112                 2.0019
 IR Inten    --      4.8675                 6.6589                 0.5039

                     37                     38                     39
                      A                      A                      A
 Frequencies --   1470.3491              1492.0311              1498.1842
 Red. masses --      1.4312                 1.0979                 1.1513
 Frc consts  --      1.8230                 1.4400                 1.5225
 IR Inten    --     17.0948                 2.0325                 0.0986

                     40                     41                     42
                      A                      A                      A
 Frequencies --   1523.1925              1525.3193              3008.6871
 Red. masses --      1.1000                 1.0907                 1.0698
 Frc consts  --      1.5037                 1.4952                 5.7057
 IR Inten    --      0.9046                 2.2708                89.0736

                     43                     44                     45
                      A                      A                      A
 Frequencies --   3009.6746              3056.2425              3057.1947
 Red. masses --      1.0701                 1.0592                 1.0595
 Frc consts  --      5.7108                 5.8293                 5.8341
 IR Inten    --     18.0641                44.0208                 3.8174

                     46                     47                     48
                      A                      A                      A
 Frequencies --   3087.2978              3087.6531              3105.8331
 Red. masses --      1.0948                 1.0943                 1.1063
 Frc consts  --      6.1482                 6.1468                 6.2874
 IR Inten    --     43.6375                20.9390                10.0258

                     49                     50                     51
                      A                      A                      A
 Frequencies --   3106.4780              3133.2853              3222.7543
 Red. masses --      1.1060                 1.0544                 1.1173
 Frc consts  --      6.2884                 6.0989                 6.8370
 IR Inten    --     40.2024                 8.4776                 5.8866

 - Thermochemistry -
 -------------------
 Temperature   298.150 Kelvin.  Pressure   1.00000 Atm.
 Atom     1 has atomic number  6 and mass  12.00000

 Molecular mass:   126.06808 amu.
 Principal axes and moments of inertia in atomic units:
                           1         2         3
     Eigenvalues --   583.244331057.891721242.62880
           X            0.99797  -0.06366   0.00001
           Y            0.06366   0.99797   0.00004
           Z           -0.00001  -0.00004   1.00000
 This molecule is an asymmetric top.
 Rotational symmetry number  1.
 Warning -- assumption of classical behavior for rotation
           may cause significant error
 Rotational temperatures (Kelvin)      0.14850     0.08187     0.06970
 Rotational constants (GHZ):           3.09431     1.70598     1.45236
 Zero-point vibrational energy     424107.3 (Joules/Mol)
                                  101.36408 (Kcal/Mol)
 Warning -- explicit consideration of   9 degrees of freedom as
           vibrations may cause significant error
 Vibrational temperatures:    242.32   284.87   288.50   492.91   531.38
          (Kelvin)            608.03   783.56   825.80   877.04   978.36
                             1081.23  1124.33  1217.32  1253.74  1287.59
                             1298.00  1314.68  1364.95  1365.96  1450.77
                             1454.91  1486.80  1532.94  1573.70  1655.93
                             1726.83  1740.61  1763.36  1781.84  1786.98
                             1811.94  1883.80  1912.19  1986.28  1999.83
                             2021.18  2115.50  2146.70  2155.55  2191.53
                             2194.59  4328.82  4330.24  4397.25  4398.62
                             4441.93  4442.44  4468.60  4469.52  4508.09
                             4636.82

 Zero-point correction=                           0.161534 (Hartree/Particle)
 Thermal correction to Energy=                    0.168633
 Thermal correction to Enthalpy=                  0.169577
 Thermal correction to Gibbs Free Energy=         0.130363
 Sum of electronic and zero-point Energies=           -423.008867
 Sum of electronic and thermal Energies=              -423.001768
 Sum of electronic and thermal Enthalpies=            -423.000824
 Sum of electronic and thermal Free Energies=         -423.040038

                     E (Thermal)             CV                S
                      KCal/Mol        Cal/Mol-Kelvin    Cal/Mol-Kelvin
 Total                  105.819             29.094             82.533
 Electronic               0.000              0.000              0.000
 Translational            0.889              2.981             40.409
 Rotational               0.889              2.981             28.130
 Vibrational            104.041             23.132             13.994
 Vibration     1          0.625              1.881              2.453
 Vibration     2          0.637              1.843              2.152
 Vibration     3          0.638              1.839              2.128
 Vibration     4          0.722              1.590              1.200
 Vibration     5          0.742              1.535              1.083
 Vibration     6          0.785              1.421              0.883
 Vibration     7          0.900              1.152              0.555
 Vibration     8          0.930              1.088              0.497
 Vibration     9          0.969              1.012              0.433

 Optimization completed.
    -- Stationary point found.
 Normal termination of Gaussian 09 at Mon Jan 27 12:09:16 2020.
