 Gaussian 09, Revision D.01,
 Gaussian 09:  ES64L-G09RevD.01 24-Apr-2013

 -----------------------------
 # b3lyp 6-31G(2df,p) opt Freq
 -----------------------------

 -----
 titel
 -----
 Symbolic Z-matrix:
 Charge =  0 Multiplicity = 1

 SCF Done:  E(RB3LYP) =  -423.187338558     A.U. after   14 cycles
 Optimization completed.
    -- Stationary point found.
 Normal termination of Gaussian 09 at Mon Jan 27 22:56:16 2020.

 ----------------------------------------------------------------------
 #N Geom=AllCheck Guess=TCheck SCRF=Check GenChk RB3LYP/6-31G(2df,p) Fr
 eq
 ----------------------------------------------------------------------

 Structure from the checkpoint file:  "/scratch/puck/g09_32fa3908-0106-441c-a780-990b17b19aa4/Gau-65261.chk"
 -----
 titel
 -----
 Charge =  0 Multiplicity = 1

                         Standard orientation:
 ---------------------------------------------------------------------
 Center     Atomic      Atomic             Coordinates (Angstroms)
 Number     Number       Type             X           Y           Z
 ---------------------------------------------------------------------
      1          6           0        2.597957   -1.433747    0.221279
      2          6           0        1.505431   -0.407251    0.429824
      3          6           0        1.584401    0.878971   -0.337655
      4          6           0        0.471862    1.831422    0.121318
      5          6           0       -0.569335    0.768230   -0.318960
      6          8           0       -1.455843    0.364887    0.748951
      7          6           0       -2.382408   -0.542573    0.420213
      8          8           0       -2.534644   -1.038898   -0.663131
      9          6           0        0.541947   -0.192423   -0.710039
     10          1           0        2.956020   -1.424991   -0.813735
     11          1           0        3.456052   -1.234495    0.871924
     12          1           0        2.238141   -2.444675    0.439698
     13          1           0        1.110088   -0.368172    1.444081
     14          1           0        2.469842    1.167436   -0.890306
     15          1           0        0.466170    2.078619    1.187042
     16          1           0        0.393851    2.752385   -0.459413
     17          1           0       -1.177244    1.077352   -1.170310
     18          1           0       -2.994753   -0.765351    1.308610
     19          1           0        0.506598   -0.861799   -1.560033
 ---------------------------------------------------------------------

 SCF Done:  E(RB3LYP) =  -423.187338558     A.U. after    1 cycles

 The electronic state is 1-A.
 Alpha  occ. eigenvalues --  -19.18441 -19.12994 -10.30457 -10.24689 -10.19752
 Alpha  occ. eigenvalues --  -10.19681 -10.19248 -10.19234 -10.18192  -1.10152
 Alpha  occ. eigenvalues --   -1.01721  -0.90258  -0.76607  -0.69668  -0.67253
 Alpha  occ. eigenvalues --   -0.61376  -0.56862  -0.52985  -0.52061  -0.50699
 Alpha  occ. eigenvalues --   -0.47126  -0.46673  -0.42994  -0.42154  -0.40608
 Alpha  occ. eigenvalues --   -0.38626  -0.37870  -0.36838  -0.35029  -0.33280
 Alpha  occ. eigenvalues --   -0.30108  -0.28175  -0.27520  -0.26416
 Alpha virt. eigenvalues --    0.01133   0.09236   0.09937   0.10575   0.12114
 Alpha virt. eigenvalues --    0.12835   0.14806   0.14965   0.15845   0.16273
 Alpha virt. eigenvalues --    0.17515   0.18376   0.18800   0.19565   0.23223

 Mulliken charges:
               1
     1  C   -0.425358
     2  C    0.004191
     3  C   -0.063078
     4  C   -0.291440
     5  C    0.122624
     6  O   -0.215167
     7  C    0.179847
     8  O   -0.309121
     9  C   -0.067204
    10  H    0.117195
    11  H    0.119912
    12  H    0.123444
    13  H    0.086240
    14  H    0.089453
    15  H    0.108756
    16  H    0.111115
    17  H    0.106818
    18  H    0.106549
    19  H    0.095223
 Sum of Mulliken charges =   0.00000

 Dipole moment (field-independent basis, Debye):
    X=              1.5942    Y=              1.0639    Z=              0.7559  Tot=              2.0603
 Quadrupole moment (field-independent basis, Debye-Ang):
   XX=            -54.3388   YY=            -52.9772   ZZ=            -52.9984
   XY=             -2.6928   XZ=             -4.3728   YZ=             -3.0382

  Exact polarizability:  85.932   1.980  75.789  -0.675   0.018  67.296
 Approx polarizability: 110.004   7.857 108.757   2.596   5.589 110.524

                      1                      2                      3
                      A                      A                      A
 Frequencies --     41.8632               121.0188               168.3434
 Red. masses --      7.0368                 3.3764                 3.1332
 Frc consts  --      0.0073                 0.0291                 0.0523
 IR Inten    --      1.3720                 0.7645                 3.4592

                      4                      5                      6
                      A                      A                      A
 Frequencies --    224.1334               249.8609               261.3975
 Red. masses --      1.3098                 2.3525                 2.3807
 Frc consts  --      0.0388                 0.0865                 0.0958
 IR Inten    --      1.8520                 0.8737                 0.2944

                      7                      8                      9
                      A                      A                      A
 Frequencies --    299.3665               375.1091               424.4408
 Red. masses --      2.5466                 3.0105                 2.6737
 Frc consts  --      0.1345                 0.2496                 0.2838
 IR Inten    --     16.1029                 3.7800                 1.8440

                     10                     11                     12
                      A                      A                      A
 Frequencies --    572.1825               683.2398               764.9953
 Red. masses --      4.6416                 3.7034                 2.5243
 Frc consts  --      0.8953                 1.0186                 0.8704
 IR Inten    --      4.8649                 2.9708                 4.9252

                     13                     14                     15
                      A                      A                      A
 Frequencies --    797.7416               814.3327               860.0757
 Red. masses --      4.7321                 2.1058                 2.3014
 Frc consts  --      1.7743                 0.8227                 1.0030
 IR Inten    --      3.3160                 4.4395                 3.4104

                     16                     17                     18
                      A                      A                      A
 Frequencies --    878.4322               972.6606               984.0634
 Red. masses --      1.5034                 1.4718                 1.8347
 Frc consts  --      0.6835                 0.8204                 1.0468
 IR Inten    --     20.9528                25.8311                11.5090

                     19                     20                     21
                      A                      A                      A
 Frequencies --   1006.5019              1033.9314              1046.7006
 Red. masses --      1.7164                 1.8720                 1.4108
 Frc consts  --      1.0244                 1.1791                 0.9106
 IR Inten    --      3.4796                 4.1205                 0.5247

                     22                     23                     24
                      A                      A                      A
 Frequencies --   1048.9906              1056.3621              1090.2522
 Red. masses --      1.6074                 1.9845                 2.3860
 Frc consts  --      1.0421                 1.3047                 1.6710
 IR Inten    --      0.0828                14.8663                20.4954

                     25                     26                     27
                      A                      A                      A
 Frequencies --   1109.7746              1148.1308              1163.5773
 Red. masses --      2.1909                 1.5581                 1.4359
 Frc consts  --      1.5898                 1.2101                 1.1454
 IR Inten    --      3.1176                 7.9887                13.2593

                     28                     29                     30
                      A                      A                      A
 Frequencies --   1202.4140              1220.8668              1243.2663
 Red. masses --      4.5984                 2.1706                 1.6633
 Frc consts  --      3.9171                 1.9062                 1.5148
 IR Inten    --    326.9296                78.2259                 0.3542

                     31                     32                     33
                      A                      A                      A
 Frequencies --   1256.2456              1293.6190              1319.0449
 Red. masses --      1.3937                 1.7579                 1.4167
 Frc consts  --      1.2959                 1.7333                 1.4523
 IR Inten    --      0.7738                 3.5369                 1.5465

                     34                     35                     36
                      A                      A                      A
 Frequencies --   1376.0455              1408.0704              1419.2657
 Red. masses --      1.2681                 1.1551                 1.2374
 Frc consts  --      1.4147                 1.3493                 1.4685
 IR Inten    --     20.0421                 1.5803                 2.1556

                     37                     38                     39
                      A                      A                      A
 Frequencies --   1431.2859              1485.1216              1494.0707
 Red. masses --      2.4716                 1.1065                 1.0448
 Frc consts  --      2.9832                 1.4379                 1.3741
 IR Inten    --      1.8159                 2.0285                 1.8576

                     40                     41                     42
                      A                      A                      A
 Frequencies --   1505.1312              1816.3046              3020.9914
 Red. masses --      1.0823                 9.5475                 1.0900
 Frc consts  --      1.4447                18.5573                 5.8610
 IR Inten    --      5.0803               253.8508                75.9678

                     43                     44                     45
                      A                      A                      A
 Frequencies --   3030.4047              3058.3271              3093.9409
 Red. masses --      1.0351                 1.0608                 1.0972
 Frc consts  --      5.6006                 5.8459                 6.1882
 IR Inten    --     32.4900                33.6329                 7.1415

                     46                     47                     48
                      A                      A                      A
 Frequencies --   3096.1854              3100.0932              3114.8157
 Red. masses --      1.1013                 1.0902                 1.0918
 Frc consts  --      6.2203                 6.1730                 6.2408
 IR Inten    --     21.5695                 7.3951                29.4760

                     49                     50                     51
                      A                      A                      A
 Frequencies --   3120.6107              3187.3932              3198.9692
 Red. masses --      1.1023                 1.0892                 1.0962
 Frc consts  --      6.3246                 6.5194                 6.6096
 IR Inten    --     28.1354                13.3926                10.0844

 - Thermochemistry -
 -------------------
 Temperature   298.150 Kelvin.  Pressure   1.00000 Atm.
 Atom     1 has atomic number  6 and mass  12.00000

 Molecular mass:   126.06808 amu.
 Principal axes and moments of inertia in atomic units:
                           1         2         3
     Eigenvalues --   619.249941566.018871889.58365
           X            0.99944  -0.03322  -0.00480
           Y            0.03309   0.99916  -0.02435
           Z            0.00560   0.02418   0.99969
 This molecule is an asymmetric top.
 Rotational symmetry number  1.
 Warning -- assumption of classical behavior for rotation
           may cause significant error
 Rotational temperatures (Kelvin)      0.13987     0.05531     0.04584
 Rotational constants (GHZ):           2.91440     1.15244     0.95510
 Zero-point vibrational energy     416838.5 (Joules/Mol)
                                   99.62680 (Kcal/Mol)
 Warning -- explicit consideration of  10 degrees of freedom as
           vibrations may cause significant error
 Vibrational temperatures:     60.23   174.12   242.21   322.48   359.49
          (Kelvin)            376.09   430.72   539.70   610.67   823.24
                              983.03  1100.66  1147.77  1171.64  1237.46
                             1263.87  1399.44  1415.85  1448.13  1487.59
                             1505.97  1509.26  1519.87  1568.63  1596.72
                             1651.90  1674.13  1730.00  1756.55  1788.78
                             1807.45  1861.23  1897.81  1979.82  2025.90
                             2042.00  2059.30  2136.76  2149.63  2165.55
                             2613.25  4346.53  4360.07  4400.25  4451.49
                             4454.71  4460.34  4481.52  4489.86  4585.94
                             4602.60

 Zero-point correction=                           0.158765 (Hartree/Particle)
 Thermal correction to Energy=                    0.167395
 Thermal correction to Enthalpy=                  0.168339
 Thermal correction to Gibbs Free Energy=         0.124770
 Sum of electronic and zero-point Energies=           -423.028573
 Sum of electronic and thermal Energies=              -423.019944
 Sum of electronic and thermal Enthalpies=            -423.018999
 Sum of electronic and thermal Free Energies=         -423.062569

                     E (Thermal)             CV                S
                      KCal/Mol        Cal/Mol-Kelvin    Cal/Mol-Kelvin
 Total                  105.042             31.934             91.700
 Electronic               0.000              0.000              0.000
 Translational            0.889              2.981             40.409
 Rotational               0.889              2.981             28.995
 Vibrational            103.264             25.973             22.296
 Vibration     1          0.594              1.980              5.169
 Vibration     2          0.609              1.932              3.084
 Vibration     3          0.625              1.881              2.454
 Vibration     4          0.649              1.804              1.925
 Vibration     5          0.663              1.763              1.732
 Vibration     6          0.669              1.743              1.652
 Vibration     7          0.692              1.675              1.420
 Vibration     8          0.746              1.523              1.059
 Vibration     9          0.786              1.417              0.877
 Vibration    10          0.928              1.091              0.500

 Optimization completed.
    -- Stationary point found.
 Normal termination of Gaussian 09 at Mon Jan 27 23:36:33 2020.
