 Gaussian 09, Revision D.01,
 Gaussian 09:  ES64L-G09RevD.01 24-Apr-2013

 -----------------------------
 # b3lyp 6-31G(2df,p) opt Freq
 -----------------------------

 -----
 titel
 -----
 Symbolic Z-matrix:
 Charge =  0 Multiplicity = 1

 SCF Done:  E(RB3LYP) =  -423.183844620     A.U. after   13 cycles
 Optimization completed.
    -- Stationary point found.
 Normal termination of Gaussian 09 at Mon Jan 27 11:19:51 2020.

 ----------------------------------------------------------------------
 #N Geom=AllCheck Guess=TCheck SCRF=Check GenChk RB3LYP/6-31G(2df,p) Fr
 eq
 ----------------------------------------------------------------------

 Structure from the checkpoint file:  "/scratch/puck/g09_92e5b362-10a7-4203-b1e3-91eff68373c4/Gau-32408.chk"
 -----
 titel
 -----
 Charge =  0 Multiplicity = 1

                         Standard orientation:
 ---------------------------------------------------------------------
 Center     Atomic      Atomic             Coordinates (Angstroms)
 Number     Number       Type             X           Y           Z
 ---------------------------------------------------------------------
      1          6           0        1.547933   -0.574872   -0.780494
      2          8           0        1.749103    0.542459    0.093904
      3          6           0        0.561507    0.762690    0.860983
      4          6           0       -0.463154    1.608499    0.088040
      5          6           0       -1.090653    0.777968   -1.061630
      6          6           0       -1.130017   -0.683772   -0.611999
      7          8           0       -1.458219   -0.697551    0.813086
      8          6           0       -0.039859   -0.656062    1.084999
      9          6           0        0.285941   -1.264101   -0.287270
     10          1           0        1.475901   -0.238192   -1.824146
     11          1           0        2.422259   -1.231904   -0.702934
     12          1           0        0.875471    1.261987    1.780979
     13          1           0       -1.252358    1.907532    0.783572
     14          1           0        0.017247    2.517060   -0.283864
     15          1           0       -2.104170    1.130341   -1.276504
     16          1           0       -0.518489    0.872348   -1.991587
     17          1           0       -1.812852   -1.310232   -1.191180
     18          1           0        0.230285   -1.137805    2.026251
     19          1           0        0.309452   -2.352499   -0.332282
 ---------------------------------------------------------------------

 SCF Done:  E(RB3LYP) =  -423.183844620     A.U. after    1 cycles

 The electronic state is 1-A.
 Alpha  occ. eigenvalues --  -19.13376 -19.13282 -10.23787 -10.23358 -10.22797
 Alpha  occ. eigenvalues --  -10.22791 -10.19347 -10.18493 -10.17876  -1.05100
 Alpha  occ. eigenvalues --   -1.02087  -0.79045  -0.76795  -0.73758  -0.66580
 Alpha  occ. eigenvalues --   -0.61534  -0.57520  -0.53935  -0.52431  -0.49259
 Alpha  occ. eigenvalues --   -0.46126  -0.43940  -0.42323  -0.41975  -0.40681
 Alpha  occ. eigenvalues --   -0.39778  -0.37693  -0.35077  -0.34365  -0.31744
 Alpha  occ. eigenvalues --   -0.30929  -0.29982  -0.25618  -0.23407
 Alpha virt. eigenvalues --    0.07920   0.08396   0.10424   0.12216   0.12955
 Alpha virt. eigenvalues --    0.13820   0.14689   0.15059   0.16036   0.16719
 Alpha virt. eigenvalues --    0.17437   0.18760   0.19519   0.20399   0.24024

 Mulliken charges:
               1
     1  C   -0.104403
     2  O   -0.277307
     3  C    0.071392
     4  C   -0.204147
     5  C   -0.231391
     6  C    0.082271
     7  O   -0.303308
     8  C    0.080743
     9  C   -0.064339
    10  H    0.097873
    11  H    0.104395
    12  H    0.079621
    13  H    0.112254
    14  H    0.102399
    15  H    0.104758
    16  H    0.106082
    17  H    0.076772
    18  H    0.081177
    19  H    0.085158
 Sum of Mulliken charges =   0.00000

 Dipole moment (field-independent basis, Debye):
    X=              0.0277    Y=             -0.5858    Z=             -1.0253  Tot=              1.1811
 Quadrupole moment (field-independent basis, Debye-Ang):
   XX=            -58.2165   YY=            -51.3914   ZZ=            -50.8260
   XY=             -3.5861   XZ=              2.3073   YZ=              1.4727

  Exact polarizability:  72.535  -3.013  72.484   1.621   1.720  71.429
 Approx polarizability: 107.716  -0.847 102.029  -0.660   2.470 108.552

                      1                      2                      3
                      A                      A                      A
 Frequencies --    150.6793               282.6769               364.4651
 Red. masses --      2.9282                 2.0780                 2.6146
 Frc consts  --      0.0392                 0.0978                 0.2046
 IR Inten    --      4.0121                 0.1010                 2.1384

                      4                      5                      6
                      A                      A                      A
 Frequencies --    382.2116               447.5535               523.6843
 Red. masses --      2.3787                 4.7904                 5.9669
 Frc consts  --      0.2047                 0.5653                 0.9641
 IR Inten    --      1.1301                11.7661                 0.5896

                      7                      8                      9
                      A                      A                      A
 Frequencies --    628.1922               676.9010               726.2484
 Red. masses --      4.5412                 4.4371                 3.6667
 Frc consts  --      1.0559                 1.1978                 1.1394
 IR Inten    --      0.3257                 1.1291                 3.9747

                     10                     11                     12
                      A                      A                      A
 Frequencies --    772.3874               788.2122               846.6182
 Red. masses --      2.0848                 2.6808                 2.7599
 Frc consts  --      0.7328                 0.9813                 1.1655
 IR Inten    --      4.9058                 0.9163                 1.4295

                     13                     14                     15
                      A                      A                      A
 Frequencies --    862.3264               897.8796               929.9788
 Red. masses --      2.5867                 2.7040                 2.2956
 Frc consts  --      1.1333                 1.2844                 1.1698
 IR Inten    --     10.0184                 6.2296                16.3361

                     16                     17                     18
                      A                      A                      A
 Frequencies --    940.5824               978.1370               991.8405
 Red. masses --      2.4118                 2.5220                 3.2734
 Frc consts  --      1.2572                 1.4216                 1.8973
 IR Inten    --     25.9122                20.4878                42.9724

                     19                     20                     21
                      A                      A                      A
 Frequencies --   1018.1723              1034.9678              1049.5522
 Red. masses --      2.3086                 2.3815                 2.2306
 Frc consts  --      1.4101                 1.5030                 1.4477
 IR Inten    --     21.8027                 8.0206                11.9628

                     22                     23                     24
                      A                      A                      A
 Frequencies --   1072.4009              1096.9591              1108.7815
 Red. masses --      1.7620                 1.6835                 3.3327
 Frc consts  --      1.1939                 1.1936                 2.4140
 IR Inten    --      2.7260                 9.1069                43.6847

                     25                     26                     27
                      A                      A                      A
 Frequencies --   1140.7050              1175.0631              1217.2577
 Red. masses --      2.0480                 1.2269                 1.2238
 Frc consts  --      1.5701                 0.9981                 1.0683
 IR Inten    --     15.7939                 8.1201                 1.1587

                     28                     29                     30
                      A                      A                      A
 Frequencies --   1237.3003              1250.2330              1282.7320
 Red. masses --      1.4118                 1.4260                 1.2950
 Frc consts  --      1.2735                 1.3133                 1.2554
 IR Inten    --      0.0869                 4.9686                 1.6590

                     31                     32                     33
                      A                      A                      A
 Frequencies --   1296.6091              1315.0078              1327.5589
 Red. masses --      1.8450                 1.3542                 1.3636
 Frc consts  --      1.8275                 1.3797                 1.4159
 IR Inten    --      1.8959                 2.5667                 4.6743

                     34                     35                     36
                      A                      A                      A
 Frequencies --   1333.4837              1354.3083              1367.1044
 Red. masses --      1.2686                 1.7801                 1.5434
 Frc consts  --      1.3291                 1.9237                 1.6995
 IR Inten    --      0.5540                 5.5943                 1.1086

                     37                     38                     39
                      A                      A                      A
 Frequencies --   1381.3141              1396.4830              1469.0265
 Red. masses --      1.3664                 1.4275                 1.0820
 Frc consts  --      1.5361                 1.6402                 1.3757
 IR Inten    --      2.6840                 3.0982                 2.2089

                     40                     41                     42
                      A                      A                      A
 Frequencies --   1491.7583              1528.1325              3004.7243
 Red. masses --      1.0988                 1.0880                 1.0637
 Frc consts  --      1.4407                 1.4969                 5.6583
 IR Inten    --      5.1735                 1.7696                56.4765

                     43                     44                     45
                      A                      A                      A
 Frequencies --   3042.3287              3047.1272              3059.8031
 Red. masses --      1.0619                 1.0991                 1.0637
 Frc consts  --      5.7908                 6.0126                 5.8678
 IR Inten    --     19.3039                45.6133                11.9596

                     46                     47                     48
                      A                      A                      A
 Frequencies --   3076.1668              3080.3194              3084.8480
 Red. masses --      1.0927                 1.0878                 1.0945
 Frc consts  --      6.0922                 6.0810                 6.1369
 IR Inten    --     35.4489                37.4232                34.8800

                     49                     50                     51
                      A                      A                      A
 Frequencies --   3099.8273              3110.7035              3120.9372
 Red. masses --      1.0892                 1.1052                 1.0897
 Frc consts  --      6.1662                 6.3008                 6.2535
 IR Inten    --     55.3793                22.0623                29.3947

 - Thermochemistry -
 -------------------
 Temperature   298.150 Kelvin.  Pressure   1.00000 Atm.
 Atom     1 has atomic number  6 and mass  12.00000

 Molecular mass:   126.06808 amu.
 Principal axes and moments of inertia in atomic units:
                           1         2         3
     Eigenvalues --   692.74144 882.468941010.59177
           X            0.99313  -0.11427   0.02539
           Y            0.11358   0.99316   0.02702
           Z           -0.02831  -0.02395   0.99931
 This molecule is an asymmetric top.
 Rotational symmetry number  1.
 Warning -- assumption of classical behavior for rotation
           may cause significant error
 Rotational temperatures (Kelvin)      0.12503     0.09815     0.08571
 Rotational constants (GHZ):           2.60522     2.04510     1.78583
 Zero-point vibrational energy     429831.8 (Joules/Mol)
                                  102.73227 (Kcal/Mol)
 Warning -- explicit consideration of   6 degrees of freedom as
           vibrations may cause significant error
 Vibrational temperatures:    216.79   406.71   524.38   549.92   643.93
          (Kelvin)            753.46   903.83   973.91  1044.91  1111.29
                             1134.06  1218.09  1240.69  1291.85  1338.03
                             1353.29  1407.32  1427.04  1464.92  1489.09
                             1510.07  1542.94  1578.28  1595.29  1641.22
                             1690.65  1751.36  1780.20  1798.80  1845.56
                             1865.53  1892.00  1910.06  1918.58  1948.55
                             1966.96  1987.40  2009.23  2113.60  2146.30
                             2198.64  4323.12  4377.23  4384.13  4402.37
                             4425.91  4431.89  4438.40  4459.95  4475.60
                             4490.33

 Zero-point correction=                           0.163714 (Hartree/Particle)
 Thermal correction to Energy=                    0.170030
 Thermal correction to Enthalpy=                  0.170974
 Thermal correction to Gibbs Free Energy=         0.133290
 Sum of electronic and zero-point Energies=           -423.020130
 Sum of electronic and thermal Energies=              -423.013815
 Sum of electronic and thermal Enthalpies=            -423.012870
 Sum of electronic and thermal Free Energies=         -423.050555

                     E (Thermal)             CV                S
                      KCal/Mol        Cal/Mol-Kelvin    Cal/Mol-Kelvin
 Total                  106.695             26.819             79.314
 Electronic               0.000              0.000              0.000
 Translational            0.889              2.981             40.409
 Rotational               0.889              2.981             27.915
 Vibrational            104.918             20.857             10.990
 Vibration     1          0.618              1.902              2.664
 Vibration     2          0.682              1.706              1.517
 Vibration     3          0.738              1.545              1.103
 Vibration     4          0.752              1.508              1.030
 Vibration     5          0.807              1.366              0.803
 Vibration     6          0.879              1.198              0.601

 Optimization completed.
    -- Stationary point found.
 Normal termination of Gaussian 09 at Mon Jan 27 12:11:01 2020.
