 Gaussian 09, Revision D.01,
 Gaussian 09:  ES64L-G09RevD.01 24-Apr-2013

 -----------------------------
 # b3lyp 6-31G(2df,p) opt Freq
 -----------------------------

 -----
 titel
 -----
 Symbolic Z-matrix:
 Charge =  0 Multiplicity = 1

 SCF Done:  E(RB3LYP) =  -423.154509192     A.U. after   14 cycles
 SCF Done:  E(RB3LYP) =  -423.154508747     A.U. after    8 cycles
 SCF Done:  E(RB3LYP) =  -423.154509243     A.U. after    8 cycles
 Optimization completed.
    -- Stationary point found.
 Normal termination of Gaussian 09 at Mon Jan 27 14:06:39 2020.

 ----------------------------------------------------------------------
 #N Geom=AllCheck Guess=TCheck SCRF=Check GenChk RB3LYP/6-31G(2df,p) Fr
 eq
 ----------------------------------------------------------------------

 Structure from the checkpoint file:  "/scratch/puck/g09_6036f3f5-eb96-48f6-8914-29e4d9af1de2/Gau-160149.chk"
 -----
 titel
 -----
 Charge =  0 Multiplicity = 1

                         Standard orientation:
 ---------------------------------------------------------------------
 Center     Atomic      Atomic             Coordinates (Angstroms)
 Number     Number       Type             X           Y           Z
 ---------------------------------------------------------------------
      1          6           0        4.926789   -0.546158    0.000249
      2          6           0        3.567776   -0.023435   -0.000028
      3          6           0        2.449111    0.421427   -0.000299
      4          6           0        1.081214    0.924639   -0.000006
      5          6           0        0.050184   -0.207932   -0.000244
      6          8           0       -1.235043    0.379772    0.000044
      7          6           0       -2.281783   -0.554367   -0.000137
      8          6           0       -3.596739    0.206388    0.000182
      9          8           0       -4.674343   -0.325544    0.000135
     10          1           0        5.481611   -0.214043    0.884677
     11          1           0        4.931237   -1.641784   -0.000169
     12          1           0        5.482209   -0.213368   -0.883549
     13          1           0        0.902011    1.556559    0.878420
     14          1           0        0.901849    1.557070   -0.878031
     15          1           0        0.186204   -0.844953   -0.888078
     16          1           0        0.186364   -0.845474    0.887192
     17          1           0       -2.252828   -1.211095   -0.886462
     18          1           0       -2.252686   -1.211600    0.885807
     19          1           0       -3.470184    1.311502    0.000460
 ---------------------------------------------------------------------

 SCF Done:  E(RB3LYP) =  -423.154509243     A.U. after    1 cycles

 The electronic state is 1-A.
 Alpha  occ. eigenvalues --  -19.15880 -19.14575 -10.27686 -10.24644 -10.24315
 Alpha  occ. eigenvalues --  -10.20970 -10.20541 -10.17584 -10.17159  -1.05974
 Alpha  occ. eigenvalues --   -1.04844  -0.80654  -0.76989  -0.73352  -0.67995
 Alpha  occ. eigenvalues --   -0.62774  -0.58898  -0.52329  -0.50425  -0.47452
 Alpha  occ. eigenvalues --   -0.46973  -0.45752  -0.44323  -0.42860  -0.42726
 Alpha  occ. eigenvalues --   -0.42346  -0.40469  -0.39302  -0.36556  -0.34208
 Alpha  occ. eigenvalues --   -0.27404  -0.26041  -0.25174  -0.25098
 Alpha virt. eigenvalues --   -0.02898   0.05402   0.05941   0.07934   0.10848
 Alpha virt. eigenvalues --    0.11757   0.12805   0.14018   0.14471   0.16112
 Alpha virt. eigenvalues --    0.17358   0.17616   0.17882   0.20993   0.21881

 Mulliken charges:
               1
     1  C   -0.496559
     2  C    0.080419
     3  C    0.033316
     4  C   -0.352502
     5  C   -0.044843
     6  O   -0.245314
     7  C   -0.145003
     8  C    0.139015
     9  O   -0.236420
    10  H    0.148630
    11  H    0.147771
    12  H    0.148631
    13  H    0.136520
    14  H    0.136507
    15  H    0.103167
    16  H    0.103167
    17  H    0.123284
    18  H    0.123284
    19  H    0.096929
 Sum of Mulliken charges =   0.00000

 Dipole moment (field-independent basis, Debye):
    X=              3.0018    Y=             -0.4502    Z=              0.0001  Tot=              3.0354
 Quadrupole moment (field-independent basis, Debye-Ang):
   XX=            -63.3433   YY=            -52.1608   ZZ=            -52.1582
   XY=             -4.0011   XZ=              0.0025   YZ=              0.0000

  Exact polarizability: 123.668  -7.646  68.099   0.004   0.000  56.574
 Approx polarizability: 155.534 -13.455 102.524   0.010  -0.002  84.535

                      1                      2                      3
                      A                      A                      A
 Frequencies --     12.2779                34.8683                51.7861
 Red. masses --      1.0425                 4.0980                 2.4271
 Frc consts  --      0.0001                 0.0029                 0.0038
 IR Inten    --      0.0020                 1.4273                 9.1871

                      4                      5                      6
                      A                      A                      A
 Frequencies --     58.4379               110.8253               119.3109
 Red. masses --      4.4655                 2.8683                 2.5244
 Frc consts  --      0.0090                 0.0208                 0.0212
 IR Inten    --      0.0993                 5.6976                 0.3263

                      7                      8                      9
                      A                      A                      A
 Frequencies --    141.8038               222.9670               270.6335
 Red. masses --      5.0895                 2.7966                 4.2075
 Frc consts  --      0.0603                 0.0819                 0.1816
 IR Inten    --      4.2537                11.2977                 3.8701

                     10                     11                     12
                      A                      A                      A
 Frequencies --    320.1216               391.5981               393.3403
 Red. masses --      5.3418                 4.7283                 3.9876
 Frc consts  --      0.3225                 0.4272                 0.3635
 IR Inten    --      6.1957                 5.3401                 0.0390

                     13                     14                     15
                      A                      A                      A
 Frequencies --    522.6585               558.0640               740.6448
 Red. masses --      4.6168                 6.0731                 1.2531
 Frc consts  --      0.7431                 1.1144                 0.4050
 IR Inten    --      7.9389                 7.5018                 0.1570

                     16                     17                     18
                      A                      A                      A
 Frequencies --    782.8709               797.4418              1013.1767
 Red. masses --      3.7477                 1.1609                 3.9144
 Frc consts  --      1.3533                 0.4350                 2.3675
 IR Inten    --      0.6444                 0.0701                71.6349

                     19                     20                     21
                      A                      A                      A
 Frequencies --   1038.9164              1051.0826              1053.9155
 Red. masses --      3.9191                 1.4083                 1.4300
 Frc consts  --      2.4923                 0.9167                 0.9358
 IR Inten    --      1.6499                 0.4790                 0.6594

                     22                     23                     24
                      A                      A                      A
 Frequencies --   1088.0521              1097.9643              1116.6868
 Red. masses --      1.5404                 5.1361                 1.7747
 Frc consts  --      1.0744                 3.6481                 1.3039
 IR Inten    --      0.7536                 6.7974                 1.9125

                     25                     26                     27
                      A                      A                      A
 Frequencies --   1163.8188              1180.0374              1225.2523
 Red. masses --      3.5026                 6.0409                 1.1410
 Frc consts  --      2.7952                 4.9562                 1.0093
 IR Inten    --     78.6939               176.0741                 0.5989

                     28                     29                     30
                      A                      A                      A
 Frequencies --   1243.8840              1300.9795              1309.1466
 Red. masses --      1.1663                 1.0865                 1.4425
 Frc consts  --      1.0632                 1.0834                 1.4566
 IR Inten    --      6.1245                 0.9369                29.7349

                     31                     32                     33
                      A                      A                      A
 Frequencies --   1350.0654              1400.0433              1415.3633
 Red. masses --      1.3342                 1.2648                 1.2487
 Frc consts  --      1.4328                 1.4607                 1.4738
 IR Inten    --     12.1028                22.1993                 5.9362

                     34                     35                     36
                      A                      A                      A
 Frequencies --   1430.7434              1477.6624              1478.4212
 Red. masses --      1.4079                 1.0839                 1.0396
 Frc consts  --      1.6980                 1.3944                 1.3388
 IR Inten    --      8.6660                 5.4487                 5.1508

                     37                     38                     39
                      A                      A                      A
 Frequencies --   1479.2396              1483.8092              1526.8081
 Red. masses --      1.0398                 1.1101                 1.0914
 Frc consts  --      1.3405                 1.4400                 1.4990
 IR Inten    --      5.5463                16.0874                 2.1718

                     40                     41                     42
                      A                      A                      A
 Frequencies --   1845.7569              2377.1022              2899.6073
 Red. masses --     10.6604                11.8219                 1.0845
 Frc consts  --     21.3980                39.3579                 5.3722
 IR Inten    --    170.5456                 0.7905                80.6360

                     43                     44                     45
                      A                      A                      A
 Frequencies --   2959.8279              2978.1289              2988.7429
 Red. masses --      1.0544                 1.0545                 1.1028
 Frc consts  --      5.4424                 5.5102                 5.8037
 IR Inten    --     35.8865                34.1799                37.3991

                     46                     47                     48
                      A                      A                      A
 Frequencies --   3009.6879              3027.1332              3029.2340
 Red. masses --      1.1065                 1.0348                 1.0579
 Frc consts  --      5.9055                 5.5871                 5.7197
 IR Inten    --     27.5146                30.7529                26.1266

                     49                     50                     51
                      A                      A                      A
 Frequencies --   3065.9488              3087.7488              3087.9114
 Red. masses --      1.1033                 1.1001                 1.1003
 Frc consts  --      6.1106                 6.1795                 6.1813
 IR Inten    --     21.0520                10.6141                10.3430

 - Thermochemistry -
 -------------------
 Temperature   298.150 Kelvin.  Pressure   1.00000 Atm.
 Atom     1 has atomic number  6 and mass  12.00000

 Molecular mass:   126.06808 amu.
 Principal axes and moments of inertia in atomic units:
                           1         2         3
     Eigenvalues --   159.826894415.145604529.96951
           X            0.99998  -0.00597   0.00000
           Y            0.00597   0.99998   0.00002
           Z            0.00000  -0.00002   1.00000
 This molecule is an asymmetric top.
 Rotational symmetry number  1.
 Rotational temperatures (Kelvin)      0.54192     0.01962     0.01912
 Rotational constants (GHZ):          11.29185     0.40876     0.39840
 Zero-point vibrational energy     405603.1 (Joules/Mol)
                                   96.94148 (Kcal/Mol)
 Warning -- explicit consideration of  14 degrees of freedom as
           vibrations may cause significant error
 Vibrational temperatures:     17.67    50.17    74.51    84.08   159.45
          (Kelvin)            171.66   204.02   320.80   389.38   460.58
                              563.42   565.93   751.99   802.93  1065.62
                             1126.38  1147.34  1457.73  1494.77  1512.27
                             1516.35  1565.46  1579.72  1606.66  1674.47
                             1697.81  1762.86  1789.67  1871.82  1883.57
                             1942.44  2014.35  2036.39  2058.52  2126.02
                             2127.12  2128.29  2134.87  2196.73  2655.63
                             3420.12  4171.88  4258.53  4284.86  4300.13
                             4330.26  4355.36  4358.39  4411.21  4442.58
                             4442.81

 Zero-point correction=                           0.154486 (Hartree/Particle)
 Thermal correction to Energy=                    0.165833
 Thermal correction to Enthalpy=                  0.166777
 Thermal correction to Gibbs Free Energy=         0.114039
 Sum of electronic and zero-point Energies=           -423.000023
 Sum of electronic and thermal Energies=              -422.988676
 Sum of electronic and thermal Enthalpies=            -422.987732
 Sum of electronic and thermal Free Energies=         -423.040471

                     E (Thermal)             CV                S
                      KCal/Mol        Cal/Mol-Kelvin    Cal/Mol-Kelvin
 Total                  104.062             36.350            110.998
 Electronic               0.000              0.000              0.000
 Translational            0.889              2.981             40.409
 Rotational               0.889              2.981             29.548
 Vibrational            102.284             30.389             41.041
 Vibration     1          0.593              1.987              7.603
 Vibration     2          0.594              1.983              5.531
 Vibration     3          0.596              1.977              4.748
 Vibration     4          0.596              1.974              4.509
 Vibration     5          0.607              1.941              3.254
 Vibration     6          0.609              1.933              3.112
 Vibration     7          0.615              1.911              2.779
 Vibration     8          0.649              1.806              1.935
 Vibration     9          0.674              1.727              1.592
 Vibration    10          0.706              1.635              1.309
 Vibration    11          0.759              1.488              0.994
 Vibration    12          0.761              1.484              0.987
 Vibration    13          0.878              1.200              0.604
 Vibration    14          0.914              1.122              0.528

 Normal termination of Gaussian 09 at Mon Jan 27 14:35:47 2020.
