 Gaussian 09, Revision D.01,
 Gaussian 09:  ES64L-G09RevD.01 24-Apr-2013

 -----------------------------
 # b3lyp 6-31G(2df,p) opt Freq
 -----------------------------

 -----
 titel
 -----
 Symbolic Z-matrix:
 Charge =  0 Multiplicity = 1

 SCF Done:  E(RB3LYP) =  -423.235086750     A.U. after   14 cycles
 Optimization completed.
    -- Stationary point found.
 Normal termination of Gaussian 09 at Mon Jan 27 13:06:22 2020.

 ----------------------------------------------------------------------
 #N Geom=AllCheck Guess=TCheck SCRF=Check GenChk RB3LYP/6-31G(2df,p) Fr
 eq
 ----------------------------------------------------------------------

 Structure from the checkpoint file:  "/scratch/puck/g09_9380cefc-4c57-45f0-84ca-49008966aa19/Gau-47869.chk"
 -----
 titel
 -----
 Charge =  0 Multiplicity = 1

                         Standard orientation:
 ---------------------------------------------------------------------
 Center     Atomic      Atomic             Coordinates (Angstroms)
 Number     Number       Type             X           Y           Z
 ---------------------------------------------------------------------
      1          8           0       -2.817127   -0.875098    0.073966
      2          6           0       -1.772776   -0.294289    0.026969
      3          6           0       -1.505218    1.201622    0.161649
      4          6           0       -0.088102    1.353398   -0.394687
      5          6           0        0.527574   -0.028718   -0.118602
      6          6           0        1.426160   -0.142083    1.143375
      7          6           0        2.665063   -0.081967    0.207927
      8          6           0        1.734804   -0.447521   -0.983107
      9          8           0       -0.585430   -0.937318   -0.158293
     10          1           0       -2.273426    1.774432   -0.358856
     11          1           0       -1.565095    1.459799    1.225210
     12          1           0       -0.122514    1.530571   -1.474929
     13          1           0        0.486631    2.162625    0.060469
     14          1           0        1.318260    0.624634    1.915144
     15          1           0        1.309096   -1.128010    1.599535
     16          1           0        3.071724    0.928623    0.120784
     17          1           0        3.484422   -0.767995    0.426544
     18          1           0        1.873244    0.076129   -1.932351
     19          1           0        1.713085   -1.524131   -1.168068
 ---------------------------------------------------------------------

 SCF Done:  E(RB3LYP) =  -423.235086750     A.U. after    1 cycles

 The electronic state is 1-A.
 Alpha  occ. eigenvalues --  -19.17574 -19.11776 -10.29980 -10.25391 -10.20413
 Alpha  occ. eigenvalues --  -10.20291 -10.19458 -10.19135 -10.19128  -1.09491
 Alpha  occ. eigenvalues --   -1.01706  -0.85609  -0.79746  -0.69699  -0.67448
 Alpha  occ. eigenvalues --   -0.63256  -0.57875  -0.54822  -0.51017  -0.49414
 Alpha  occ. eigenvalues --   -0.47578  -0.45316  -0.42589  -0.41403  -0.40648
 Alpha  occ. eigenvalues --   -0.39211  -0.38985  -0.35687  -0.34762  -0.34491
 Alpha  occ. eigenvalues --   -0.32760  -0.31954  -0.28163  -0.26092
 Alpha virt. eigenvalues --    0.01621   0.06781   0.08118   0.10005   0.11176
 Alpha virt. eigenvalues --    0.12689   0.14513   0.15317   0.16854   0.17591
 Alpha virt. eigenvalues --    0.18467   0.18708   0.19399   0.19928   0.21524

 Mulliken charges:
               1
     1  O   -0.335322
     2  C    0.412826
     3  C   -0.362923
     4  C   -0.286944
     5  C    0.439626
     6  C   -0.280258
     7  C   -0.215270
     8  C   -0.285707
     9  O   -0.260368
    10  H    0.139319
    11  H    0.140310
    12  H    0.116488
    13  H    0.114626
    14  H    0.098672
    15  H    0.121611
    16  H    0.108139
    17  H    0.110288
    18  H    0.100947
    19  H    0.123940
 Sum of Mulliken charges =   0.00000

 Dipole moment (field-independent basis, Debye):
    X=              3.2512    Y=              2.7986    Z=              0.0735  Tot=              4.2905
 Quadrupole moment (field-independent basis, Debye-Ang):
   XX=            -61.1654   YY=            -53.5304   ZZ=            -51.3716
   XY=             -6.1885   XZ=              0.1813   YZ=             -0.2002

  Exact polarizability:  91.690  -0.372  69.094  -0.777   0.091  65.011
 Approx polarizability: 122.836   4.542 103.625  -1.386   0.746  96.804

                      1                      2                      3
                      A                      A                      A
 Frequencies --     96.0564               122.5415               141.4841
 Red. masses --      5.4895                 2.3843                 2.1293
 Frc consts  --      0.0298                 0.0211                 0.0251
 IR Inten    --      0.4475                 1.7964                 1.5181

                      4                      5                      6
                      A                      A                      A
 Frequencies --    275.9034               351.7008               413.8507
 Red. masses --      2.3709                 2.2295                 4.2981
 Frc consts  --      0.1063                 0.1625                 0.4337
 IR Inten    --      0.8885                 1.2946                 1.6088

                      7                      8                      9
                      A                      A                      A
 Frequencies --    443.4400               519.4273               539.8775
 Red. masses --      3.2792                 4.9735                 2.2357
 Frc consts  --      0.3799                 0.7906                 0.3839
 IR Inten    --      1.0780                 2.9601                 3.6730

                     10                     11                     12
                      A                      A                      A
 Frequencies --    654.8805               700.8498               758.0965
 Red. masses --      3.6131                 1.6573                 2.7933
 Frc consts  --      0.9130                 0.4796                 0.9459
 IR Inten    --      9.7188                 1.1978                 2.7609

                     13                     14                     15
                      A                      A                      A
 Frequencies --    790.1610               811.3543               870.8870
 Red. masses --      1.2530                 2.5082                 2.0629
 Frc consts  --      0.4609                 0.9728                 0.9218
 IR Inten    --      0.2412                 2.9058                 1.6923

                     16                     17                     18
                      A                      A                      A
 Frequencies --    913.1930               924.9353               931.6248
 Red. masses --      2.4555                 2.5098                 2.5130
 Frc consts  --      1.2064                 1.2651                 1.2851
 IR Inten    --     24.1241                 4.2726                 6.3002

                     19                     20                     21
                      A                      A                      A
 Frequencies --    974.6622               977.4273              1012.1379
 Red. masses --      2.2409                 2.9944                 2.0620
 Frc consts  --      1.2542                 1.6855                 1.2445
 IR Inten    --     24.8919                23.6843                13.7482

                     22                     23                     24
                      A                      A                      A
 Frequencies --   1042.4661              1095.9433              1123.4239
 Red. masses --      1.1603                 1.9339                 2.9667
 Frc consts  --      0.7429                 1.3685                 2.2060
 IR Inten    --      1.1005                10.9111                30.4072

                     25                     26                     27
                      A                      A                      A
 Frequencies --   1155.0514              1184.8410              1203.8545
 Red. masses --      3.8548                 1.4504                 1.8495
 Frc consts  --      3.0301                 1.1997                 1.5793
 IR Inten    --    229.6524                 8.5295                63.8383

                     28                     29                     30
                      A                      A                      A
 Frequencies --   1214.7269              1241.4549              1250.3082
 Red. masses --      1.4873                 1.5239                 1.2182
 Frc consts  --      1.2930                 1.3838                 1.1221
 IR Inten    --      1.1516                 0.5953                 0.4169

                     31                     32                     33
                      A                      A                      A
 Frequencies --   1273.9929              1298.8011              1303.7762
 Red. masses --      1.4575                 1.7545                 1.7768
 Frc consts  --      1.3937                 1.7437                 1.7794
 IR Inten    --      0.3514                33.5120                26.1972

                     34                     35                     36
                      A                      A                      A
 Frequencies --   1313.2206              1341.5552              1465.4583
 Red. masses --      1.6689                 1.7242                 1.0811
 Frc consts  --      1.6957                 1.8283                 1.3679
 IR Inten    --     20.8422                 1.0312                 6.7881

                     37                     38                     39
                      A                      A                      A
 Frequencies --   1469.6070              1485.6592              1498.5069
 Red. masses --      1.0897                 1.0878                 1.1008
 Frc consts  --      1.3866                 1.4146                 1.4564
 IR Inten    --      2.5142                 3.0674                 2.9940

                     40                     41                     42
                      A                      A                      A
 Frequencies --   1507.1449              1884.6950              3050.5341
 Red. masses --      1.1300                12.8603                 1.0674
 Frc consts  --      1.5122                26.9143                 5.8522
 IR Inten    --      3.1659               407.3745                11.6910

                     43                     44                     45
                      A                      A                      A
 Frequencies --   3056.5348              3059.5015              3063.8049
 Red. masses --      1.0647                 1.0584                 1.0591
 Frc consts  --      5.8606                 5.8373                 5.8574
 IR Inten    --      7.7646                49.6582                10.5394

                     46                     47                     48
                      A                      A                      A
 Frequencies --   3073.5660              3110.3787              3112.5993
 Red. masses --      1.0622                 1.1005                 1.1057
 Frc consts  --      5.9122                 6.2731                 6.3112
 IR Inten    --     26.0746                 6.7606                13.9521

                     49                     50                     51
                      A                      A                      A
 Frequencies --   3119.8999              3131.5568              3134.4495
 Red. masses --      1.1074                 1.0968                 1.1068
 Frc consts  --      6.3512                 6.3371                 6.4071
 IR Inten    --      8.7358                10.4777                39.3799

 - Thermochemistry -
 -------------------
 Temperature   298.150 Kelvin.  Pressure   1.00000 Atm.
 Atom     1 has atomic number  8 and mass  15.99491

 Molecular mass:   126.06808 amu.
 Principal axes and moments of inertia in atomic units:
                           1         2         3
     Eigenvalues --   474.775031541.978031687.49047
           X            0.99965  -0.02660   0.00006
           Y            0.02660   0.99964  -0.00360
           Z            0.00003   0.00360   0.99999
 This molecule is an asymmetric top.
 Rotational symmetry number  1.
 Warning -- assumption of classical behavior for rotation
           may cause significant error
 Rotational temperatures (Kelvin)      0.18243     0.05617     0.05133
 Rotational constants (GHZ):           3.80126     1.17041     1.06948
 Zero-point vibrational energy     421634.6 (Joules/Mol)
                                  100.77309 (Kcal/Mol)
 Warning -- explicit consideration of   9 degrees of freedom as
           vibrations may cause significant error
 Vibrational temperatures:    138.20   176.31   203.56   396.96   506.02
          (Kelvin)            595.44   638.01   747.34   776.76   942.23
                             1008.37  1090.73  1136.86  1167.36  1253.01
                             1313.88  1330.77  1340.40  1402.32  1406.30
                             1456.24  1499.87  1576.82  1616.35  1661.86
                             1704.72  1732.08  1747.72  1786.17  1798.91
                             1832.99  1868.68  1875.84  1889.43  1930.20
                             2108.47  2114.43  2137.53  2156.01  2168.44
                             2711.65  4389.03  4397.67  4401.93  4408.13
                             4422.17  4475.14  4478.33  4488.83  4505.61
                             4509.77

 Zero-point correction=                           0.160592 (Hartree/Particle)
 Thermal correction to Energy=                    0.168376
 Thermal correction to Enthalpy=                  0.169320
 Thermal correction to Gibbs Free Energy=         0.128073
 Sum of electronic and zero-point Energies=           -423.074495
 Sum of electronic and thermal Energies=              -423.066710
 Sum of electronic and thermal Enthalpies=            -423.065766
 Sum of electronic and thermal Free Energies=         -423.107014

                     E (Thermal)             CV                S
                      KCal/Mol        Cal/Mol-Kelvin    Cal/Mol-Kelvin
 Total                  105.658             30.339             86.812
 Electronic               0.000              0.000              0.000
 Translational            0.889              2.981             40.409
 Rotational               0.889              2.981             28.604
 Vibrational            103.880             24.377             17.800
 Vibration     1          0.603              1.952              3.533
 Vibration     2          0.610              1.930              3.060
 Vibration     3          0.615              1.912              2.784
 Vibration     4          0.678              1.718              1.559
 Vibration     5          0.728              1.572              1.159
 Vibration     6          0.777              1.440              0.913
 Vibration     7          0.803              1.375              0.816
 Vibration     8          0.874              1.207              0.611
 Vibration     9          0.895              1.162              0.566

 Optimization completed.
    -- Stationary point found.
 Normal termination of Gaussian 09 at Mon Jan 27 13:49:16 2020.
