 Gaussian 09, Revision D.01,
 Gaussian 09:  ES64L-G09RevD.01 24-Apr-2013

 -----------------------------
 # b3lyp 6-31G(2df,p) opt Freq
 -----------------------------

 -----
 titel
 -----
 Symbolic Z-matrix:
 Charge =  0 Multiplicity = 1

 SCF Done:  E(RB3LYP) =  -423.136653106     A.U. after   14 cycles
 Optimization completed.
    -- Stationary point found.
 Normal termination of Gaussian 09 at Tue Jan 28 12:39:02 2020.

 ----------------------------------------------------------------------
 #N Geom=AllCheck Guess=TCheck SCRF=Check GenChk RB3LYP/6-31G(2df,p) Fr
 eq
 ----------------------------------------------------------------------

 Structure from the checkpoint file:  "/scratch/puck/g09_0eaa975e-2e42-4e7b-b03c-2061e0412d67/Gau-106759.chk"
 -----
 titel
 -----
 Charge =  0 Multiplicity = 1

                         Standard orientation:
 ---------------------------------------------------------------------
 Center     Atomic      Atomic             Coordinates (Angstroms)
 Number     Number       Type             X           Y           Z
 ---------------------------------------------------------------------
      1          6           0        4.275717   -0.297303   -0.221009
      2          6           0        2.856474   -0.132737    0.058357
      3          6           0        1.681958    0.001894    0.294489
      4          6           0        0.283867    0.164308    0.560949
      5          6           0       -0.610419    0.921715   -0.415032
      6          8           0       -1.667391    1.696649    0.076311
      7          6           0       -0.778330   -0.554846   -0.279716
      8          6           0       -2.030618   -1.078614    0.398225
      9          8           0       -3.187562   -0.872715   -0.393953
     10          1           0        4.539251    0.118179   -1.200205
     11          1           0        4.890026    0.213968    0.528688
     12          1           0        4.566426   -1.353964   -0.221515
     13          1           0        0.007774    0.292130    1.605237
     14          1           0       -0.132722    1.304501   -1.314981
     15          1           0       -1.315630    2.529328    0.407614
     16          1           0       -0.409391   -1.151345   -1.107416
     17          1           0       -1.949252   -2.159601    0.549937
     18          1           0       -2.139884   -0.614371    1.388351
     19          1           0       -3.288862    0.083206   -0.472157
 ---------------------------------------------------------------------

 SCF Done:  E(RB3LYP) =  -423.136653106     A.U. after    1 cycles

 The electronic state is 1-A.
 Alpha  occ. eigenvalues --  -19.16130 -19.12209 -10.24565 -10.22417 -10.21168
 Alpha  occ. eigenvalues --  -10.20292 -10.19473 -10.17212 -10.16835  -1.04510
 Alpha  occ. eigenvalues --   -1.00426  -0.86442  -0.77184  -0.71221  -0.68285
 Alpha  occ. eigenvalues --   -0.62592  -0.57942  -0.54675  -0.51626  -0.47898
 Alpha  occ. eigenvalues --   -0.46296  -0.44581  -0.42704  -0.42503  -0.42339
 Alpha  occ. eigenvalues --   -0.40011  -0.38538  -0.36081  -0.32525  -0.30509
 Alpha  occ. eigenvalues --   -0.29460  -0.26295  -0.24528  -0.22663
 Alpha virt. eigenvalues --    0.05013   0.05326   0.06401   0.10619   0.11098
 Alpha virt. eigenvalues --    0.11700   0.13115   0.15519   0.15967   0.17361
 Alpha virt. eigenvalues --    0.17808   0.18142   0.20540   0.20846   0.22708

 Mulliken charges:
               1
     1  C   -0.499203
     2  C    0.116937
     3  C    0.041370
     4  C   -0.299826
     5  C    0.083318
     6  O   -0.424320
     7  C   -0.066479
     8  C   -0.078859
     9  O   -0.424092
    10  H    0.146686
    11  H    0.147398
    12  H    0.147334
    13  H    0.109767
    14  H    0.102226
    15  H    0.295552
    16  H    0.105873
    17  H    0.110254
    18  H    0.091896
    19  H    0.294168
 Sum of Mulliken charges =   0.00000

 Dipole moment (field-independent basis, Debye):
    X=              2.2048    Y=              1.8727    Z=              0.4256  Tot=              2.9239
 Quadrupole moment (field-independent basis, Debye-Ang):
   XX=            -55.0398   YY=            -48.8982   ZZ=            -52.1953
   XY=             -4.8562   XZ=             -3.3322   YZ=              0.1865

  Exact polarizability: 122.176  -3.600  68.182  -3.073   0.404  60.414
 Approx polarizability: 164.644  -7.608  98.580  -4.894   2.346  91.868

                      1                      2                      3
                      A                      A                      A
 Frequencies --     19.0632                67.1352                85.9963
 Red. masses --      1.0269                 4.3869                 3.8276
 Frc consts  --      0.0002                 0.0116                 0.0167
 IR Inten    --      0.0074                 1.9131                 0.4117

                      4                      5                      6
                      A                      A                      A
 Frequencies --    108.2551               184.2534               256.3804
 Red. masses --      3.6273                 3.8625                 3.5480
 Frc consts  --      0.0250                 0.0773                 0.1374
 IR Inten    --      0.5993                 0.8957                18.4904

                      7                      8                      9
                      A                      A                      A
 Frequencies --    274.2706               292.0894               301.5629
 Red. masses --      2.5170                 1.5986                 2.1051
 Frc consts  --      0.1116                 0.0804                 0.1128
 IR Inten    --      0.3205                85.1541                14.6712

                     10                     11                     12
                      A                      A                      A
 Frequencies --    360.2538               383.9813               461.9476
 Red. masses --      3.8559                 4.6437                 1.9300
 Frc consts  --      0.2948                 0.4034                 0.2427
 IR Inten    --     21.1272                 7.1260                57.0182

                     13                     14                     15
                      A                      A                      A
 Frequencies --    475.9680               483.1122               650.9375
 Red. masses --      1.8545                 4.9547                 3.3546
 Frc consts  --      0.2475                 0.6813                 0.8375
 IR Inten    --     48.4186                 3.4855                15.1030

                     16                     17                     18
                      A                      A                      A
 Frequencies --    792.8171               830.7854               847.1977
 Red. masses --      4.3524                 2.7559                 3.4251
 Frc consts  --      1.6119                 1.1207                 1.4484
 IR Inten    --      8.0614                11.5886                 0.5800

                     19                     20                     21
                      A                      A                      A
 Frequencies --    963.9407               988.0161              1007.1944
 Red. masses --      1.3611                 2.9913                 1.8803
 Frc consts  --      0.7452                 1.7205                 1.1239
 IR Inten    --      8.0457                 4.8207                 4.9754

                     22                     23                     24
                      A                      A                      A
 Frequencies --   1052.4402              1053.1438              1070.9983
 Red. masses --      1.4034                 1.3863                 4.2298
 Frc consts  --      0.9159                 0.9059                 2.8585
 IR Inten    --      1.2563                 1.6686               145.2242

                     25                     26                     27
                      A                      A                      A
 Frequencies --   1097.4725              1116.5138              1142.9128
 Red. masses --      1.3255                 2.1367                 1.6168
 Frc consts  --      0.9406                 1.5693                 1.2443
 IR Inten    --     22.8783                 8.8357                25.4570

                     28                     29                     30
                      A                      A                      A
 Frequencies --   1200.1313              1213.4067              1238.5261
 Red. masses --      2.8555                 1.4850                 1.3611
 Frc consts  --      2.4232                 1.2883                 1.2301
 IR Inten    --     30.7696                53.3476                 7.7077

                     31                     32                     33
                      A                      A                      A
 Frequencies --   1284.1522              1317.2958              1359.8312
 Red. masses --      1.2020                 1.5328                 1.3425
 Frc consts  --      1.1679                 1.5671                 1.4627
 IR Inten    --     83.4743                 8.6688                 1.8444

                     34                     35                     36
                      A                      A                      A
 Frequencies --   1404.9638              1415.4012              1431.6590
 Red. masses --      1.2677                 1.2524                 1.2372
 Frc consts  --      1.4743                 1.4783                 1.4940
 IR Inten    --      0.9087                11.6219                88.1574

                     37                     38                     39
                      A                      A                      A
 Frequencies --   1470.9218              1477.3881              1480.0199
 Red. masses --      2.4713                 1.0398                 1.0408
 Frc consts  --      3.1503                 1.3371                 1.3432
 IR Inten    --     12.4657                 5.2159                 5.3143

                     40                     41                     42
                      A                      A                      A
 Frequencies --   1500.9716              2365.9680              3004.0293
 Red. masses --      1.0931                11.8229                 1.0673
 Frc consts  --      1.4509                38.9934                 5.6749
 IR Inten    --      1.2847                 3.1219                43.6282

                     43                     44                     45
                      A                      A                      A
 Frequencies --   3024.0466              3077.7181              3082.7258
 Red. masses --      1.0348                 1.0956                 1.1003
 Frc consts  --      5.5754                 6.1145                 6.1605
 IR Inten    --     40.5244                31.7165                12.0962

                     46                     47                     48
                      A                      A                      A
 Frequencies --   3084.8804              3121.4704              3133.1456
 Red. masses --      1.0999                 1.0888                 1.0853
 Frc consts  --      6.1671                 6.2507                 6.2772
 IR Inten    --     11.1063                15.3638                13.5139

                     49                     50                     51
                      A                      A                      A
 Frequencies --   3172.2214              3797.2834              3810.9201
 Red. masses --      1.0895                 1.0657                 1.0664
 Frc consts  --      6.4599                 9.0539                 9.1247
 IR Inten    --     10.2886                32.3918                30.0837

 - Thermochemistry -
 -------------------
 Temperature   298.150 Kelvin.  Pressure   1.00000 Atm.
 Atom     1 has atomic number  6 and mass  12.00000

 Molecular mass:   126.06808 amu.
 Principal axes and moments of inertia in atomic units:
                           1         2         3
     Eigenvalues --   453.909612608.049302898.66520
           X            0.99995  -0.00405  -0.00902
           Y            0.00397   0.99995  -0.00885
           Z            0.00906   0.00881   0.99992
 This molecule is an asymmetric top.
 Rotational symmetry number  1.
 Warning -- assumption of classical behavior for rotation
           may cause significant error
 Rotational temperatures (Kelvin)      0.19082     0.03321     0.02988
 Rotational constants (GHZ):           3.97599     0.69199     0.62261
 Zero-point vibrational energy     411741.0 (Joules/Mol)
                                   98.40846 (Kcal/Mol)
 Warning -- explicit consideration of  14 degrees of freedom as
           vibrations may cause significant error
 Vibrational temperatures:     27.43    96.59   123.73   155.75   265.10
          (Kelvin)            368.87   394.61   420.25   433.88   518.32
                              552.46   664.64   684.81   695.09   936.55
                             1140.69  1195.31  1218.93  1386.89  1421.53
                             1449.13  1514.22  1515.24  1540.93  1579.02
                             1606.41  1644.39  1726.72  1745.82  1781.96
                             1847.61  1895.29  1956.49  2021.43  2036.44
                             2059.84  2116.33  2125.63  2129.42  2159.56
                             3404.10  4322.12  4350.92  4428.14  4435.35
                             4438.45  4491.09  4507.89  4564.11  5463.44
                             5483.06

 Zero-point correction=                           0.156824 (Hartree/Particle)
 Thermal correction to Energy=                    0.167357
 Thermal correction to Enthalpy=                  0.168301
 Thermal correction to Gibbs Free Energy=         0.119503
 Sum of electronic and zero-point Energies=           -422.979829
 Sum of electronic and thermal Energies=              -422.969297
 Sum of electronic and thermal Enthalpies=            -422.968352
 Sum of electronic and thermal Free Energies=         -423.017150

                     E (Thermal)             CV                S
                      KCal/Mol        Cal/Mol-Kelvin    Cal/Mol-Kelvin
 Total                  105.018             36.807            102.703
 Electronic               0.000              0.000              0.000
 Translational            0.889              2.981             40.409
 Rotational               0.889              2.981             29.619
 Vibrational            103.240             30.845             32.676
 Vibration     1          0.593              1.986              6.729
 Vibration     2          0.598              1.970              4.236
 Vibration     3          0.601              1.959              3.749
 Vibration     4          0.606              1.943              3.300
 Vibration     5          0.631              1.861              2.285
 Vibration     6          0.666              1.752              1.686
 Vibration     7          0.677              1.721              1.569
 Vibration     8          0.687              1.688              1.462
 Vibration     9          0.694              1.671              1.408
 Vibration    10          0.735              1.554              1.121
 Vibration    11          0.753              1.504              1.023
 Vibration    12          0.820              1.334              0.760
 Vibration    13          0.833              1.303              0.721
 Vibration    14          0.839              1.288              0.702

 Normal termination of Gaussian 09 at Tue Jan 28 13:12:53 2020.
