 Gaussian 09, Revision D.01,
 Gaussian 09:  ES64L-G09RevD.01 24-Apr-2013

 -----------------------------
 # b3lyp 6-31G(2df,p) opt Freq
 -----------------------------

 -----
 titel
 -----
 Symbolic Z-matrix:
 Charge =  0 Multiplicity = 1

 SCF Done:  E(RB3LYP) =  -423.194759473     A.U. after   14 cycles
 Optimization completed.
    -- Stationary point found.
 Normal termination of Gaussian 09 at Tue Jan 28 03:55:41 2020.

 ----------------------------------------------------------------------
 #N Geom=AllCheck Guess=TCheck SCRF=Check GenChk RB3LYP/6-31G(2df,p) Fr
 eq
 ----------------------------------------------------------------------

 Structure from the checkpoint file:  "/scratch/puck/g09_89507360-141c-4c3f-9395-22580362cef3/Gau-115532.chk"
 -----
 titel
 -----
 Charge =  0 Multiplicity = 1

                         Standard orientation:
 ---------------------------------------------------------------------
 Center     Atomic      Atomic             Coordinates (Angstroms)
 Number     Number       Type             X           Y           Z
 ---------------------------------------------------------------------
      1          6           0        2.189024   -0.015324    1.222638
      2          6           0        1.723676   -0.187650   -0.218097
      3          6           0        1.062061    1.103440   -0.810586
      4          6           0       -0.360156    0.784512   -0.516250
      5          6           0       -1.350698    1.258563    0.228285
      6          6           0       -2.270068    0.119871    0.595827
      7          8           0       -1.615921   -1.063845    0.123146
      8          6           0       -0.525155   -0.698779   -0.688188
      9          8           0        0.726857   -1.234836   -0.287396
     10          1           0        2.486724   -0.982784    1.635627
     11          1           0        3.047330    0.663445    1.275633
     12          1           0        1.383168    0.387993    1.844024
     13          1           0        2.566868   -0.507536   -0.840810
     14          1           0        1.428342    2.014195   -0.333290
     15          1           0        1.258262    1.171405   -1.886699
     16          1           0       -1.461958    2.259899    0.625074
     17          1           0       -2.411004    0.055742    1.684009
     18          1           0       -3.269951    0.191339    0.141101
     19          1           0       -0.727382   -1.052053   -1.712445
 ---------------------------------------------------------------------

 SCF Done:  E(RB3LYP) =  -423.194759473     A.U. after    1 cycles

 The electronic state is 1-A.
 Alpha  occ. eigenvalues --  -19.13701 -19.13236 -10.26777 -10.23881 -10.23523
 Alpha  occ. eigenvalues --  -10.19869 -10.19351 -10.19132 -10.17390  -1.05973
 Alpha  occ. eigenvalues --   -1.00664  -0.81538  -0.76600  -0.73796  -0.68391
 Alpha  occ. eigenvalues --   -0.60718  -0.57765  -0.56239  -0.49849  -0.48577
 Alpha  occ. eigenvalues --   -0.46776  -0.45636  -0.44370  -0.42587  -0.39852
 Alpha  occ. eigenvalues --   -0.39128  -0.37270  -0.36497  -0.35334  -0.32613
 Alpha  occ. eigenvalues --   -0.30580  -0.27077  -0.25342  -0.24817
 Alpha virt. eigenvalues --    0.00308   0.09419   0.10339   0.11627   0.12998
 Alpha virt. eigenvalues --    0.14065   0.14778   0.15619   0.16401   0.17289
 Alpha virt. eigenvalues --    0.17896   0.18149   0.18873   0.19805   0.21681

 Mulliken charges:
               1
     1  C   -0.382700
     2  C    0.143962
     3  C   -0.361544
     4  C    0.241359
     5  C   -0.235809
     6  C   -0.110634
     7  O   -0.271323
     8  C    0.189224
     9  O   -0.289719
    10  H    0.130556
    11  H    0.108359
    12  H    0.119522
    13  H    0.081054
    14  H    0.116355
    15  H    0.115689
    16  H    0.108521
    17  H    0.116342
    18  H    0.111003
    19  H    0.069782
 Sum of Mulliken charges =   0.00000

 Dipole moment (field-independent basis, Debye):
    X=              0.4842    Y=              2.8589    Z=             -0.1288  Tot=              2.9025
 Quadrupole moment (field-independent basis, Debye-Ang):
   XX=            -49.6309   YY=            -56.1559   ZZ=            -51.4569
   XY=             -1.3496   XZ=             -1.3997   YZ=              1.1204

  Exact polarizability:  94.930  -2.292  67.996  -8.007   3.645  68.660
 Approx polarizability: 129.262  -5.916 104.762 -18.114   7.937 104.399

                      1                      2                      3
                      A                      A                      A
 Frequencies --     50.8597                95.7998               225.5182
 Red. masses --      4.1673                 3.3643                 2.2151
 Frc consts  --      0.0064                 0.0182                 0.0664
 IR Inten    --      0.3494                 1.8754                 1.5804

                      4                      5                      6
                      A                      A                      A
 Frequencies --    250.1435               349.2433               358.1062
 Red. masses --      1.0525                 2.1577                 2.8946
 Frc consts  --      0.0388                 0.1551                 0.2187
 IR Inten    --      0.1167                 1.2754                 1.8604

                      7                      8                      9
                      A                      A                      A
 Frequencies --    404.2576               431.1282               611.6311
 Red. masses --      2.8113                 4.2336                 4.9654
 Frc consts  --      0.2707                 0.4636                 1.0944
 IR Inten    --      2.2935                 1.6322                 5.1734

                     10                     11                     12
                      A                      A                      A
 Frequencies --    684.6594               724.8797               790.8795
 Red. masses --      4.8898                 3.8737                 7.1652
 Frc consts  --      1.3505                 1.1993                 2.6406
 IR Inten    --     22.5039                 2.2361                 6.3238

                     13                     14                     15
                      A                      A                      A
 Frequencies --    800.8597               824.2678               892.6559
 Red. masses --      2.3446                 1.5846                 2.2723
 Frc consts  --      0.8860                 0.6343                 1.0668
 IR Inten    --      3.8971                 8.9192                 5.8778

                     16                     17                     18
                      A                      A                      A
 Frequencies --    907.5813               927.7961               946.3960
 Red. masses --      1.7502                 2.9496                 2.2314
 Frc consts  --      0.8494                 1.4959                 1.1775
 IR Inten    --      7.0716                 9.4851                23.4142

                     19                     20                     21
                      A                      A                      A
 Frequencies --    987.2825              1023.9349              1036.7603
 Red. masses --      2.6301                 2.2333                 1.7320
 Frc consts  --      1.5104                 1.3796                 1.0968
 IR Inten    --     20.8008                13.9286                 2.2522

                     22                     23                     24
                      A                      A                      A
 Frequencies --   1047.8124              1078.3204              1093.5089
 Red. masses --      4.5014                 2.1052                 2.3454
 Frc consts  --      2.9118                 1.4422                 1.6524
 IR Inten    --    204.6333                73.3911                67.3850

                     25                     26                     27
                      A                      A                      A
 Frequencies --   1118.6580              1187.4021              1195.8973
 Red. masses --      2.2748                 1.5588                 1.3382
 Frc consts  --      1.6772                 1.2949                 1.1276
 IR Inten    --     12.9102                 1.2528                 2.5782

                     28                     29                     30
                      A                      A                      A
 Frequencies --   1201.6760              1265.1286              1284.3458
 Red. masses --      1.6760                 1.4847                 1.4437
 Frc consts  --      1.4259                 1.4001                 1.4031
 IR Inten    --     10.6008                 8.7479                 8.3526

                     31                     32                     33
                      A                      A                      A
 Frequencies --   1338.7942              1348.7801              1379.1843
 Red. masses --      1.4204                 1.8928                 1.3018
 Frc consts  --      1.5000                 2.0288                 1.4589
 IR Inten    --      7.2467                17.5110                 6.7243

                     34                     35                     36
                      A                      A                      A
 Frequencies --   1385.5090              1404.7806              1406.4586
 Red. masses --      1.3973                 1.2235                 1.2998
 Frc consts  --      1.5804                 1.4225                 1.5149
 IR Inten    --      9.8826                15.1867                 8.7208

                     37                     38                     39
                      A                      A                      A
 Frequencies --   1480.2770              1489.0180              1495.9266
 Red. masses --      1.0793                 1.0738                 1.0488
 Frc consts  --      1.3934                 1.4027                 1.3828
 IR Inten    --      4.0311                 2.0885                 2.5587

                     40                     41                     42
                      A                      A                      A
 Frequencies --   1515.9424              1751.5823              2963.4738
 Red. masses --      1.0865                 8.3574                 1.0821
 Frc consts  --      1.4711                15.1071                 5.5990
 IR Inten    --      0.6082                 0.6697                82.8757

                     43                     44                     45
                      A                      A                      A
 Frequencies --   2988.3603              3018.9638              3031.1316
 Red. masses --      1.0630                 1.0991                 1.0797
 Frc consts  --      5.5929                 5.9020                 5.8447
 IR Inten    --     78.9659                36.0713                16.5978

                     46                     47                     48
                      A                      A                      A
 Frequencies --   3034.2703              3046.4615              3106.6280
 Red. masses --      1.0360                 1.0723                 1.1010
 Frc consts  --      5.6197                 5.8634                 6.2606
 IR Inten    --     17.5476                53.0675                30.1822

                     49                     50                     51
                      A                      A                      A
 Frequencies --   3116.0022              3121.7463              3213.8893
 Red. masses --      1.0981                 1.1012                 1.0960
 Frc consts  --      6.2821                 6.3226                 6.6697
 IR Inten    --     12.8671                21.8066                 5.4346

 - Thermochemistry -
 -------------------
 Temperature   298.150 Kelvin.  Pressure   1.00000 Atm.
 Atom     1 has atomic number  6 and mass  12.00000

 Molecular mass:   126.06808 amu.
 Principal axes and moments of inertia in atomic units:
                           1         2         3
     Eigenvalues --   583.837691258.994431413.92431
           X            0.99998  -0.00010   0.00592
           Y           -0.00002   0.99978   0.02095
           Z           -0.00592  -0.02095   0.99976
 This molecule is an asymmetric top.
 Rotational symmetry number  1.
 Warning -- assumption of classical behavior for rotation
           may cause significant error
 Rotational temperatures (Kelvin)      0.14835     0.06880     0.06126
 Rotational constants (GHZ):           3.09117     1.43348     1.27641
 Zero-point vibrational energy     421292.3 (Joules/Mol)
                                  100.69127 (Kcal/Mol)
 Warning -- explicit consideration of   9 degrees of freedom as
           vibrations may cause significant error
 Vibrational temperatures:     73.18   137.83   324.47   359.90   502.48
          (Kelvin)            515.23   581.64   620.30   880.00   985.07
                             1042.94  1137.90  1152.26  1185.94  1284.33
                             1305.81  1334.89  1361.65  1420.48  1473.21
                             1491.67  1507.57  1551.46  1573.31  1609.50
                             1708.40  1720.63  1728.94  1820.24  1847.88
                             1926.22  1940.59  1984.34  1993.44  2021.16
                             2023.58  2129.79  2142.36  2152.30  2181.10
                             2520.13  4263.77  4299.58  4343.61  4361.12
                             4365.63  4383.17  4469.74  4483.23  4491.49
                             4624.06

 Zero-point correction=                           0.160462 (Hartree/Particle)
 Thermal correction to Energy=                    0.168345
 Thermal correction to Enthalpy=                  0.169289
 Thermal correction to Gibbs Free Energy=         0.127496
 Sum of electronic and zero-point Energies=           -423.034298
 Sum of electronic and thermal Energies=              -423.026415
 Sum of electronic and thermal Enthalpies=            -423.025471
 Sum of electronic and thermal Free Energies=         -423.067264

                     E (Thermal)             CV                S
                      KCal/Mol        Cal/Mol-Kelvin    Cal/Mol-Kelvin
 Total                  105.638             30.163             87.961
 Electronic               0.000              0.000              0.000
 Translational            0.889              2.981             40.409
 Rotational               0.889              2.981             28.432
 Vibrational            103.860             24.201             19.121
 Vibration     1          0.595              1.977              4.784
 Vibration     2          0.603              1.952              3.538
 Vibration     3          0.650              1.802              1.914
 Vibration     4          0.663              1.763              1.730
 Vibration     5          0.727              1.577              1.170
 Vibration     6          0.733              1.559              1.130
 Vibration     7          0.769              1.461              0.947
 Vibration     8          0.792              1.402              0.855
 Vibration     9          0.971              1.007              0.430

 Optimization completed.
    -- Stationary point found.
 Normal termination of Gaussian 09 at Tue Jan 28 04:42:46 2020.
