 Gaussian 09, Revision D.01,
 Gaussian 09:  ES64L-G09RevD.01 24-Apr-2013

 -----------------------------
 # b3lyp 6-31G(2df,p) opt Freq
 -----------------------------

 -----
 titel
 -----
 Symbolic Z-matrix:
 Charge =  0 Multiplicity = 1

 SCF Done:  E(RB3LYP) =  -423.124343839     A.U. after   14 cycles
 Optimization completed.
    -- Stationary point found.
 Normal termination of Gaussian 09 at Tue Jan 28 02:55:16 2020.

 ----------------------------------------------------------------------
 #N Geom=AllCheck Guess=TCheck SCRF=Check GenChk RB3LYP/6-31G(2df,p) Fr
 eq
 ----------------------------------------------------------------------

 Structure from the checkpoint file:  "/scratch/puck/g09_4ba94f0c-6945-401a-a604-ca6076bb4d12/Gau-11500.chk"
 -----
 titel
 -----
 Charge =  0 Multiplicity = 1

                         Standard orientation:
 ---------------------------------------------------------------------
 Center     Atomic      Atomic             Coordinates (Angstroms)
 Number     Number       Type             X           Y           Z
 ---------------------------------------------------------------------
      1          6           0        2.987633   -0.017363    0.059442
      2          6           0        1.539645    0.174204   -0.343695
      3          8           0        0.862291   -1.108190   -0.534147
      4          6           0       -0.085326   -0.813100    0.496244
      5          6           0        0.548074    0.563496    0.785324
      6          6           0       -0.783552    1.221268    0.348110
      7          8           0       -1.049548    0.813015   -0.997327
      8          6           0       -1.406281   -0.090948    0.053205
      9          6           0       -2.807315   -0.604408    0.104160
     10          1           0        3.068214   -0.597596    0.984114
     11          1           0        3.531625   -0.550361   -0.726487
     12          1           0        3.471143    0.954053    0.212934
     13          1           0        1.453018    0.784987   -1.247514
     14          1           0       -0.207029   -1.610764    1.234744
     15          1           0        0.945805    0.839715    1.760512
     16          1           0       -1.216303    2.161045    0.674069
     17          1           0       -3.023267   -1.051917    1.079716
     18          1           0       -3.518958    0.206089   -0.075567
     19          1           0       -2.963457   -1.372746   -0.661480
 ---------------------------------------------------------------------

 SCF Done:  E(RB3LYP) =  -423.124343839     A.U. after    1 cycles

 The electronic state is 1-A.
 Alpha  occ. eigenvalues --  -19.15245 -19.12776 -10.24054 -10.23866 -10.23380
 Alpha  occ. eigenvalues --  -10.23064 -10.19241 -10.18846 -10.17501  -1.08499
 Alpha  occ. eigenvalues --   -1.02608  -0.78583  -0.75864  -0.73758  -0.64830
 Alpha  occ. eigenvalues --   -0.62270  -0.58023  -0.52479  -0.51125  -0.48617
 Alpha  occ. eigenvalues --   -0.46486  -0.44846  -0.42555  -0.41958  -0.39187
 Alpha  occ. eigenvalues --   -0.38674  -0.38342  -0.37077  -0.35129  -0.33375
 Alpha  occ. eigenvalues --   -0.30391  -0.27109  -0.25796  -0.23733
 Alpha virt. eigenvalues --    0.06160   0.08832   0.10524   0.11269   0.11940
 Alpha virt. eigenvalues --    0.13423   0.14274   0.14993   0.15672   0.16566
 Alpha virt. eigenvalues --    0.17169   0.18022   0.18130   0.20048   0.20810

 Mulliken charges:
               1
     1  C   -0.413338
     2  C    0.159306
     3  O   -0.309019
     4  C    0.045703
     5  C   -0.145670
     6  C   -0.074390
     7  O   -0.267444
     8  C    0.402552
     9  C   -0.512255
    10  H    0.116797
    11  H    0.128768
    12  H    0.113834
    13  H    0.094978
    14  H    0.077691
    15  H    0.080887
    16  H    0.103387
    17  H    0.124482
    18  H    0.134811
    19  H    0.138921
 Sum of Mulliken charges =   0.00000

 Dipole moment (field-independent basis, Debye):
    X=             -0.4347    Y=              0.7901    Z=              2.4594  Tot=              2.6195
 Quadrupole moment (field-independent basis, Debye-Ang):
   XX=            -49.0471   YY=            -53.0614   ZZ=            -54.2910
   XY=              2.7317   XZ=             -1.3092   YZ=              0.0617

  Exact polarizability:  92.268   3.476  70.832  -0.269  -0.220  62.966
 Approx polarizability: 111.216   5.264 112.035   0.216   0.232 102.840

                      1                      2                      3
                      A                      A                      A
 Frequencies --    124.4340               182.1681               189.7576
 Red. masses --      3.3187                 2.4567                 1.0703
 Frc consts  --      0.0303                 0.0480                 0.0227
 IR Inten    --      1.9028                 1.0451                 0.1938

                      4                      5                      6
                      A                      A                      A
 Frequencies --    235.5551               252.3090               297.6047
 Red. masses --      1.1348                 3.1731                 2.8733
 Frc consts  --      0.0371                 0.1190                 0.1499
 IR Inten    --      0.1399                 0.3448                 1.3105

                      7                      8                      9
                      A                      A                      A
 Frequencies --    327.3943               396.9008               543.6396
 Red. masses --      3.8302                 3.0700                 3.3460
 Frc consts  --      0.2419                 0.2849                 0.5826
 IR Inten    --      1.3421                 1.9670                 1.7820

                     10                     11                     12
                      A                      A                      A
 Frequencies --    564.8407               670.9642               740.3733
 Red. masses --      4.4463                 5.0992                 4.5669
 Frc consts  --      0.8358                 1.3525                 1.4749
 IR Inten    --     12.7235                13.3687                 4.2651

                     13                     14                     15
                      A                      A                      A
 Frequencies --    800.1886               819.5701               854.5374
 Red. masses --      3.1462                 2.8807                 2.0088
 Frc consts  --      1.1869                 1.1400                 0.8643
 IR Inten    --      1.2801                 3.5776                10.7553

                     16                     17                     18
                      A                      A                      A
 Frequencies --    861.7561               878.7529               902.5173
 Red. masses --      2.3035                 2.3674                 2.1130
 Frc consts  --      1.0079                 1.0771                 1.0141
 IR Inten    --     17.0842                 7.6464                10.9796

                     19                     20                     21
                      A                      A                      A
 Frequencies --    961.1772               990.2438              1023.4686
 Red. masses --      2.2089                 1.7049                 3.6244
 Frc consts  --      1.2024                 0.9850                 2.2368
 IR Inten    --      9.2227                13.1838                96.4943

                     22                     23                     24
                      A                      A                      A
 Frequencies --   1041.5068              1072.9734              1093.5924
 Red. masses --      2.2161                 1.8560                 1.8716
 Frc consts  --      1.4164                 1.2589                 1.3188
 IR Inten    --      1.7620                21.4597                 5.2006

                     25                     26                     27
                      A                      A                      A
 Frequencies --   1099.7701              1125.4100              1164.5773
 Red. masses --      1.7640                 2.5617                 2.2010
 Frc consts  --      1.2570                 1.9116                 1.7587
 IR Inten    --      7.9888                 4.3621                11.5680

                     28                     29                     30
                      A                      A                      A
 Frequencies --   1185.9863              1222.3010              1244.4434
 Red. masses --      1.7319                 1.7270                 1.5528
 Frc consts  --      1.4353                 1.5202                 1.4168
 IR Inten    --      0.6865                 6.4933                 6.9871

                     31                     32                     33
                      A                      A                      A
 Frequencies --   1260.7153              1283.9848              1327.1121
 Red. masses --      1.5045                 1.5419                 1.5343
 Frc consts  --      1.4089                 1.4977                 1.5922
 IR Inten    --      9.9178                 3.9165                 7.2364

                     34                     35                     36
                      A                      A                      A
 Frequencies --   1367.5007              1403.0787              1405.0675
 Red. masses --      1.5264                 1.2684                 1.3006
 Frc consts  --      1.6818                 1.4712                 1.5128
 IR Inten    --      9.1255                 5.0628                 2.6616

                     37                     38                     39
                      A                      A                      A
 Frequencies --   1457.7910              1481.4486              1483.3188
 Red. masses --      3.0087                 1.0906                 1.0936
 Frc consts  --      3.7673                 1.4103                 1.4177
 IR Inten    --     13.1976                10.1008                 0.6395

                     40                     41                     42
                      A                      A                      A
 Frequencies --   1492.2084              1493.9474              3031.1663
 Red. masses --      1.1152                 1.0525                 1.0350
 Frc consts  --      1.4631                 1.3840                 5.6031
 IR Inten    --      2.0525                 3.4125                20.5214

                     43                     44                     45
                      A                      A                      A
 Frequencies --   3033.6035              3061.4578              3069.1513
 Red. masses --      1.0359                 1.0856                 1.0887
 Frc consts  --      5.6165                 5.9948                 6.0423
 IR Inten    --     18.7502                30.1496                33.0658

                     46                     47                     48
                      A                      A                      A
 Frequencies --   3097.4572              3103.7626              3111.9287
 Red. masses --      1.1001                 1.1004                 1.1020
 Frc consts  --      6.2185                 6.2456                 6.2875
 IR Inten    --     15.0481                23.3043                25.4199

                     49                     50                     51
                      A                      A                      A
 Frequencies --   3118.8229              3129.2944              3174.9987
 Red. masses --      1.1012                 1.0896                 1.0942
 Frc consts  --      6.3111                 6.2867                 6.4987
 IR Inten    --     13.1168                20.8003                22.9115

 - Thermochemistry -
 -------------------
 Temperature   298.150 Kelvin.  Pressure   1.00000 Atm.
 Atom     1 has atomic number  6 and mass  12.00000

 Molecular mass:   126.06808 amu.
 Principal axes and moments of inertia in atomic units:
                           1         2         3
     Eigenvalues --   434.148561455.272011577.43684
           X            0.99980   0.01970  -0.00333
           Y           -0.01973   0.99977  -0.00832
           Z            0.00316   0.00838   0.99996
 This molecule is an asymmetric top.
 Rotational symmetry number  1.
 Warning -- assumption of classical behavior for rotation
           may cause significant error
 Rotational temperatures (Kelvin)      0.19950     0.05952     0.05491
 Rotational constants (GHZ):           4.15697     1.24014     1.14410
 Zero-point vibrational energy     414246.0 (Joules/Mol)
                                   99.00718 (Kcal/Mol)
 Warning -- explicit consideration of  10 degrees of freedom as
           vibrations may cause significant error
 Vibrational temperatures:    179.03   262.10   273.02   338.91   363.02
          (Kelvin)            428.19   471.05   571.05   782.18   812.68
                              965.37  1065.23  1151.29  1179.18  1229.49
                             1239.87  1264.33  1298.52  1382.92  1424.74
                             1472.54  1498.49  1543.77  1573.43  1582.32
                             1619.21  1675.56  1706.37  1758.62  1790.47
                             1813.89  1847.37  1909.42  1967.53  2018.71
                             2021.58  2097.43  2131.47  2134.16  2146.95
                             2149.45  4361.17  4364.67  4404.75  4415.82
                             4456.54  4465.62  4477.37  4487.28  4502.35
                             4568.11

 Zero-point correction=                           0.157778 (Hartree/Particle)
 Thermal correction to Energy=                    0.165963
 Thermal correction to Enthalpy=                  0.166907
 Thermal correction to Gibbs Free Energy=         0.125437
 Sum of electronic and zero-point Energies=           -422.966566
 Sum of electronic and thermal Energies=              -422.958381
 Sum of electronic and thermal Enthalpies=            -422.957437
 Sum of electronic and thermal Free Energies=         -422.998907

                     E (Thermal)             CV                S
                      KCal/Mol        Cal/Mol-Kelvin    Cal/Mol-Kelvin
 Total                  104.143             31.869             87.281
 Electronic               0.000              0.000              0.000
 Translational            0.889              2.981             40.409
 Rotational               0.889              2.981             28.390
 Vibrational            102.366             25.907             18.482
 Vibration     1          0.610              1.929              3.030
 Vibration     2          0.630              1.864              2.306
 Vibration     3          0.633              1.854              2.230
 Vibration     4          0.655              1.786              1.836
 Vibration     5          0.664              1.759              1.714
 Vibration     6          0.691              1.678              1.430
 Vibration     7          0.711              1.621              1.273
 Vibration     8          0.763              1.477              0.974
 Vibration     9          0.899              1.154              0.558
 Vibration    10          0.921              1.107              0.514

 Optimization completed.
    -- Stationary point found.
 Normal termination of Gaussian 09 at Tue Jan 28 03:43:33 2020.
