 Gaussian 09, Revision D.01,
 Gaussian 09:  ES64L-G09RevD.01 24-Apr-2013

 -----------------------------
 # b3lyp 6-31G(2df,p) opt Freq
 -----------------------------

 -----
 titel
 -----
 Symbolic Z-matrix:
 Charge =  0 Multiplicity = 1

 SCF Done:  E(RB3LYP) =  -423.113903042     A.U. after   13 cycles
 Optimization completed.
    -- Stationary point found.
 Normal termination of Gaussian 09 at Tue Jan 28 02:54:39 2020.

 ----------------------------------------------------------------------
 #N Geom=AllCheck Guess=TCheck SCRF=Check GenChk RB3LYP/6-31G(2df,p) Fr
 eq
 ----------------------------------------------------------------------

 Structure from the checkpoint file:  "/scratch/puck/g09_7948cd96-0a39-41db-b2ef-c35ec4adb0a6/Gau-92259.chk"
 -----
 titel
 -----
 Charge =  0 Multiplicity = 1

                         Standard orientation:
 ---------------------------------------------------------------------
 Center     Atomic      Atomic             Coordinates (Angstroms)
 Number     Number       Type             X           Y           Z
 ---------------------------------------------------------------------
      1          6           0       -2.784078   -0.110502    0.229417
      2          6           0       -1.473822   -0.042425   -0.547671
      3          6           0       -0.669207    1.315963   -0.337208
      4          6           0        0.598272    0.630535    0.140885
      5          6           0        2.108542    0.674877    0.321083
      6          8           0        2.186838   -0.675303   -0.232090
      7          6           0        0.843392   -0.579457   -0.768107
      8          6           0       -0.393728   -1.043863    0.014592
      9          8           0        0.072923   -0.299448    1.164963
     10          1           0       -3.298228   -1.063000    0.061444
     11          1           0       -2.591284   -0.008118    1.301549
     12          1           0       -3.463378    0.692996   -0.073419
     13          1           0       -1.658965   -0.215915   -1.613891
     14          1           0       -0.537975    1.881416   -1.262814
     15          1           0       -1.135104    1.956438    0.415118
     16          1           0        2.634616    1.396175   -0.317225
     17          1           0        2.473188    0.726010    1.350034
     18          1           0        0.829181   -0.568828   -1.861044
     19          1           0       -0.706362   -2.069931    0.219309
 ---------------------------------------------------------------------

 SCF Done:  E(RB3LYP) =  -423.113903042     A.U. after    1 cycles

 The electronic state is 1-A.
 Alpha  occ. eigenvalues --  -19.13990 -19.13400 -10.24366 -10.24062 -10.24016
 Alpha  occ. eigenvalues --  -10.23098 -10.20035 -10.19626 -10.17728  -1.07831
 Alpha  occ. eigenvalues --   -1.00813  -0.80684  -0.74320  -0.72327  -0.67811
 Alpha  occ. eigenvalues --   -0.63912  -0.56289  -0.53412  -0.50844  -0.49379
 Alpha  occ. eigenvalues --   -0.48033  -0.45810  -0.43044  -0.41468  -0.40388
 Alpha  occ. eigenvalues --   -0.38529  -0.35764  -0.34809  -0.34742  -0.33013
 Alpha  occ. eigenvalues --   -0.31972  -0.28094  -0.25516  -0.24845
 Alpha virt. eigenvalues --    0.06478   0.08885   0.10076   0.10795   0.11620
 Alpha virt. eigenvalues --    0.13621   0.14420   0.14682   0.15748   0.16798
 Alpha virt. eigenvalues --    0.17042   0.17959   0.18177   0.19337   0.19800

 Mulliken charges:
               1
     1  C   -0.413534
     2  C    0.036464
     3  C   -0.343560
     4  C    0.365413
     5  C   -0.177736
     6  O   -0.297038
     7  C    0.100855
     8  C    0.005536
     9  O   -0.325281
    10  H    0.113256
    11  H    0.135368
    12  H    0.115655
    13  H    0.074146
    14  H    0.106141
    15  H    0.112538
    16  H    0.105244
    17  H    0.125020
    18  H    0.079440
    19  H    0.082072
 Sum of Mulliken charges =   0.00000

 Dipole moment (field-independent basis, Debye):
    X=             -1.3601    Y=              1.4037    Z=             -1.5046  Tot=              2.4666
 Quadrupole moment (field-independent basis, Debye-Ang):
   XX=            -54.9096   YY=            -51.6182   ZZ=            -53.9823
   XY=              4.4853   XZ=              1.0936   YZ=              0.7839

  Exact polarizability:  89.050   4.948  70.037   1.323   0.448  65.522
 Approx polarizability: 115.357   4.687 107.765   2.365   1.606 106.769

                      1                      2                      3
                      A                      A                      A
 Frequencies --    151.6949               243.4842               247.5929
 Red. masses --      2.8907                 1.5952                 1.6081
 Frc consts  --      0.0392                 0.0557                 0.0581
 IR Inten    --      0.3537                 0.7770                 0.1935

                      4                      5                      6
                      A                      A                      A
 Frequencies --    294.6692               350.6994               425.5338
 Red. masses --      2.5515                 2.6658                 2.7465
 Frc consts  --      0.1305                 0.1932                 0.2930
 IR Inten    --      4.1632                 1.8092                 2.9960

                      7                      8                      9
                      A                      A                      A
 Frequencies --    439.5525               503.5584               634.4406
 Red. masses --      2.6827                 5.0522                 3.7453
 Frc consts  --      0.3054                 0.7548                 0.8882
 IR Inten    --      3.9138                 2.5594                 4.0186

                     10                     11                     12
                      A                      A                      A
 Frequencies --    718.8114               751.2386               785.0986
 Red. masses --      4.0534                 3.7674                 2.9968
 Frc consts  --      1.2340                 1.2527                 1.0883
 IR Inten    --      3.1661                 6.6529                 7.0475

                     13                     14                     15
                      A                      A                      A
 Frequencies --    818.9099               855.6969               897.7420
 Red. masses --      2.7245                 3.0665                 2.5031
 Frc consts  --      1.0765                 1.3229                 1.1886
 IR Inten    --     24.4069                13.2816                10.5205

                     16                     17                     18
                      A                      A                      A
 Frequencies --    913.4690               926.4244               955.6549
 Red. masses --      4.1810                 1.3996                 5.1387
 Frc consts  --      2.0555                 0.7077                 2.7651
 IR Inten    --     17.4835                 1.7904                84.2679

                     19                     20                     21
                      A                      A                      A
 Frequencies --    991.3055              1006.0353              1017.5408
 Red. masses --      5.1970                 2.9025                 1.4403
 Frc consts  --      3.0090                 1.7308                 0.8787
 IR Inten    --      7.0914                37.4775                 7.9112

                     22                     23                     24
                      A                      A                      A
 Frequencies --   1045.7965              1064.0363              1108.2744
 Red. masses --      1.6879                 2.2633                 2.0293
 Frc consts  --      1.0877                 1.5097                 1.4686
 IR Inten    --      6.8531                 1.7152                 6.5741

                     25                     26                     27
                      A                      A                      A
 Frequencies --   1138.0612              1160.5117              1177.0069
 Red. masses --      1.6581                 1.5102                 1.5205
 Frc consts  --      1.2653                 1.1983                 1.2411
 IR Inten    --      1.3569                 2.1353                 0.7468

                     28                     29                     30
                      A                      A                      A
 Frequencies --   1198.1974              1213.9794              1243.1432
 Red. masses --      1.3454                 1.6836                 1.7235
 Frc consts  --      1.1380                 1.4619                 1.5693
 IR Inten    --      1.2733                 4.7266                14.7158

                     31                     32                     33
                      A                      A                      A
 Frequencies --   1270.0480              1284.1227              1301.0380
 Red. masses --      1.6639                 1.4683                 1.4915
 Frc consts  --      1.5813                 1.4265                 1.4875
 IR Inten    --      2.1489                 0.6851                 2.2773

                     34                     35                     36
                      A                      A                      A
 Frequencies --   1333.1332              1360.4734              1367.6142
 Red. masses --      1.8845                 1.4586                 1.8660
 Frc consts  --      1.9733                 1.5906                 2.0564
 IR Inten    --     17.6018                 0.6396                 1.2624

                     37                     38                     39
                      A                      A                      A
 Frequencies --   1405.0836              1491.8491              1493.9224
 Red. masses --      1.2592                 1.1171                 1.0445
 Frc consts  --      1.4647                 1.4649                 1.3735
 IR Inten    --      2.6006                 2.2391                 4.4540

                     40                     41                     42
                      A                      A                      A
 Frequencies --   1496.7162              1507.0359              3022.1659
 Red. masses --      1.1073                 1.0531                 1.0615
 Frc consts  --      1.4615                 1.4091                 5.7124
 IR Inten    --      0.0766                 1.7445                67.1738

                     43                     44                     45
                      A                      A                      A
 Frequencies --   3032.3421              3040.4293              3067.0615
 Red. masses --      1.0371                 1.0822                 1.0598
 Frc consts  --      5.6185                 5.8941                 5.8740
 IR Inten    --     24.0660                18.6476                27.2890

                     46                     47                     48
                      A                      A                      A
 Frequencies --   3075.6059              3096.6540              3101.7248
 Red. masses --      1.0851                 1.1003                 1.0927
 Frc consts  --      6.0475                 6.2165                 6.1935
 IR Inten    --     47.5645                10.6894                59.9772

                     49                     50                     51
                      A                      A                      A
 Frequencies --   3105.6451              3113.8188              3120.6455
 Red. masses --      1.1038                 1.1021                 1.1072
 Frc consts  --      6.2724                 6.2958                 6.3531
 IR Inten    --     20.3894                14.5573                30.8273

 - Thermochemistry -
 -------------------
 Temperature   298.150 Kelvin.  Pressure   1.00000 Atm.
 Atom     1 has atomic number  6 and mass  12.00000

 Molecular mass:   126.06808 amu.
 Principal axes and moments of inertia in atomic units:
                           1         2         3
     Eigenvalues --   433.559571305.430161394.06608
           X            0.99983   0.01851   0.00158
           Y           -0.01849   0.99979  -0.00924
           Z           -0.00176   0.00921   0.99996
 This molecule is an asymmetric top.
 Rotational symmetry number  1.
 Warning -- assumption of classical behavior for rotation
           may cause significant error
 Rotational temperatures (Kelvin)      0.19977     0.06635     0.06213
 Rotational constants (GHZ):           4.16261     1.38249     1.29459
 Zero-point vibrational energy     420877.9 (Joules/Mol)
                                  100.59223 (Kcal/Mol)
 Warning -- explicit consideration of   8 degrees of freedom as
           vibrations may cause significant error
 Vibrational temperatures:    218.25   350.32   356.23   423.96   504.58
          (Kelvin)            612.25   632.42   724.51   912.82  1034.21
                             1080.86  1129.58  1178.23  1231.16  1291.65
                             1314.28  1332.92  1374.97  1426.27  1447.46
                             1464.01  1504.67  1530.91  1594.56  1637.41
                             1669.72  1693.45  1723.94  1746.64  1788.60
                             1827.31  1847.56  1871.90  1918.08  1957.42
                             1967.69  2021.60  2146.44  2149.42  2153.44
                             2168.29  4348.22  4362.86  4374.49  4412.81
                             4425.11  4455.39  4462.68  4468.33  4480.09
                             4489.91

 Zero-point correction=                           0.160304 (Hartree/Particle)
 Thermal correction to Energy=                    0.167477
 Thermal correction to Enthalpy=                  0.168421
 Thermal correction to Gibbs Free Energy=         0.129133
 Sum of electronic and zero-point Energies=           -422.953599
 Sum of electronic and thermal Energies=              -422.946426
 Sum of electronic and thermal Enthalpies=            -422.945482
 Sum of electronic and thermal Free Energies=         -422.984770

                     E (Thermal)             CV                S
                      KCal/Mol        Cal/Mol-Kelvin    Cal/Mol-Kelvin
 Total                  105.093             29.485             82.689
 Electronic               0.000              0.000              0.000
 Translational            0.889              2.981             40.409
 Rotational               0.889              2.981             28.158
 Vibrational            103.316             23.524             14.122
 Vibration     1          0.619              1.901              2.651
 Vibration     2          0.659              1.774              1.777
 Vibration     3          0.661              1.767              1.748
 Vibration     4          0.689              1.684              1.447
 Vibration     5          0.728              1.574              1.163
 Vibration     6          0.787              1.415              0.873
 Vibration     7          0.800              1.384              0.828
 Vibration     8          0.859              1.242              0.649

 Optimization completed.
    -- Stationary point found.
 Normal termination of Gaussian 09 at Tue Jan 28 03:43:38 2020.
