 Gaussian 09, Revision D.01,
 Gaussian 09:  ES64L-G09RevD.01 24-Apr-2013

 -----------------------------
 # b3lyp 6-31G(2df,p) opt Freq
 -----------------------------

 -----
 titel
 -----
 Symbolic Z-matrix:
 Charge =  0 Multiplicity = 1

 SCF Done:  E(RB3LYP) =  -423.165741253     A.U. after   15 cycles
 Optimization completed.
    -- Stationary point found.
 Normal termination of Gaussian 09 at Mon Jan 27 14:12:23 2020.

 ----------------------------------------------------------------------
 #N Geom=AllCheck Guess=TCheck SCRF=Check GenChk RB3LYP/6-31G(2df,p) Fr
 eq
 ----------------------------------------------------------------------

 Structure from the checkpoint file:  "/scratch/puck/g09_29bb43b2-3458-4ee0-baf3-d2700b75c56d/Gau-170926.chk"
 -----
 titel
 -----
 Charge =  0 Multiplicity = 1

                         Standard orientation:
 ---------------------------------------------------------------------
 Center     Atomic      Atomic             Coordinates (Angstroms)
 Number     Number       Type             X           Y           Z
 ---------------------------------------------------------------------
      1          6           0       -2.212378   -0.626873    0.902672
      2          6           0       -1.611252   -0.003088   -0.339026
      3          8           0       -2.127265    0.931448   -0.907202
      4          6           0       -0.319541   -0.619032   -0.886353
      5          6           0        0.955559   -0.330058   -0.054111
      6          6           0        2.201079   -0.791678   -0.833303
      7          8           0        0.829816   -1.100444    1.150046
      8          6           0        1.070805    1.098936    0.271553
      9          6           0        1.199033    2.257086    0.565865
     10          1           0       -1.468862   -0.658432    1.703113
     11          1           0       -3.096520   -0.065673    1.206981
     12          1           0       -2.489413   -1.667789    0.696364
     13          1           0       -0.414036   -1.709780   -0.939556
     14          1           0       -0.179958   -0.220836   -1.893121
     15          1           0        2.313553   -0.229531   -1.763987
     16          1           0        3.100747   -0.635980   -0.230327
     17          1           0        2.112674   -1.857069   -1.062791
     18          1           0        1.512609   -0.800247    1.760120
     19          1           0        1.288971    3.285546    0.816680
 ---------------------------------------------------------------------

 SCF Done:  E(RB3LYP) =  -423.165741253     A.U. after    1 cycles

 The electronic state is 1-A.
 Alpha  occ. eigenvalues --  -19.15479 -19.12032 -10.27841 -10.26364 -10.19357
 Alpha  occ. eigenvalues --  -10.19003 -10.18890 -10.18591 -10.17543  -1.03947
 Alpha  occ. eigenvalues --   -1.03046  -0.81297  -0.75256  -0.73585  -0.70095
 Alpha  occ. eigenvalues --   -0.63083  -0.56511  -0.52746  -0.51490  -0.46860
 Alpha  occ. eigenvalues --   -0.46311  -0.43921  -0.42419  -0.41869  -0.40865
 Alpha  occ. eigenvalues --   -0.38787  -0.38442  -0.36976  -0.36180  -0.33765
 Alpha  occ. eigenvalues --   -0.29897  -0.27993  -0.27488  -0.23616
 Alpha virt. eigenvalues --   -0.00805   0.02935   0.04445   0.07249   0.11829
 Alpha virt. eigenvalues --    0.12493   0.12863   0.13212   0.14920   0.16195
 Alpha virt. eigenvalues --    0.17370   0.18786   0.19197   0.21642   0.21874

 Mulliken charges:
               1
     1  C   -0.472977
     2  C    0.377709
     3  O   -0.300110
     4  C   -0.287819
     5  C    0.137341
     6  C   -0.403075
     7  O   -0.437614
     8  C    0.347796
     9  C   -0.496224
    10  H    0.156737
    11  H    0.131755
    12  H    0.132618
    13  H    0.118217
    14  H    0.124992
    15  H    0.132263
    16  H    0.117984
    17  H    0.125951
    18  H    0.286955
    19  H    0.207501
 Sum of Mulliken charges =   0.00000

 Dipole moment (field-independent basis, Debye):
    X=              2.5115    Y=             -1.2159    Z=              1.0844  Tot=              2.9936
 Quadrupole moment (field-independent basis, Debye-Ang):
   XX=            -54.0315   YY=            -51.3895   ZZ=            -51.9906
   XY=              4.6630   XZ=             -1.3627   YZ=              4.0476

  Exact polarizability:  78.041   0.361  87.054  -1.243   2.416  67.346
 Approx polarizability:  99.775  -1.286 144.291   4.026   0.808 100.666

                      1                      2                      3
                      A                      A                      A
 Frequencies --     23.9356                77.8424               125.2071
 Red. masses --      4.1732                 3.7047                 1.9308
 Frc consts  --      0.0014                 0.0132                 0.0178
 IR Inten    --      3.1742                 2.9655                 0.8780

                      4                      5                      6
                      A                      A                      A
 Frequencies --    164.3531               185.0301               208.1800
 Red. masses --      1.6513                 2.9322                 3.2288
 Frc consts  --      0.0263                 0.0591                 0.0824
 IR Inten    --      1.9636                 0.4928                 0.6288

                      7                      8                      9
                      A                      A                      A
 Frequencies --    252.3422               291.5455               300.8209
 Red. masses --      1.0547                 1.2468                 2.9123
 Frc consts  --      0.0396                 0.0624                 0.1553
 IR Inten    --      0.7021                74.8748                10.9996

                     10                     11                     12
                      A                      A                      A
 Frequencies --    342.9809               409.2437               422.5106
 Red. masses --      3.2579                 3.0858                 2.1522
 Frc consts  --      0.2258                 0.3045                 0.2264
 IR Inten    --      7.8037                 8.0629                 3.5241

                     13                     14                     15
                      A                      A                      A
 Frequencies --    500.0750               542.2044               573.6636
 Red. masses --      3.8416                 3.4682                 5.4028
 Frc consts  --      0.5660                 0.6007                 1.0476
 IR Inten    --      8.2176                18.7450                 4.5853

                     16                     17                     18
                      A                      A                      A
 Frequencies --    623.8110               644.3823               674.9860
 Red. masses --      3.4078                 1.2349                 1.2567
 Frc consts  --      0.7813                 0.3021                 0.3373
 IR Inten    --      4.6587                43.5822                33.5843

                     19                     20                     21
                      A                      A                      A
 Frequencies --    725.6422               799.0475               877.5828
 Red. masses --      3.4489                 3.2089                 2.1039
 Frc consts  --      1.0700                 1.2071                 0.9547
 IR Inten    --      5.9742                 0.9236                19.2693

                     22                     23                     24
                      A                      A                      A
 Frequencies --    921.7585               951.7733              1006.9886
 Red. masses --      2.0089                 1.9454                 1.8356
 Frc consts  --      1.0057                 1.0383                 1.0967
 IR Inten    --      1.9209                19.1305                 6.9421

                     25                     26                     27
                      A                      A                      A
 Frequencies --   1035.3978              1100.4012              1120.7955
 Red. masses --      1.7128                 2.5856                 1.7524
 Frc consts  --      1.0818                 1.8447                 1.2970
 IR Inten    --      3.9503                 9.4784                53.4955

                     28                     29                     30
                      A                      A                      A
 Frequencies --   1155.8071              1222.4297              1275.6644
 Red. masses --      2.0800                 3.0097                 1.4297
 Frc consts  --      1.6371                 2.6499                 1.3708
 IR Inten    --     24.0983                84.4156                25.5781

                     31                     32                     33
                      A                      A                      A
 Frequencies --   1329.0261              1364.8244              1385.8731
 Red. masses --      1.6248                 1.5729                 1.3390
 Frc consts  --      1.6909                 1.7263                 1.5152
 IR Inten    --     28.7863                78.9063                46.1312

                     34                     35                     36
                      A                      A                      A
 Frequencies --   1401.1353              1452.6559              1467.0749
 Red. masses --      1.2230                 1.0881                 1.0575
 Frc consts  --      1.4146                 1.3529                 1.3410
 IR Inten    --      2.5208                 3.4559                13.4806

                     37                     38                     39
                      A                      A                      A
 Frequencies --   1472.6025              1484.8184              1490.5383
 Red. masses --      1.0532                 1.0552                 1.0607
 Frc consts  --      1.3457                 1.3707                 1.3884
 IR Inten    --      6.8120                 6.6955                 1.0685

                     40                     41                     42
                      A                      A                      A
 Frequencies --   1810.8444              2232.3122              3039.1139
 Red. masses --     10.3871                 5.8905                 1.0426
 Frc consts  --     20.0681                17.2946                 5.6735
 IR Inten    --    144.9816                 2.7721                 1.4028

                     43                     44                     45
                      A                      A                      A
 Frequencies --   3041.1535              3048.5862              3111.5369
 Red. masses --      1.0351                 1.0580                 1.0911
 Frc consts  --      5.6404                 5.7934                 6.2238
 IR Inten    --     13.7146                12.7405                 6.7793

                     46                     47                     48
                      A                      A                      A
 Frequencies --   3117.4953              3123.4278              3131.3725
 Red. masses --      1.1021                 1.1014                 1.1024
 Frc consts  --      6.3110                 6.3307                 6.3688
 IR Inten    --     19.1296                 2.6372                20.8131

                     49                     50                     51
                      A                      A                      A
 Frequencies --   3159.5729              3499.6072              3809.6677
 Red. masses --      1.1049                 1.1629                 1.0662
 Frc consts  --      6.4986                 8.3911                 9.1175
 IR Inten    --      6.7047                63.0113                25.6385

 - Thermochemistry -
 -------------------
 Temperature   298.150 Kelvin.  Pressure   1.00000 Atm.
 Atom     1 has atomic number  6 and mass  12.00000

 Molecular mass:   126.06808 amu.
 Principal axes and moments of inertia in atomic units:
                           1         2         3
     Eigenvalues --   833.982161434.803081662.71652
           X            0.99884   0.01828  -0.04452
           Y           -0.01597   0.99853   0.05170
           Z            0.04540  -0.05093   0.99767
 This molecule is an asymmetric top.
 Rotational symmetry number  1.
 Warning -- assumption of classical behavior for rotation
           may cause significant error
 Rotational temperatures (Kelvin)      0.10386     0.06037     0.05209
 Rotational constants (GHZ):           2.16400     1.25783     1.08542
 Zero-point vibrational energy     403917.0 (Joules/Mol)
                                   96.53847 (Kcal/Mol)
 Warning -- explicit consideration of  15 degrees of freedom as
           vibrations may cause significant error
 Vibrational temperatures:     34.44   112.00   180.14   236.47   266.22
          (Kelvin)            299.52   363.06   419.47   432.81   493.47
                              588.81   607.90   719.50   780.11   825.37
                              897.52   927.12   971.15  1044.04  1149.65
                             1262.64  1326.20  1369.39  1448.83  1489.70
                             1583.23  1612.57  1662.95  1758.80  1835.39
                             1912.17  1963.68  1993.96  2015.92  2090.05
                             2110.79  2118.74  2136.32  2144.55  2605.40
                             3211.80  4372.60  4375.54  4386.23  4476.80
                             4485.37  4493.91  4505.34  4545.91  5035.15
                             5481.26

 Zero-point correction=                           0.153844 (Hartree/Particle)
 Thermal correction to Energy=                    0.164637
 Thermal correction to Enthalpy=                  0.165581
 Thermal correction to Gibbs Free Energy=         0.117380
 Sum of electronic and zero-point Energies=           -423.011897
 Sum of electronic and thermal Energies=              -423.001105
 Sum of electronic and thermal Enthalpies=            -423.000160
 Sum of electronic and thermal Free Energies=         -423.048361

                     E (Thermal)             CV                S
                      KCal/Mol        Cal/Mol-Kelvin    Cal/Mol-Kelvin
 Total                  103.311             38.907            101.447
 Electronic               0.000              0.000              0.000
 Translational            0.889              2.981             40.409
 Rotational               0.889              2.981             29.077
 Vibrational            101.534             32.946             31.961
 Vibration     1          0.593              1.985              6.278
 Vibration     2          0.599              1.964              3.945
 Vibration     3          0.610              1.928              3.018
 Vibration     4          0.623              1.886              2.499
 Vibration     5          0.631              1.860              2.277
 Vibration     6          0.641              1.828              2.060
 Vibration     7          0.664              1.759              1.714
 Vibration     8          0.687              1.689              1.465
 Vibration     9          0.693              1.672              1.412
 Vibration    10          0.722              1.590              1.198
 Vibration    11          0.774              1.450              0.929
 Vibration    12          0.785              1.421              0.883
 Vibration    13          0.855              1.250              0.658
 Vibration    14          0.897              1.157              0.561
 Vibration    15          0.930              1.088              0.497

 Normal termination of Gaussian 09 at Mon Jan 27 14:56:35 2020.
