 Gaussian 09, Revision D.01,
 Gaussian 09:  ES64L-G09RevD.01 24-Apr-2013

 -----------------------------
 # b3lyp 6-31G(2df,p) opt Freq
 -----------------------------

 -----
 titel
 -----
 Symbolic Z-matrix:
 Charge =  0 Multiplicity = 1

 SCF Done:  E(RB3LYP) =  -423.163948945     A.U. after   14 cycles
 Optimization completed.
    -- Stationary point found.
 Normal termination of Gaussian 09 at Mon Jan 27 12:12:23 2020.

 ----------------------------------------------------------------------
 #N Geom=AllCheck Guess=TCheck SCRF=Check GenChk RB3LYP/6-31G(2df,p) Fr
 eq
 ----------------------------------------------------------------------

 Structure from the checkpoint file:  "/scratch/puck/g09_8c4b384e-d229-4346-a97c-0e72f7375585/Gau-44980.chk"
 -----
 titel
 -----
 Charge =  0 Multiplicity = 1

                         Standard orientation:
 ---------------------------------------------------------------------
 Center     Atomic      Atomic             Coordinates (Angstroms)
 Number     Number       Type             X           Y           Z
 ---------------------------------------------------------------------
      1          6           0        2.721459   -0.648619   -0.296231
      2          8           0        2.559307    0.771150   -0.212998
      3          6           0        1.603722   -0.060653    0.445758
      4          6           0        0.203211   -0.010661   -0.116323
      5          6           0       -0.505549    1.312527    0.199647
      6          6           0       -1.978947    1.190303   -0.083830
      7          6           0       -2.561429    0.003403   -0.232010
      8          6           0       -1.796537   -1.281850   -0.082530
      9          8           0       -0.499377   -1.105790    0.456732
     10          1           0        2.543743   -1.081666   -1.279540
     11          1           0        3.576003   -1.052417    0.244129
     12          1           0        1.653651   -0.042366    1.535647
     13          1           0        0.259070   -0.128489   -1.211427
     14          1           0       -0.337796    1.584484    1.251682
     15          1           0       -0.056156    2.112613   -0.399844
     16          1           0       -2.557476    2.105706   -0.173262
     17          1           0       -3.617945   -0.085379   -0.470487
     18          1           0       -2.317336   -1.960572    0.603808
     19          1           0       -1.740783   -1.801487   -1.057465
 ---------------------------------------------------------------------

 SCF Done:  E(RB3LYP) =  -423.163948945     A.U. after    1 cycles

 The electronic state is 1-A.
 Alpha  occ. eigenvalues --  -19.15181 -19.14123 -10.23593 -10.23569 -10.23347
 Alpha  occ. eigenvalues --  -10.23318 -10.18538 -10.18512 -10.18293  -1.07196
 Alpha  occ. eigenvalues --   -1.03643  -0.80071  -0.77755  -0.68142  -0.65608
 Alpha  occ. eigenvalues --   -0.64496  -0.59319  -0.53725  -0.50687  -0.49183
 Alpha  occ. eigenvalues --   -0.47742  -0.46874  -0.43977  -0.41559  -0.39965
 Alpha  occ. eigenvalues --   -0.39022  -0.38506  -0.37733  -0.35270  -0.31502
 Alpha  occ. eigenvalues --   -0.30176  -0.26918  -0.25487  -0.24685
 Alpha virt. eigenvalues --    0.02088   0.08651   0.10270   0.11141   0.11328
 Alpha virt. eigenvalues --    0.11992   0.13404   0.14534   0.16311   0.16957
 Alpha virt. eigenvalues --    0.17215   0.18384   0.19355   0.20260   0.22923

 Mulliken charges:
               1
     1  C   -0.179318
     2  O   -0.241171
     3  C    0.067702
     4  C    0.104721
     5  C   -0.259225
     6  C   -0.074061
     7  C   -0.063540
     8  C   -0.113672
     9  O   -0.271117
    10  H    0.114761
    11  H    0.117276
    12  H    0.098469
    13  H    0.068790
    14  H    0.111171
    15  H    0.121564
    16  H    0.091261
    17  H    0.091742
    18  H    0.117832
    19  H    0.096815
 Sum of Mulliken charges =   0.00000

 Dipole moment (field-independent basis, Debye):
    X=             -1.1220    Y=             -0.7334    Z=             -0.3472  Tot=              1.3847
 Quadrupole moment (field-independent basis, Debye-Ang):
   XX=            -51.4165   YY=            -53.1984   ZZ=            -52.9083
   XY=             -3.5531   XZ=              1.4483   YZ=              1.8426

  Exact polarizability:  92.659   1.732  79.130   1.020   3.512  59.554
 Approx polarizability: 115.313   9.848 125.564   0.349   4.126  94.047

                      1                      2                      3
                      A                      A                      A
 Frequencies --     64.4258               108.1746               167.8984
 Red. masses --      3.6130                 3.0870                 3.8157
 Frc consts  --      0.0088                 0.0213                 0.0634
 IR Inten    --      2.5929                 0.2408                 5.0128

                      4                      5                      6
                      A                      A                      A
 Frequencies --    190.9922               308.8543               374.1024
 Red. masses --      2.2322                 4.0346                 3.0592
 Frc consts  --      0.0480                 0.2268                 0.2523
 IR Inten    --      4.0944                 1.8965                 0.4817

                      7                      8                      9
                      A                      A                      A
 Frequencies --    410.8500               469.9171               504.0095
 Red. masses --      2.3746                 4.0722                 4.2970
 Frc consts  --      0.2362                 0.5298                 0.6431
 IR Inten    --      1.3646                 5.0723                 3.7095

                     10                     11                     12
                      A                      A                      A
 Frequencies --    549.7165               669.6856               779.4959
 Red. masses --      3.8180                 1.1993                 2.4190
 Frc consts  --      0.6798                 0.3169                 0.8660
 IR Inten    --      1.6870                21.0549                 4.4386

                     13                     14                     15
                      A                      A                      A
 Frequencies --    858.4875               883.9028               894.1750
 Red. masses --      5.3152                 5.2848                 2.1423
 Frc consts  --      2.3080                 2.4327                 1.0092
 IR Inten    --      8.9665                13.7140                30.7057

                     16                     17                     18
                      A                      A                      A
 Frequencies --    927.8681               942.0467               972.0941
 Red. masses --      2.8675                 2.0516                 2.1318
 Frc consts  --      1.4545                 1.0727                 1.1869
 IR Inten    --      5.5053                22.1274                 4.5074

                     19                     20                     21
                      A                      A                      A
 Frequencies --    994.8843              1036.2142              1044.9764
 Red. masses --      1.1806                 1.9798                 2.3280
 Frc consts  --      0.6885                 1.2525                 1.4978
 IR Inten    --      1.4647                11.9955                 5.6117

                     22                     23                     24
                      A                      A                      A
 Frequencies --   1070.5828              1105.7011              1121.8662
 Red. masses --      1.7098                 1.6667                 2.6468
 Frc consts  --      1.1546                 1.2006                 1.9627
 IR Inten    --      8.7742                 4.1535                79.9120

                     25                     26                     27
                      A                      A                      A
 Frequencies --   1149.8169              1162.6612              1178.8513
 Red. masses --      1.5723                 1.4394                 1.5497
 Frc consts  --      1.2247                 1.1464                 1.2689
 IR Inten    --      3.6236                 2.7642                 3.6147

                     28                     29                     30
                      A                      A                      A
 Frequencies --   1209.3455              1221.4497              1260.6959
 Red. masses --      1.4064                 1.3343                 1.1114
 Frc consts  --      1.2119                 1.1729                 1.0408
 IR Inten    --     44.3785                 2.4184                10.2829

                     31                     32                     33
                      A                      A                      A
 Frequencies --   1283.4573              1299.2475              1349.7016
 Red. masses --      1.5592                 1.3460                 1.2994
 Frc consts  --      1.5132                 1.3387                 1.3946
 IR Inten    --      9.3101                 2.3504                 8.5504

                     34                     35                     36
                      A                      A                      A
 Frequencies --   1375.9429              1400.0131              1409.9811
 Red. masses --      1.5011                 1.3273                 1.6766
 Frc consts  --      1.6744                 1.5328                 1.9638
 IR Inten    --      5.5671                 9.5410                11.4246

                     37                     38                     39
                      A                      A                      A
 Frequencies --   1460.5452              1472.6171              1488.7628
 Red. masses --      1.6272                 1.1509                 1.0946
 Frc consts  --      2.0452                 1.4705                 1.4294
 IR Inten    --      1.0696                 3.8552                 1.8570

                     40                     41                     42
                      A                      A                      A
 Frequencies --   1530.5810              1727.9459              2930.6411
 Red. masses --      1.4437                 6.5506                 1.0731
 Frc consts  --      1.9927                11.5236                 5.4301
 IR Inten    --      2.5888                 2.8058                63.5766

                     43                     44                     45
                      A                      A                      A
 Frequencies --   2965.4183              3008.9976              3046.7918
 Red. masses --      1.0825                 1.0671                 1.0865
 Frc consts  --      5.6084                 5.6923                 5.9423
 IR Inten    --     32.1662                27.2659                32.3219

                     46                     47                     48
                      A                      A                      A
 Frequencies --   3063.2575              3085.5038              3103.3245
 Red. masses --      1.0933                 1.0501                 1.0884
 Frc consts  --      6.0446                 5.8904                 6.1756
 IR Inten    --     14.4335                27.7735                21.3528

                     49                     50                     51
                      A                      A                      A
 Frequencies --   3153.6127              3173.8063              3176.4234
 Red. masses --      1.0836                 1.1196                 1.0982
 Frc consts  --      6.3496                 6.6449                 6.5283
 IR Inten    --      6.7434                27.1514                30.2183

 - Thermochemistry -
 -------------------
 Temperature   298.150 Kelvin.  Pressure   1.00000 Atm.
 Atom     1 has atomic number  6 and mass  12.00000

 Molecular mass:   126.06808 amu.
 Principal axes and moments of inertia in atomic units:
                           1         2         3
     Eigenvalues --   465.822231660.717241998.61164
           X            0.99989  -0.01396   0.00442
           Y            0.01382   0.99949   0.02863
           Z           -0.00482  -0.02857   0.99958
 This molecule is an asymmetric top.
 Rotational symmetry number  1.
 Warning -- assumption of classical behavior for rotation
           may cause significant error
 Rotational temperatures (Kelvin)      0.18594     0.05215     0.04334
 Rotational constants (GHZ):           3.87431     1.08672     0.90300
 Zero-point vibrational energy     419532.2 (Joules/Mol)
                                  100.27061 (Kcal/Mol)
 Warning -- explicit consideration of  10 degrees of freedom as
           vibrations may cause significant error
 Vibrational temperatures:     92.69   155.64   241.57   274.79   444.37
          (Kelvin)            538.25   591.12   676.11   725.16   790.92
                              963.53  1121.52  1235.17  1271.74  1286.52
                             1334.99  1355.39  1398.62  1431.41  1490.88
                             1503.49  1540.33  1590.86  1614.11  1654.33
                             1672.81  1696.10  1739.98  1757.39  1813.86
                             1846.61  1869.33  1941.92  1979.67  2014.30
                             2028.65  2101.40  2118.76  2141.99  2202.16
                             2486.13  4216.53  4266.57  4329.27  4383.65
                             4407.34  4439.35  4464.99  4537.34  4566.39
                             4570.16

 Zero-point correction=                           0.159791 (Hartree/Particle)
 Thermal correction to Energy=                    0.167915
 Thermal correction to Enthalpy=                  0.168860
 Thermal correction to Gibbs Free Energy=         0.126538
 Sum of electronic and zero-point Energies=           -423.004158
 Sum of electronic and thermal Energies=              -422.996034
 Sum of electronic and thermal Enthalpies=            -422.995089
 Sum of electronic and thermal Free Energies=         -423.037411

                     E (Thermal)             CV                S
                      KCal/Mol        Cal/Mol-Kelvin    Cal/Mol-Kelvin
 Total                  105.369             30.662             89.074
 Electronic               0.000              0.000              0.000
 Translational            0.889              2.981             40.409
 Rotational               0.889              2.981             28.827
 Vibrational            103.591             24.701             19.839
 Vibration     1          0.597              1.971              4.317
 Vibration     2          0.606              1.943              3.301
 Vibration     3          0.625              1.882              2.459
 Vibration     4          0.634              1.852              2.218
 Vibration     5          0.698              1.657              1.368
 Vibration     6          0.745              1.525              1.063
 Vibration     7          0.775              1.447              0.924
 Vibration     8          0.827              1.317              0.738
 Vibration     9          0.859              1.241              0.648
 Vibration    10          0.905              1.140              0.545

 Optimization completed.
    -- Stationary point found.
 Normal termination of Gaussian 09 at Mon Jan 27 12:51:30 2020.
