 Gaussian 09, Revision D.01,
 Gaussian 09:  ES64L-G09RevD.01 24-Apr-2013

 -----------------------------
 # b3lyp 6-31G(2df,p) opt Freq
 -----------------------------

 -----
 titel
 -----
 Symbolic Z-matrix:
 Charge =  0 Multiplicity = 1

 SCF Done:  E(RB3LYP) =  -423.235899851     A.U. after   14 cycles
 Optimization completed.
    -- Stationary point found.
 Normal termination of Gaussian 09 at Mon Jan 27 22:03:09 2020.

 ----------------------------------------------------------------------
 #N Geom=AllCheck Guess=TCheck SCRF=Check GenChk RB3LYP/6-31G(2df,p) Fr
 eq
 ----------------------------------------------------------------------

 Structure from the checkpoint file:  "/scratch/puck/g09_6b31b758-a644-48cf-a580-fe1e1e1dff3b/Gau-78533.chk"
 -----
 titel
 -----
 Charge =  0 Multiplicity = 1

                         Standard orientation:
 ---------------------------------------------------------------------
 Center     Atomic      Atomic             Coordinates (Angstroms)
 Number     Number       Type             X           Y           Z
 ---------------------------------------------------------------------
      1          6           0        2.643849   -1.040930    0.152061
      2          6           0        1.291771   -0.382751    0.020733
      3          6           0        0.186208   -1.138664    0.118166
      4          6           0       -1.266953   -0.867831   -0.041288
      5          8           0       -2.016025   -1.774275   -0.313707
      6          8           0       -1.801290    0.366269    0.125753
      7          6           0       -1.022248    1.485979    0.546074
      8          6           0        0.067564    1.853156   -0.456584
      9          6           0        1.375765    1.103356   -0.211909
     10          1           0        3.233299   -0.563262    0.944677
     11          1           0        2.561525   -2.105861    0.377106
     12          1           0        3.221056   -0.928029   -0.774185
     13          1           0        0.324427   -2.207134    0.255592
     14          1           0       -1.753801    2.291722    0.638720
     15          1           0       -0.598428    1.299040    1.541720
     16          1           0       -0.319743    1.655051   -1.462096
     17          1           0        0.264043    2.929546   -0.401657
     18          1           0        2.069112    1.283017   -1.044972
     19          1           0        1.881282    1.536074    0.665206
 ---------------------------------------------------------------------

 SCF Done:  E(RB3LYP) =  -423.235899851     A.U. after    1 cycles

 The electronic state is 1-A.
 Alpha  occ. eigenvalues --  -19.17051 -19.10533 -10.29706 -10.24645 -10.22077
 Alpha  occ. eigenvalues --  -10.20666 -10.19996 -10.19557 -10.19223  -1.08615
 Alpha  occ. eigenvalues --   -1.00254  -0.84087  -0.78669  -0.71674  -0.70953
 Alpha  occ. eigenvalues --   -0.64092  -0.57902  -0.54972  -0.50916  -0.48630
 Alpha  occ. eigenvalues --   -0.45944  -0.44536  -0.43177  -0.42479  -0.41657
 Alpha  occ. eigenvalues --   -0.40681  -0.39519  -0.37809  -0.36288  -0.34438
 Alpha  occ. eigenvalues --   -0.32041  -0.28789  -0.26616  -0.25385
 Alpha virt. eigenvalues --   -0.03450   0.07019   0.08166   0.10390   0.11014
 Alpha virt. eigenvalues --    0.12071   0.13508   0.13855   0.14886   0.16196
 Alpha virt. eigenvalues --    0.16754   0.18253   0.19341   0.20181   0.22943

 Mulliken charges:
               1
     1  C   -0.460290
     2  C    0.269223
     3  C   -0.253014
     4  C    0.384897
     5  O   -0.337736
     6  O   -0.228576
     7  C   -0.072355
     8  C   -0.233268
     9  C   -0.282868
    10  H    0.129938
    11  H    0.133443
    12  H    0.134321
    13  H    0.111701
    14  H    0.124042
    15  H    0.110739
    16  H    0.125412
    17  H    0.107591
    18  H    0.118067
    19  H    0.118733
 Sum of Mulliken charges =   0.00000

 Dipole moment (field-independent basis, Debye):
    X=              4.2670    Y=              3.1091    Z=              0.7505  Tot=              5.3327
 Quadrupole moment (field-independent basis, Debye-Ang):
   XX=            -58.5246   YY=            -53.2033   ZZ=            -52.4637
   XY=             -6.2900   XZ=             -1.5960   YZ=             -0.9030

  Exact polarizability:  97.147   6.545  87.745   0.470   0.547  55.880
 Approx polarizability: 144.982  25.222 130.263   2.771   3.376  87.453

                      1                      2                      3
                      A                      A                      A
 Frequencies --     80.2825               139.2619               146.6707
 Red. masses --      3.5472                 2.6241                 1.5557
 Frc consts  --      0.0135                 0.0300                 0.0197
 IR Inten    --      0.7754                 0.4950                 0.5147

                      4                      5                      6
                      A                      A                      A
 Frequencies --    209.4556               283.3920               302.0857
 Red. masses --      1.7349                 2.1935                 3.1916
 Frc consts  --      0.0448                 0.1038                 0.1716
 IR Inten    --      1.8450                 0.6197                 3.3353

                      7                      8                      9
                      A                      A                      A
 Frequencies --    364.9853               408.2928               443.6330
 Red. masses --      4.2745                 3.7504                 2.1415
 Frc consts  --      0.3355                 0.3684                 0.2483
 IR Inten    --      1.3035                 2.7046                 3.9752

                     10                     11                     12
                      A                      A                      A
 Frequencies --    505.5497               544.3679               653.8423
 Red. masses --      4.7554                 2.2766                 4.6139
 Frc consts  --      0.7161                 0.3975                 1.1621
 IR Inten    --      3.5201                 1.4335                 4.5096

                     13                     14                     15
                      A                      A                      A
 Frequencies --    705.3400               789.8431               840.6202
 Red. masses --      3.0617                 3.4320                 2.4341
 Frc consts  --      0.8975                 1.2615                 1.0134
 IR Inten    --      5.0135                 9.7041                 9.2500

                     16                     17                     18
                      A                      A                      A
 Frequencies --    873.1710               904.0539               919.5754
 Red. masses --      2.2325                 2.4960                 1.5195
 Frc consts  --      1.0029                 1.2020                 0.7571
 IR Inten    --     11.3440                 5.2473                12.1363

                     19                     20                     21
                      A                      A                      A
 Frequencies --    977.1614              1041.8200              1044.3760
 Red. masses --      2.0583                 1.7705                 1.4457
 Frc consts  --      1.1579                 1.1322                 0.9290
 IR Inten    --      1.1977                22.5043                 5.6881

                     22                     23                     24
                      A                      A                      A
 Frequencies --   1077.2741              1107.7678              1128.0253
 Red. masses --      2.2151                 2.1652                 3.7817
 Frc consts  --      1.5146                 1.5655                 2.8352
 IR Inten    --      3.8188                 3.6647                61.2600

                     25                     26                     27
                      A                      A                      A
 Frequencies --   1139.0962              1218.7623              1264.2984
 Red. masses --      2.4577                 1.2247                 2.2586
 Frc consts  --      1.8789                 1.0718                 2.1271
 IR Inten    --     19.3657                 1.1035               135.1059

                     28                     29                     30
                      A                      A                      A
 Frequencies --   1284.1249              1313.2505              1355.1388
 Red. masses --      1.4088                 1.2847                 1.2771
 Frc consts  --      1.3687                 1.3054                 1.3818
 IR Inten    --     49.3591                83.4252                 8.1435

                     31                     32                     33
                      A                      A                      A
 Frequencies --   1384.2072              1409.0372              1416.0580
 Red. masses --      1.4963                 1.6159                 1.2884
 Frc consts  --      1.6891                 1.8902                 1.5222
 IR Inten    --      9.8523                 1.0893                 5.0635

                     34                     35                     36
                      A                      A                      A
 Frequencies --   1424.4743              1463.4661              1480.0863
 Red. masses --      1.3881                 1.0893                 1.0463
 Frc consts  --      1.6596                 1.3745                 1.3504
 IR Inten    --     19.7444                 7.2624                 6.9992

                     37                     38                     39
                      A                      A                      A
 Frequencies --   1480.9784              1487.9495              1505.8109
 Red. masses --      1.0908                 1.0723                 1.1001
 Frc consts  --      1.4095                 1.3988                 1.4697
 IR Inten    --      4.5794                 9.7190                 9.2654

                     40                     41                     42
                      A                      A                      A
 Frequencies --   1703.8404              1795.9621              2994.4516
 Red. masses --      7.3167                11.6138                 1.0668
 Frc consts  --     12.5147                22.0709                 5.6359
 IR Inten    --     30.0489               358.7310                17.9554

                     43                     44                     45
                      A                      A                      A
 Frequencies --   3022.7067              3023.0375              3028.2426
 Red. masses --      1.0489                 1.0627                 1.0828
 Frc consts  --      5.6466                 5.7219                 5.8503
 IR Inten    --     16.9050                32.3642                18.9113

                     46                     47                     48
                      A                      A                      A
 Frequencies --   3044.3886              3070.9335              3084.9751
 Red. masses --      1.0645                 1.0983                 1.1030
 Frc consts  --      5.8132                 6.1026                 6.1849
 IR Inten    --     27.3221                16.3207                23.9966

                     49                     50                     51
                      A                      A                      A
 Frequencies --   3104.1493              3129.5723              3171.1156
 Red. masses --      1.0969                 1.0990                 1.0876
 Frc consts  --      6.2275                 6.3421                 6.4438
 IR Inten    --     30.7500                14.1007                 6.3865

 - Thermochemistry -
 -------------------
 Temperature   298.150 Kelvin.  Pressure   1.00000 Atm.
 Atom     1 has atomic number  6 and mass  12.00000

 Molecular mass:   126.06808 amu.
 Principal axes and moments of inertia in atomic units:
                           1         2         3
     Eigenvalues --   797.929381186.316271860.83232
           X            0.99622  -0.08679  -0.00281
           Y            0.08676   0.99620  -0.00816
           Z            0.00351   0.00789   0.99996
 This molecule is an asymmetric top.
 Rotational symmetry number  1.
 Warning -- assumption of classical behavior for rotation
           may cause significant error
 Rotational temperatures (Kelvin)      0.10855     0.07301     0.04655
 Rotational constants (GHZ):           2.26178     1.52130     0.96986
 Zero-point vibrational energy     420433.3 (Joules/Mol)
                                  100.48597 (Kcal/Mol)
 Warning -- explicit consideration of  11 degrees of freedom as
           vibrations may cause significant error
 Vibrational temperatures:    115.51   200.37   211.03   301.36   407.74
          (Kelvin)            434.63   525.13   587.44   638.29   727.37
                              783.22   940.73  1014.83  1136.41  1209.46
                             1256.30  1300.73  1323.06  1405.92  1498.94
                             1502.62  1549.96  1593.83  1622.97  1638.90
                             1753.52  1819.04  1847.57  1889.47  1949.74
                             1991.56  2027.29  2037.39  2049.50  2105.60
                             2129.51  2130.79  2140.82  2166.52  2451.44
                             2583.99  4308.34  4349.00  4349.47  4356.96
                             4380.19  4418.38  4438.59  4466.17  4502.75
                             4562.52

 Zero-point correction=                           0.160135 (Hartree/Particle)
 Thermal correction to Energy=                    0.168657
 Thermal correction to Enthalpy=                  0.169601
 Thermal correction to Gibbs Free Energy=         0.126811
 Sum of electronic and zero-point Energies=           -423.075765
 Sum of electronic and thermal Energies=              -423.067243
 Sum of electronic and thermal Enthalpies=            -423.066299
 Sum of electronic and thermal Free Energies=         -423.109088

                     E (Thermal)             CV                S
                      KCal/Mol        Cal/Mol-Kelvin    Cal/Mol-Kelvin
 Total                  105.834             32.004             90.058
 Electronic               0.000              0.000              0.000
 Translational            0.889              2.981             40.409
 Rotational               0.889              2.981             28.956
 Vibrational            104.056             26.042             20.694
 Vibration     1          0.600              1.963              3.884
 Vibration     2          0.615              1.914              2.814
 Vibration     3          0.617              1.906              2.715
 Vibration     4          0.642              1.826              2.048
 Vibration     5          0.682              1.704              1.513
 Vibration     6          0.694              1.670              1.405
 Vibration     7          0.738              1.544              1.101
 Vibration     8          0.773              1.452              0.933
 Vibration     9          0.803              1.375              0.815
 Vibration    10          0.861              1.238              0.644
 Vibration    11          0.900              1.152              0.556

 Optimization completed.
    -- Stationary point found.
 Normal termination of Gaussian 09 at Mon Jan 27 22:47:38 2020.
