 Gaussian 09, Revision D.01,
 Gaussian 09:  ES64L-G09RevD.01 24-Apr-2013

 -----------------------------
 # b3lyp 6-31G(2df,p) opt Freq
 -----------------------------

 -----
 titel
 -----
 Symbolic Z-matrix:
 Charge =  0 Multiplicity = 1

 SCF Done:  E(RB3LYP) =  -423.214828493     A.U. after   14 cycles
 Optimization completed.
    -- Stationary point found.
 Normal termination of Gaussian 09 at Mon Jan 27 13:20:35 2020.

 ----------------------------------------------------------------------
 #N Geom=AllCheck Guess=TCheck SCRF=Check GenChk RB3LYP/6-31G(2df,p) Fr
 eq
 ----------------------------------------------------------------------

 Structure from the checkpoint file:  "/scratch/puck/g09_53a63d48-722c-4a11-83f4-de795022c7ea/Gau-168432.chk"
 -----
 titel
 -----
 Charge =  0 Multiplicity = 1

                         Standard orientation:
 ---------------------------------------------------------------------
 Center     Atomic      Atomic             Coordinates (Angstroms)
 Number     Number       Type             X           Y           Z
 ---------------------------------------------------------------------
      1          8           0       -3.179516   -0.279269   -0.242297
      2          6           0       -2.125495    0.057423    0.233813
      3          6           0       -0.784824   -0.086781   -0.443690
      4          6           0       -0.036108    1.283872   -0.541198
      5          6           0        1.243468    0.991794    0.272319
      6          6           0        2.180995    0.061166   -0.528380
      7          6           0        1.434513   -1.301577   -0.393668
      8          6           0        0.214341   -0.881871    0.454522
      9          8           0        0.748976    0.131821    1.310404
     10          1           0       -2.068002    0.512585    1.249689
     11          1           0       -0.942114   -0.562918   -1.413427
     12          1           0        0.158427    1.578708   -1.574445
     13          1           0       -0.612126    2.083285   -0.065062
     14          1           0        1.718008    1.865712    0.718068
     15          1           0        2.304472    0.384124   -1.565044
     16          1           0        3.170148    0.020290   -0.067446
     17          1           0        1.150184   -1.738723   -1.353593
     18          1           0        2.037154   -2.034656    0.146972
     19          1           0       -0.233174   -1.672976    1.057116
 ---------------------------------------------------------------------

 SCF Done:  E(RB3LYP) =  -423.214828493     A.U. after    1 cycles

 The electronic state is 1-A.
 Alpha  occ. eigenvalues --  -19.14704 -19.13593 -10.26592 -10.24372 -10.23968
 Alpha  occ. eigenvalues --  -10.19912 -10.19799 -10.19266 -10.19169  -1.05673
 Alpha  occ. eigenvalues --   -1.04230  -0.81162  -0.76987  -0.75570  -0.64482
 Alpha  occ. eigenvalues --   -0.59361  -0.58114  -0.56862  -0.52799  -0.48909
 Alpha  occ. eigenvalues --   -0.46953  -0.44765  -0.42605  -0.41996  -0.40532
 Alpha  occ. eigenvalues --   -0.39407  -0.37143  -0.35822  -0.35359  -0.35047
 Alpha  occ. eigenvalues --   -0.33104  -0.32072  -0.27116  -0.24438
 Alpha virt. eigenvalues --   -0.01986   0.06896   0.08622   0.12236   0.13209
 Alpha virt. eigenvalues --    0.14157   0.14501   0.14679   0.15076   0.16148
 Alpha virt. eigenvalues --    0.16373   0.17889   0.19334   0.19847   0.20554

 Mulliken charges:
               1
     1  O   -0.257038
     2  C    0.140773
     3  C   -0.062077
     4  C   -0.255214
     5  C    0.084077
     6  C   -0.217779
     7  C   -0.224718
     8  C    0.050193
     9  O   -0.259516
    10  H    0.085917
    11  H    0.090708
    12  H    0.111580
    13  H    0.111021
    14  H    0.082880
    15  H    0.102937
    16  H    0.110526
    17  H    0.106281
    18  H    0.110386
    19  H    0.089066
 Sum of Mulliken charges =   0.00000

 Dipole moment (field-independent basis, Debye):
    X=              2.9277    Y=              0.4468    Z=             -0.8380  Tot=              3.0779
 Quadrupole moment (field-independent basis, Debye-Ang):
   XX=            -63.3489   YY=            -49.8942   ZZ=            -54.6926
   XY=             -1.2217   XZ=             -3.2275   YZ=             -0.7402

  Exact polarizability:  87.991   1.676  70.650  -0.315   1.244  65.384
 Approx polarizability: 120.546   6.589 103.762   4.615   3.041 105.709

                      1                      2                      3
                      A                      A                      A
 Frequencies --     77.6130                90.5287               227.1479
 Red. masses --      4.6071                 3.3300                 2.2566
 Frc consts  --      0.0164                 0.0161                 0.0686
 IR Inten    --      5.3090                 2.0822                 1.8468

                      4                      5                      6
                      A                      A                      A
 Frequencies --    270.0623               356.7270               394.4681
 Red. masses --      2.1542                 3.6683                 2.0004
 Frc consts  --      0.0926                 0.2750                 0.1834
 IR Inten    --      1.6461                 0.0434                 2.8798

                      7                      8                      9
                      A                      A                      A
 Frequencies --    459.0006               557.6778               643.2424
 Red. masses --      3.9411                 4.3189                 3.7247
 Frc consts  --      0.4892                 0.7914                 0.9080
 IR Inten    --     12.8402                 7.5427                 2.5869

                     10                     11                     12
                      A                      A                      A
 Frequencies --    783.0778               806.9445               824.2745
 Red. masses --      2.8311                 3.7682                 1.9327
 Frc consts  --      1.0229                 1.4457                 0.7737
 IR Inten    --      2.2747                10.1003                10.1551

                     13                     14                     15
                      A                      A                      A
 Frequencies --    834.3638               884.6320               899.9090
 Red. masses --      2.8732                 2.5088                 1.8920
 Frc consts  --      1.1785                 1.1567                 0.9027
 IR Inten    --      4.6263                 7.9333                10.6511

                     16                     17                     18
                      A                      A                      A
 Frequencies --    931.1889               945.2692               962.0453
 Red. masses --      2.4269                 2.6302                 2.6818
 Frc consts  --      1.2399                 1.3847                 1.4624
 IR Inten    --      5.2787                10.8704                 7.3361

                     19                     20                     21
                      A                      A                      A
 Frequencies --    977.3256              1007.8933              1028.8425
 Red. masses --      2.8282                 2.0379                 2.4220
 Frc consts  --      1.5916                 1.2197                 1.5105
 IR Inten    --     23.3294                 1.3316                14.7871

                     22                     23                     24
                      A                      A                      A
 Frequencies --   1040.9964              1072.7617              1125.8300
 Red. masses --      2.9400                 1.6483                 2.1157
 Frc consts  --      1.8771                 1.1176                 1.5800
 IR Inten    --     42.9841                 2.3706                10.4086

                     25                     26                     27
                      A                      A                      A
 Frequencies --   1155.3171              1189.9933              1225.2993
 Red. masses --      1.2275                 1.4322                 1.4245
 Frc consts  --      0.9653                 1.1949                 1.2601
 IR Inten    --      6.3336                15.5146                10.0752

                     28                     29                     30
                      A                      A                      A
 Frequencies --   1233.0159              1237.9586              1274.7640
 Red. masses --      1.1999                 1.3242                 1.3057
 Frc consts  --      1.0748                 1.1957                 1.2501
 IR Inten    --      2.4602                 9.8150                 0.2580

                     31                     32                     33
                      A                      A                      A
 Frequencies --   1284.8069              1301.6446              1313.1496
 Red. masses --      1.3404                 1.3381                 1.7334
 Frc consts  --      1.3036                 1.3358                 1.7611
 IR Inten    --      0.1943                 3.9574                 1.4232

                     34                     35                     36
                      A                      A                      A
 Frequencies --   1323.3782              1352.2464              1361.3814
 Red. masses --      1.4538                 1.4352                 1.4863
 Frc consts  --      1.5001                 1.5463                 1.6230
 IR Inten    --      1.8674                11.7147                 1.9650

                     37                     38                     39
                      A                      A                      A
 Frequencies --   1422.1733              1483.1089              1492.4904
 Red. masses --      1.2074                 1.0872                 1.0901
 Frc consts  --      1.4388                 1.4089                 1.4307
 IR Inten    --      3.5909                 0.9987                 3.2595

                     40                     41                     42
                      A                      A                      A
 Frequencies --   1508.6818              1829.4316              2869.7100
 Red. masses --      1.1011                10.1085                 1.0822
 Frc consts  --      1.4766                19.9328                 5.2507
 IR Inten    --      3.7590               215.3527                75.8548

                     43                     44                     45
                      A                      A                      A
 Frequencies --   3056.7063              3065.4440              3074.2234
 Red. masses --      1.0632                 1.0591                 1.0607
 Frc consts  --      5.8530                 5.8639                 5.9064
 IR Inten    --     20.7927                20.6576                28.1201

                     46                     47                     48
                      A                      A                      A
 Frequencies --   3093.9849              3106.0195              3113.4570
 Red. masses --      1.0888                 1.1049                 1.0982
 Frc consts  --      6.1410                 6.2804                 6.2720
 IR Inten    --      6.8792                 5.5083                22.2409

                     49                     50                     51
                      A                      A                      A
 Frequencies --   3118.1251              3124.0101              3127.8393
 Red. masses --      1.0924                 1.0975                 1.0990
 Frc consts  --      6.2577                 6.3109                 6.3346
 IR Inten    --     22.0102                19.6309                45.6048

 - Thermochemistry -
 -------------------
 Temperature   298.150 Kelvin.  Pressure   1.00000 Atm.
 Atom     1 has atomic number  8 and mass  15.99491

 Molecular mass:   126.06808 amu.
 Principal axes and moments of inertia in atomic units:
                           1         2         3
     Eigenvalues --   498.173291492.779841595.09566
           X            0.99977  -0.01122  -0.01836
           Y            0.01115   0.99993  -0.00391
           Z            0.01840   0.00370   0.99982
 This molecule is an asymmetric top.
 Rotational symmetry number  1.
 Warning -- assumption of classical behavior for rotation
           may cause significant error
 Rotational temperatures (Kelvin)      0.17386     0.05802     0.05430
 Rotational constants (GHZ):           3.62272     1.20898     1.13143
 Zero-point vibrational energy     424316.5 (Joules/Mol)
                                  101.41408 (Kcal/Mol)
 Warning -- explicit consideration of   8 degrees of freedom as
           vibrations may cause significant error
 Vibrational temperatures:    111.67   130.25   326.81   388.56   513.25
          (Kelvin)            567.55   660.40   802.37   925.48  1126.67
                             1161.01  1185.95  1200.46  1272.79  1294.77
                             1339.77  1360.03  1384.17  1406.15  1450.13
                             1480.27  1497.76  1543.46  1619.82  1662.24
                             1712.13  1762.93  1774.03  1781.14  1834.10
                             1848.55  1872.77  1889.33  1904.04  1945.58
                             1958.72  2046.19  2133.86  2147.36  2170.65
                             2632.14  4128.87  4397.91  4410.48  4423.12
                             4451.55  4468.86  4479.56  4486.28  4494.75
                             4500.26

 Zero-point correction=                           0.161614 (Hartree/Particle)
 Thermal correction to Energy=                    0.169120
 Thermal correction to Enthalpy=                  0.170065
 Thermal correction to Gibbs Free Energy=         0.129101
 Sum of electronic and zero-point Energies=           -423.053215
 Sum of electronic and thermal Energies=              -423.045708
 Sum of electronic and thermal Enthalpies=            -423.044764
 Sum of electronic and thermal Free Energies=         -423.085727

                     E (Thermal)             CV                S
                      KCal/Mol        Cal/Mol-Kelvin    Cal/Mol-Kelvin
 Total                  106.125             29.083             86.214
 Electronic               0.000              0.000              0.000
 Translational            0.889              2.981             40.409
 Rotational               0.889              2.981             28.563
 Vibrational            104.347             23.121             17.242
 Vibration     1          0.599              1.964              3.950
 Vibration     2          0.602              1.956              3.649
 Vibration     3          0.651              1.800              1.901
 Vibration     4          0.674              1.728              1.596
 Vibration     5          0.732              1.561              1.136
 Vibration     6          0.761              1.482              0.983
 Vibration     7          0.817              1.341              0.769
 Vibration     8          0.913              1.123              0.528

 Optimization completed.
    -- Stationary point found.
 Normal termination of Gaussian 09 at Mon Jan 27 14:08:20 2020.
