 Gaussian 09, Revision D.01,
 Gaussian 09:  ES64L-G09RevD.01 24-Apr-2013

 -----------------------------
 # b3lyp 6-31G(2df,p) opt Freq
 -----------------------------

 -----
 titel
 -----
 Symbolic Z-matrix:
 Charge =  0 Multiplicity = 1

 SCF Done:  E(RB3LYP) =  -423.228125825     A.U. after   14 cycles
 Optimization completed.
    -- Stationary point found.
 Normal termination of Gaussian 09 at Tue Jan 28 03:55:32 2020.

 ----------------------------------------------------------------------
 #N Geom=AllCheck Guess=TCheck SCRF=Check GenChk RB3LYP/6-31G(2df,p) Fr
 eq
 ----------------------------------------------------------------------

 Structure from the checkpoint file:  "/scratch/puck/g09_34a404b5-63ec-4e8e-beea-463e2484f0be/Gau-43612.chk"
 -----
 titel
 -----
 Charge =  0 Multiplicity = 1

                         Standard orientation:
 ---------------------------------------------------------------------
 Center     Atomic      Atomic             Coordinates (Angstroms)
 Number     Number       Type             X           Y           Z
 ---------------------------------------------------------------------
      1          6           0        2.301485    0.855823    0.552025
      2          6           0        0.820982    0.484490    0.438220
      3          6           0        0.048383    1.520112   -0.408470
      4          6           0       -1.446673    1.370541   -0.438079
      5          6           0       -2.166108    0.346488    0.016795
      6          6           0       -1.631936   -0.927626    0.621684
      7          8           0       -0.529829   -1.519655   -0.082020
      8          6           0        0.674904   -0.906343   -0.175265
      9          8           0        1.562904   -1.471433   -0.755399
     10          1           0        2.771670    0.871045   -0.434237
     11          1           0        2.410263    1.843762    1.010197
     12          1           0        2.843821    0.128877    1.161099
     13          1           0        0.377660    0.476584    1.441248
     14          1           0        0.284098    2.518630   -0.016317
     15          1           0        0.443186    1.516147   -1.435023
     16          1           0       -1.979435    2.209295   -0.881955
     17          1           0       -3.249458    0.398995   -0.052264
     18          1           0       -1.368190   -0.796643    1.680074
     19          1           0       -2.404429   -1.698897    0.585068
 ---------------------------------------------------------------------

 SCF Done:  E(RB3LYP) =  -423.228125825     A.U. after    1 cycles

 The electronic state is 1-A.
 Alpha  occ. eigenvalues --  -19.17577 -19.11460 -10.29879 -10.25280 -10.20829
 Alpha  occ. eigenvalues --  -10.20458 -10.20045 -10.19574 -10.17891  -1.09116
 Alpha  occ. eigenvalues --   -1.01013  -0.83106  -0.78923  -0.73088  -0.67569
 Alpha  occ. eigenvalues --   -0.64916  -0.56718  -0.53575  -0.51770  -0.50174
 Alpha  occ. eigenvalues --   -0.45978  -0.44858  -0.43440  -0.42399  -0.40619
 Alpha  occ. eigenvalues --   -0.39902  -0.38672  -0.37645  -0.35348  -0.34189
 Alpha  occ. eigenvalues --   -0.32878  -0.28990  -0.26365  -0.25861
 Alpha virt. eigenvalues --   -0.00205   0.01780   0.07917   0.09221   0.10586
 Alpha virt. eigenvalues --    0.13806   0.14112   0.14867   0.16141   0.17116
 Alpha virt. eigenvalues --    0.17959   0.18488   0.20416   0.21352   0.21715

 Mulliken charges:
               1
     1  C   -0.400903
     2  C   -0.145877
     3  C   -0.246626
     4  C   -0.043624
     5  C   -0.072809
     6  C   -0.142069
     7  O   -0.223380
     8  C    0.431097
     9  O   -0.323211
    10  H    0.138175
    11  H    0.106595
    12  H    0.127442
    13  H    0.098155
    14  H    0.115564
    15  H    0.129855
    16  H    0.097953
    17  H    0.100223
    18  H    0.123337
    19  H    0.130104
 Sum of Mulliken charges =   0.00000

 Dipole moment (field-independent basis, Debye):
    X=             -2.2635    Y=              2.8668    Z=              1.8727  Tot=              4.1047
 Quadrupole moment (field-independent basis, Debye-Ang):
   XX=            -52.4083   YY=            -56.1226   ZZ=            -53.0339
   XY=              4.4499   XZ=              1.3890   YZ=             -4.1845

  Exact polarizability:  91.871   4.127  78.568  -3.800  -4.785  59.590
 Approx polarizability: 127.152   7.286 118.841 -13.324  -6.639  95.985

                      1                      2                      3
                      A                      A                      A
 Frequencies --     82.4725               131.3235               211.2092
 Red. masses --      4.7643                 2.5249                 1.0638
 Frc consts  --      0.0191                 0.0257                 0.0280
 IR Inten    --      0.7665                 0.7099                 0.3242

                      4                      5                      6
                      A                      A                      A
 Frequencies --    226.9168               279.4390               297.8807
 Red. masses --      2.5831                 4.0551                 2.9402
 Frc consts  --      0.0784                 0.1866                 0.1537
 IR Inten    --      1.9954                 3.1963                 3.9190

                      7                      8                      9
                      A                      A                      A
 Frequencies --    362.3122               368.4787               440.5498
 Red. masses --      2.7496                 3.6453                 3.6698
 Frc consts  --      0.2127                 0.2916                 0.4196
 IR Inten    --      0.4276                 0.5020                 3.8492

                     10                     11                     12
                      A                      A                      A
 Frequencies --    562.7058               584.1403               659.5439
 Red. masses --      4.7167                 4.5728                 1.3086
 Frc consts  --      0.8799                 0.9193                 0.3354
 IR Inten    --      0.3601                 7.0453                18.0196

                     13                     14                     15
                      A                      A                      A
 Frequencies --    740.2682               757.4049               804.9963
 Red. masses --      4.8890                 3.0362                 3.1240
 Frc consts  --      1.5785                 1.0262                 1.1927
 IR Inten    --      6.5339                 1.6238                 7.9890

                     16                     17                     18
                      A                      A                      A
 Frequencies --    873.1596               915.3110               933.0108
 Red. masses --      2.7998                 2.3000                 1.6892
 Frc consts  --      1.2576                 1.1353                 0.8664
 IR Inten    --      1.4001                 9.1635                 2.5761

                     19                     20                     21
                      A                      A                      A
 Frequencies --   1006.6629              1011.5192              1037.8556
 Red. masses --      1.2079                 1.9913                 1.8369
 Frc consts  --      0.7212                 1.2004                 1.1658
 IR Inten    --      0.1333                 5.9637                15.0440

                     22                     23                     24
                      A                      A                      A
 Frequencies --   1061.4590              1094.5405              1108.0238
 Red. masses --      2.5917                 2.6630                 3.0159
 Frc consts  --      1.7205                 1.8797                 2.1815
 IR Inten    --     16.9712                22.1857                45.6280

                     25                     26                     27
                      A                      A                      A
 Frequencies --   1136.9287              1185.6533              1219.0282
 Red. masses --      1.8430                 2.3082                 1.4862
 Frc consts  --      1.4036                 1.9118                 1.3013
 IR Inten    --      1.6106               147.1584                59.3143

                     28                     29                     30
                      A                      A                      A
 Frequencies --   1254.3381              1282.0532              1320.6599
 Red. masses --      1.1134                 1.1454                 1.2285
 Frc consts  --      1.0322                 1.1092                 1.2624
 IR Inten    --      0.5918                22.6983                 2.9455

                     31                     32                     33
                      A                      A                      A
 Frequencies --   1358.5797              1395.3686              1413.8281
 Red. masses --      1.4874                 1.5414                 1.2893
 Frc consts  --      1.6175                 1.7682                 1.5184
 IR Inten    --      1.9744                 7.9762                 1.7467

                     34                     35                     36
                      A                      A                      A
 Frequencies --   1419.7731              1425.6584              1471.4279
 Red. masses --      1.3391                 1.5603                 1.0869
 Frc consts  --      1.5903                 1.8684                 1.3865
 IR Inten    --     25.7083                18.3779                 8.2298

                     37                     38                     39
                      A                      A                      A
 Frequencies --   1489.1148              1496.3125              1503.3112
 Red. masses --      1.0465                 1.0557                 1.0846
 Frc consts  --      1.3672                 1.3927                 1.4442
 IR Inten    --      4.8959                 7.9495                10.1664

                     40                     41                     42
                      A                      A                      A
 Frequencies --   1735.7815              1836.3512              3005.1146
 Red. masses --      6.8730                12.2026                 1.0622
 Frc consts  --     12.2008                24.2446                 5.6515
 IR Inten    --      8.0895               277.4389                15.5976

                     43                     44                     45
                      A                      A                      A
 Frequencies --   3010.9068              3029.0438              3043.5310
 Red. masses --      1.0715                 1.0901                 1.0829
 Frc consts  --      5.7229                 5.8931                 5.9099
 IR Inten    --     23.4880                12.6878                25.3520

                     46                     47                     48
                      A                      A                      A
 Frequencies --   3047.4578              3099.7067              3119.2457
 Red. masses --      1.0417                 1.0920                 1.1006
 Frc consts  --      5.7001                 6.1820                 6.3091
 IR Inten    --     22.4792                18.6830                19.6590

                     49                     50                     51
                      A                      A                      A
 Frequencies --   3131.8424              3141.6280              3168.5312
 Red. masses --      1.1018                 1.0843                 1.0947
 Frc consts  --      6.3672                 6.3052                 6.4755
 IR Inten    --     15.4621                 7.8341                26.2097

 - Thermochemistry -
 -------------------
 Temperature   298.150 Kelvin.  Pressure   1.00000 Atm.
 Atom     1 has atomic number  6 and mass  12.00000

 Molecular mass:   126.06808 amu.
 Principal axes and moments of inertia in atomic units:
                           1         2         3
     Eigenvalues --   753.048831122.298971625.19273
           X            0.99670   0.08055   0.00984
           Y           -0.08025   0.99639  -0.02757
           Z           -0.01202   0.02669   0.99957
 This molecule is an asymmetric top.
 Rotational symmetry number  1.
 Warning -- assumption of classical behavior for rotation
           may cause significant error
 Rotational temperatures (Kelvin)      0.11502     0.07718     0.05329
 Rotational constants (GHZ):           2.39658     1.60808     1.11048
 Zero-point vibrational energy     420441.7 (Joules/Mol)
                                  100.48797 (Kcal/Mol)
 Warning -- explicit consideration of  11 degrees of freedom as
           vibrations may cause significant error
 Vibrational temperatures:    118.66   188.95   303.88   326.48   402.05
          (Kelvin)            428.58   521.29   530.16   633.85   809.61
                              840.45   948.94  1065.08  1089.74  1158.21
                             1256.28  1316.93  1342.39  1448.36  1455.35
                             1493.24  1527.20  1574.80  1594.20  1635.78
                             1705.89  1753.91  1804.71  1844.59  1900.13
                             1954.69  2007.62  2034.18  2042.73  2051.20
                             2117.05  2142.50  2152.86  2162.93  2497.40
                             2642.10  4323.68  4332.02  4358.11  4378.96
                             4384.61  4459.78  4487.89  4506.02  4520.10
                             4558.80

 Zero-point correction=                           0.160138 (Hartree/Particle)
 Thermal correction to Energy=                    0.168547
 Thermal correction to Enthalpy=                  0.169491
 Thermal correction to Gibbs Free Energy=         0.127157
 Sum of electronic and zero-point Energies=           -423.067988
 Sum of electronic and thermal Energies=              -423.059579
 Sum of electronic and thermal Enthalpies=            -423.058635
 Sum of electronic and thermal Free Energies=         -423.100969

                     E (Thermal)             CV                S
                      KCal/Mol        Cal/Mol-Kelvin    Cal/Mol-Kelvin
 Total                  105.765             31.968             89.100
 Electronic               0.000              0.000              0.000
 Translational            0.889              2.981             40.409
 Rotational               0.889              2.981             28.709
 Vibrational            103.987             26.006             19.983
 Vibration     1          0.600              1.961              3.831
 Vibration     2          0.612              1.922              2.927
 Vibration     3          0.643              1.824              2.033
 Vibration     4          0.651              1.800              1.903
 Vibration     5          0.680              1.712              1.537
 Vibration     6          0.691              1.678              1.429
 Vibration     7          0.736              1.550              1.112
 Vibration     8          0.741              1.537              1.086
 Vibration     9          0.800              1.382              0.825
 Vibration    10          0.918              1.112              0.518
 Vibration    11          0.941              1.066              0.478

 Optimization completed.
    -- Stationary point found.
 Normal termination of Gaussian 09 at Tue Jan 28 04:41:07 2020.
