 Gaussian 09, Revision D.01,
 Gaussian 09:  ES64L-G09RevD.01 24-Apr-2013

 -----------------------------
 # b3lyp 6-31G(2df,p) opt Freq
 -----------------------------

 -----
 titel
 -----
 Symbolic Z-matrix:
 Charge =  0 Multiplicity = 1

 SCF Done:  E(RB3LYP) =  -423.153078208     A.U. after   13 cycles
 Optimization completed.
    -- Stationary point found.
 Normal termination of Gaussian 09 at Tue Jan 28 03:18:18 2020.

 ----------------------------------------------------------------------
 #N Geom=AllCheck Guess=TCheck SCRF=Check GenChk RB3LYP/6-31G(2df,p) Fr
 eq
 ----------------------------------------------------------------------

 Structure from the checkpoint file:  "/scratch/puck/g09_04d91505-df46-46ae-9072-2d5fc3779b99/Gau-1368.chk"
 -----
 titel
 -----
 Charge =  0 Multiplicity = 1

                         Standard orientation:
 ---------------------------------------------------------------------
 Center     Atomic      Atomic             Coordinates (Angstroms)
 Number     Number       Type             X           Y           Z
 ---------------------------------------------------------------------
      1          6           0        1.586650    1.703225    0.039043
      2          6           0        0.372265    0.893847    0.457589
      3          8           0       -0.799163    1.436892   -0.170749
      4          6           0       -1.685289    0.394842   -0.482538
      5          6           0       -2.107199   -0.541729    0.614492
      6          6           0       -0.997264   -0.936417   -0.352847
      7          6           0        0.402967   -0.589433    0.050335
      8          6           0        1.416883   -1.536366    0.515210
      9          8           0        1.444207   -1.031379   -0.827040
     10          1           0        1.435519    2.754285    0.298128
     11          1           0        2.483516    1.347078    0.554797
     12          1           0        1.749906    1.618467   -1.036770
     13          1           0        0.246745    0.954940    1.549883
     14          1           0       -2.358074    0.655529   -1.290383
     15          1           0       -1.856897   -0.303579    1.642740
     16          1           0       -3.054488   -1.055373    0.491578
     17          1           0       -1.135220   -1.756388   -1.046017
     18          1           0        2.229413   -1.195324    1.157037
     19          1           0        1.165149   -2.591556    0.613626
 ---------------------------------------------------------------------

 SCF Done:  E(RB3LYP) =  -423.153078208     A.U. after    1 cycles

 The electronic state is 1-A.
 Alpha  occ. eigenvalues --  -19.15148 -19.14225 -10.24559 -10.23776 -10.23719
 Alpha  occ. eigenvalues --  -10.23507 -10.19500 -10.19094 -10.17475  -1.07391
 Alpha  occ. eigenvalues --   -1.04233  -0.85184  -0.76898  -0.68988  -0.65894
 Alpha  occ. eigenvalues --   -0.62463  -0.58678  -0.55563  -0.51971  -0.49349
 Alpha  occ. eigenvalues --   -0.48301  -0.46869  -0.41343  -0.40504  -0.40251
 Alpha  occ. eigenvalues --   -0.38894  -0.38336  -0.37719  -0.34418  -0.33106
 Alpha  occ. eigenvalues --   -0.31137  -0.28356  -0.26896  -0.23229
 Alpha virt. eigenvalues --    0.08099   0.09459   0.09570   0.10090   0.11923
 Alpha virt. eigenvalues --    0.13542   0.14649   0.15492   0.16611   0.17154
 Alpha virt. eigenvalues --    0.17403   0.18656   0.19542   0.21192   0.22164

 Mulliken charges:
               1
     1  C   -0.397208
     2  C    0.031455
     3  O   -0.275482
     4  C    0.118369
     5  C   -0.343473
     6  C   -0.160627
     7  C    0.414464
     8  C   -0.251905
     9  O   -0.271169
    10  H    0.124512
    11  H    0.116562
    12  H    0.138919
    13  H    0.080457
    14  H    0.106656
    15  H    0.120464
    16  H    0.118070
    17  H    0.102851
    18  H    0.111647
    19  H    0.115437
 Sum of Mulliken charges =   0.00000

 Dipole moment (field-independent basis, Debye):
    X=             -0.5515    Y=             -1.0800    Z=              1.5087  Tot=              1.9357
 Quadrupole moment (field-independent basis, Debye-Ang):
   XX=            -51.3391   YY=            -53.9372   ZZ=            -52.8501
   XY=              2.9567   XZ=              4.1836   YZ=             -0.8962

  Exact polarizability:  84.937   0.871  75.256   3.031  -1.407  63.330
 Approx polarizability: 113.605  -3.618 107.082   1.538  -2.503 102.347

                      1                      2                      3
                      A                      A                      A
 Frequencies --     89.4181               188.7244               206.3940
 Red. masses --      3.4869                 3.1316                 1.0733
 Frc consts  --      0.0164                 0.0657                 0.0269
 IR Inten    --      1.9149                 2.2398                 0.0930

                      4                      5                      6
                      A                      A                      A
 Frequencies --    248.1909               285.3569               350.4543
 Red. masses --      2.8178                 2.9237                 3.2517
 Frc consts  --      0.1023                 0.1403                 0.2353
 IR Inten    --      1.9110                 3.6944                 5.9604

                      7                      8                      9
                      A                      A                      A
 Frequencies --    416.3325               441.4721               510.8380
 Red. masses --      3.0216                 3.5482                 4.2134
 Frc consts  --      0.3086                 0.4074                 0.6478
 IR Inten    --      0.9656                 0.7625                 0.8761

                     10                     11                     12
                      A                      A                      A
 Frequencies --    583.6835               700.8837               727.4785
 Red. masses --      2.8879                 4.1532                 2.8690
 Frc consts  --      0.5797                 1.2021                 0.8946
 IR Inten    --     10.6304                 1.5346                 9.8405

                     13                     14                     15
                      A                      A                      A
 Frequencies --    792.0857               806.4152               854.8235
 Red. masses --      2.1216                 1.5902                 3.5530
 Frc consts  --      0.7843                 0.6093                 1.5297
 IR Inten    --     10.2508                11.3818                21.7238

                     16                     17                     18
                      A                      A                      A
 Frequencies --    877.1109               897.9764               956.5148
 Red. masses --      1.7170                 2.3727                 3.2532
 Frc consts  --      0.7783                 1.1273                 1.7537
 IR Inten    --      2.9120                12.1725                35.7505

                     19                     20                     21
                      A                      A                      A
 Frequencies --    991.8274               994.6947              1025.1511
 Red. masses --      1.8832                 3.0227                 1.3930
 Frc consts  --      1.0915                 1.7621                 0.8626
 IR Inten    --      4.5938                23.3302                 7.7502

                     22                     23                     24
                      A                      A                      A
 Frequencies --   1053.9430              1066.3401              1090.1196
 Red. masses --      1.5975                 1.9247                 1.3944
 Frc consts  --      1.0455                 1.2895                 0.9763
 IR Inten    --      6.6176                12.4125                 5.6133

                     25                     26                     27
                      A                      A                      A
 Frequencies --   1109.7745              1123.6543              1142.6590
 Red. masses --      1.6958                 1.3052                 2.1436
 Frc consts  --      1.2306                 0.9709                 1.6490
 IR Inten    --      8.6003                 2.8649                 8.9539

                     28                     29                     30
                      A                      A                      A
 Frequencies --   1160.0176              1167.4979              1193.5733
 Red. masses --      2.7137                 1.4307                 1.6471
 Frc consts  --      2.1515                 1.1490                 1.3825
 IR Inten    --     80.2665                 6.1829                11.6960

                     31                     32                     33
                      A                      A                      A
 Frequencies --   1247.9253              1302.7476              1327.5698
 Red. masses --      2.1447                 2.1408                 1.2922
 Frc consts  --      1.9679                 2.1407                 1.3418
 IR Inten    --     12.5252                 2.5292                10.5097

                     34                     35                     36
                      A                      A                      A
 Frequencies --   1376.6258              1390.6505              1407.9225
 Red. masses --      1.6130                 1.4437                 1.3832
 Frc consts  --      1.8010                 1.6450                 1.6155
 IR Inten    --     21.5331                 4.8321                10.6721

                     37                     38                     39
                      A                      A                      A
 Frequencies --   1439.0926              1478.2895              1483.2176
 Red. masses --      2.1722                 1.2539                 1.0767
 Frc consts  --      2.6505                 1.6145                 1.3956
 IR Inten    --      7.3619                11.0685                 4.2673

                     40                     41                     42
                      A                      A                      A
 Frequencies --   1489.8586              1535.5907              2975.1557
 Red. masses --      1.0495                 1.5059                 1.0825
 Frc consts  --      1.3726                 2.0922                 5.6456
 IR Inten    --      4.6443                 5.5836                37.9745

                     43                     44                     45
                      A                      A                      A
 Frequencies --   3051.4074              3075.8068              3120.7052
 Red. masses --      1.0356                 1.0508                 1.1007
 Frc consts  --      5.6814                 5.8571                 6.3158
 IR Inten    --     14.3893                26.9785                18.8055

                     46                     47                     48
                      A                      A                      A
 Frequencies --   3133.2123              3144.1164              3161.0172
 Red. masses --      1.0542                 1.1023                 1.1188
 Frc consts  --      6.0973                 6.4202                 6.5865
 IR Inten    --      9.2947                13.0363                21.9683

                     49                     50                     51
                      A                      A                      A
 Frequencies --   3187.7351              3196.4771              3221.1453
 Red. masses --      1.0903                 1.0961                 1.1150
 Frc consts  --      6.5279                 6.5983                 6.8160
 IR Inten    --     13.3229                 5.2906                10.0784

 - Thermochemistry -
 -------------------
 Temperature   298.150 Kelvin.  Pressure   1.00000 Atm.
 Atom     1 has atomic number  6 and mass  12.00000

 Molecular mass:   126.06808 amu.
 Principal axes and moments of inertia in atomic units:
                           1         2         3
     Eigenvalues --   731.92875 988.321841454.48444
           X            0.99208   0.12457   0.01609
           Y           -0.12441   0.99217  -0.01110
           Z           -0.01735   0.00901   0.99981
 This molecule is an asymmetric top.
 Rotational symmetry number  1.
 Warning -- assumption of classical behavior for rotation
           may cause significant error
 Rotational temperatures (Kelvin)      0.11834     0.08764     0.05955
 Rotational constants (GHZ):           2.46573     1.82607     1.24081
 Zero-point vibrational energy     417494.8 (Joules/Mol)
                                   99.78364 (Kcal/Mol)
 Warning -- explicit consideration of  10 degrees of freedom as
           vibrations may cause significant error
 Vibrational temperatures:    128.65   271.53   296.95   357.09   410.56
          (Kelvin)            504.23   599.01   635.18   734.98   839.79
                             1008.41  1046.68  1139.63  1160.25  1229.90
                             1261.97  1291.99  1376.21  1427.02  1431.14
                             1474.96  1516.39  1534.22  1568.44  1596.72
                             1616.69  1644.03  1669.00  1679.77  1717.28
                             1795.48  1874.36  1910.07  1980.65  2000.83
                             2025.68  2070.53  2126.93  2134.02  2143.57
                             2209.37  4280.58  4390.29  4425.39  4489.99
                             4507.99  4523.68  4547.99  4586.43  4599.01
                             4634.50

 Zero-point correction=                           0.159015 (Hartree/Particle)
 Thermal correction to Energy=                    0.166965
 Thermal correction to Enthalpy=                  0.167909
 Thermal correction to Gibbs Free Energy=         0.126737
 Sum of electronic and zero-point Energies=           -422.994063
 Sum of electronic and thermal Energies=              -422.986113
 Sum of electronic and thermal Enthalpies=            -422.985169
 Sum of electronic and thermal Free Energies=         -423.026341

                     E (Thermal)             CV                S
                      KCal/Mol        Cal/Mol-Kelvin    Cal/Mol-Kelvin
 Total                  104.772             31.357             86.655
 Electronic               0.000              0.000              0.000
 Translational            0.889              2.981             40.409
 Rotational               0.889              2.981             28.444
 Vibrational            102.995             25.395             17.802
 Vibration     1          0.602              1.957              3.673
 Vibration     2          0.633              1.855              2.240
 Vibration     3          0.641              1.831              2.075
 Vibration     4          0.662              1.766              1.743
 Vibration     5          0.683              1.701              1.501
 Vibration     6          0.727              1.574              1.164
 Vibration     7          0.780              1.435              0.905
 Vibration     8          0.801              1.380              0.822
 Vibration     9          0.866              1.226              0.632
 Vibration    10          0.941              1.067              0.479

 Optimization completed.
    -- Stationary point found.
 Normal termination of Gaussian 09 at Tue Jan 28 04:02:34 2020.
