 Gaussian 09, Revision D.01,
 Gaussian 09:  ES64L-G09RevD.01 24-Apr-2013

 -----------------------------
 # b3lyp 6-31G(2df,p) opt Freq
 -----------------------------

 -----
 titel
 -----
 Symbolic Z-matrix:
 Charge =  0 Multiplicity = 1

 SCF Done:  E(RB3LYP) =  -423.127319911     A.U. after   14 cycles
 Optimization completed.
    -- Stationary point found.
 Normal termination of Gaussian 09 at Tue Jan 28 10:01:09 2020.

 ----------------------------------------------------------------------
 #N Geom=AllCheck Guess=TCheck SCRF=Check GenChk RB3LYP/6-31G(2df,p) Fr
 eq
 ----------------------------------------------------------------------

 Structure from the checkpoint file:  "/scratch/puck/g09_a131bb22-7acc-47ba-a79b-0c86d3d71f84/Gau-21706.chk"
 -----
 titel
 -----
 Charge =  0 Multiplicity = 1

                         Standard orientation:
 ---------------------------------------------------------------------
 Center     Atomic      Atomic             Coordinates (Angstroms)
 Number     Number       Type             X           Y           Z
 ---------------------------------------------------------------------
      1          6           0        2.594561    1.014389   -0.030579
      2          6           0        2.062715   -0.423259   -0.105705
      3          6           0        0.575363   -0.486672    0.007294
      4          8           0       -0.048065   -0.032155    1.230210
      5          6           0       -1.262034   -0.689094    0.755314
      6          6           0       -0.446399   -1.537064   -0.272215
      7          6           0       -0.440631   -0.257650   -1.120775
      8          6           0       -1.698047    0.249790   -0.404542
      9          8           0       -1.845921    1.605496   -0.111853
     10          1           0        2.197124    1.623987   -0.848169
     11          1           0        2.301044    1.483806    0.912681
     12          1           0        3.686326    1.030071   -0.092330
     13          1           0        2.353785   -0.890341   -1.054120
     14          1           0        2.506512   -1.028320    0.694009
     15          1           0       -1.922325   -1.015834    1.555435
     16          1           0       -0.401754   -2.585425   -0.528570
     17          1           0       -0.152102   -0.138945   -2.157530
     18          1           0       -2.609468   -0.101637   -0.894273
     19          1           0       -1.120417    1.813258    0.493267
 ---------------------------------------------------------------------

 SCF Done:  E(RB3LYP) =  -423.127319911     A.U. after    1 cycles

 The electronic state is 1-A.
 Alpha  occ. eigenvalues --  -19.14417 -19.12943 -10.24680 -10.24220 -10.23487
 Alpha  occ. eigenvalues --  -10.19881 -10.19442 -10.19376 -10.17878  -1.06934
 Alpha  occ. eigenvalues --   -1.01146  -0.85883  -0.78635  -0.70768  -0.64728
 Alpha  occ. eigenvalues --   -0.63239  -0.56686  -0.54905  -0.51639  -0.49558
 Alpha  occ. eigenvalues --   -0.46645  -0.44242  -0.43474  -0.40512  -0.40164
 Alpha  occ. eigenvalues --   -0.38983  -0.36790  -0.35653  -0.34938  -0.34626
 Alpha  occ. eigenvalues --   -0.29486  -0.27064  -0.26603  -0.23486
 Alpha virt. eigenvalues --    0.07356   0.08829   0.10638   0.11080   0.13304
 Alpha virt. eigenvalues --    0.14045   0.14757   0.15387   0.15664   0.15894
 Alpha virt. eigenvalues --    0.16380   0.18015   0.18747   0.20700   0.20798

 Mulliken charges:
               1
     1  C   -0.380509
     2  C   -0.309365
     3  C    0.495969
     4  O   -0.347275
     5  C    0.000539
     6  C   -0.223834
     7  C   -0.226044
     8  C    0.183331
     9  O   -0.445542
    10  H    0.122274
    11  H    0.135049
    12  H    0.114283
    13  H    0.108193
    14  H    0.113330
    15  H    0.087355
    16  H    0.102914
    17  H    0.091742
    18  H    0.093391
    19  H    0.284199
 Sum of Mulliken charges =   0.00000

 Dipole moment (field-independent basis, Debye):
    X=              1.1500    Y=             -1.7711    Z=             -0.7687  Tot=              2.2472
 Quadrupole moment (field-independent basis, Debye-Ang):
   XX=            -52.7984   YY=            -53.4267   ZZ=            -53.4487
   XY=              4.0972   XZ=             -1.8079   YZ=              1.3378

  Exact polarizability:  83.785   1.634  71.891  -0.522   0.203  66.637
 Approx polarizability: 111.264   0.736 108.647   1.196   0.476 106.872

                      1                      2                      3
                      A                      A                      A
 Frequencies --     83.4038               113.6401               200.8214
 Red. masses --      2.4012                 3.8914                 1.1934
 Frc consts  --      0.0098                 0.0296                 0.0284
 IR Inten    --      0.1601                 0.6429                 0.2111

                      4                      5                      6
                      A                      A                      A
 Frequencies --    230.9030               295.9867               342.6936
 Red. masses --      4.2453                 2.6617                 2.5047
 Frc consts  --      0.1334                 0.1374                 0.1733
 IR Inten    --      5.2126                 2.0338                 1.8022

                      7                      8                      9
                      A                      A                      A
 Frequencies --    411.6876               513.5677               599.0317
 Red. masses --      3.1860                 1.1571                 4.0503
 Frc consts  --      0.3181                 0.1798                 0.8563
 IR Inten    --      0.8826                63.0093                 4.8176

                     10                     11                     12
                      A                      A                      A
 Frequencies --    610.5236               648.5247               745.0782
 Red. masses --      3.5729                 3.9006                 2.0271
 Frc consts  --      0.7847                 0.9666                 0.6630
 IR Inten    --      2.5481                 5.7198                 4.5629

                     13                     14                     15
                      A                      A                      A
 Frequencies --    788.1608               797.7855               811.9482
 Red. masses --      3.9627                 1.9682                 1.7878
 Frc consts  --      1.4504                 0.7380                 0.6944
 IR Inten    --      7.5616                13.9622                 4.0677

                     16                     17                     18
                      A                      A                      A
 Frequencies --    831.0139               900.5913               922.4737
 Red. masses --      1.4148                 2.0005                 1.7330
 Frc consts  --      0.5757                 0.9560                 0.8689
 IR Inten    --     14.8178                 5.1189                 7.9794

                     19                     20                     21
                      A                      A                      A
 Frequencies --    935.9812               945.7499               977.7299
 Red. masses --      3.3047                 2.4837                 2.4962
 Frc consts  --      1.7057                 1.3089                 1.4059
 IR Inten    --     33.6782                41.4008                 5.8006

                     22                     23                     24
                      A                      A                      A
 Frequencies --    995.7490              1048.9008              1060.7930
 Red. masses --      2.2807                 2.7720                 2.5713
 Frc consts  --      1.3324                 1.7969                 1.7047
 IR Inten    --     11.3999                13.5636                39.0644

                     25                     26                     27
                      A                      A                      A
 Frequencies --   1090.0972              1103.2074              1133.5531
 Red. masses --      1.9069                 1.8873                 2.5037
 Frc consts  --      1.3351                 1.3533                 1.8955
 IR Inten    --      8.4890                13.0745                86.3277

                     28                     29                     30
                      A                      A                      A
 Frequencies --   1146.4993              1182.4644              1230.8519
 Red. masses --      1.5653                 1.7542                 1.9250
 Frc consts  --      1.2123                 1.4451                 1.7183
 IR Inten    --     20.3817                13.9827                 8.2836

                     31                     32                     33
                      A                      A                      A
 Frequencies --   1250.2543              1273.8628              1294.0570
 Red. masses --      1.9138                 1.3086                 1.3078
 Frc consts  --      1.7625                 1.2512                 1.2903
 IR Inten    --      5.3767                 5.4878                 6.5146

                     34                     35                     36
                      A                      A                      A
 Frequencies --   1330.1869              1352.9401              1407.1878
 Red. masses --      1.6579                 1.4721                 1.2416
 Frc consts  --      1.7283                 1.5876                 1.4486
 IR Inten    --     10.8949                10.7134                 1.4692

                     37                     38                     39
                      A                      A                      A
 Frequencies --   1440.9402              1455.0341              1475.3434
 Red. masses --      1.2878                 3.2538                 1.1279
 Frc consts  --      1.5754                 4.0587                 1.4464
 IR Inten    --    102.8461                10.0990                 2.4351

                     40                     41                     42
                      A                      A                      A
 Frequencies --   1497.5950              1510.9331              3031.5045
 Red. masses --      1.0466                 1.1258                 1.0597
 Frc consts  --      1.3830                 1.5143                 5.7380
 IR Inten    --      5.6510                 6.7697                20.7310

                     43                     44                     45
                      A                      A                      A
 Frequencies --   3041.9867              3067.6540              3094.5705
 Red. masses --      1.0348                 1.1016                 1.0868
 Frc consts  --      5.6417                 6.1077                 6.1318
 IR Inten    --     22.4994                10.2033                29.0324

                     46                     47                     48
                      A                      A                      A
 Frequencies --   3113.2610              3119.1935              3150.0862
 Red. masses --      1.1022                 1.1021                 1.0929
 Frc consts  --      6.2939                 6.3178                 6.3898
 IR Inten    --     32.2195                22.9194                33.1673

                     49                     50                     51
                      A                      A                      A
 Frequencies --   3199.3502              3222.8265              3751.9969
 Red. masses --      1.0921                 1.0998                 1.0645
 Frc consts  --      6.5862                 6.7302                 8.8295
 IR Inten    --      9.3258                 5.4777                25.5904

 - Thermochemistry -
 -------------------
 Temperature   298.150 Kelvin.  Pressure   1.00000 Atm.
 Atom     1 has atomic number  6 and mass  12.00000

 Molecular mass:   126.06808 amu.
 Principal axes and moments of inertia in atomic units:
                           1         2         3
     Eigenvalues --   620.461431276.562701462.04623
           X            0.99919   0.03989  -0.00615
           Y           -0.03975   0.99898   0.02145
           Z            0.00700  -0.02119   0.99975
 This molecule is an asymmetric top.
 Rotational symmetry number  1.
 Warning -- assumption of classical behavior for rotation
           may cause significant error
 Rotational temperatures (Kelvin)      0.13960     0.06785     0.05924
 Rotational constants (GHZ):           2.90871     1.41375     1.23439
 Zero-point vibrational energy     417378.1 (Joules/Mol)
                                   99.75577 (Kcal/Mol)
 Warning -- explicit consideration of  10 degrees of freedom as
           vibrations may cause significant error
 Vibrational temperatures:    120.00   163.50   288.94   332.22   425.86
          (Kelvin)            493.06   592.33   738.91   861.87   878.41
                              933.08  1072.00  1133.99  1147.83  1168.21
                             1195.64  1295.75  1327.23  1346.67  1360.72
                             1406.73  1432.66  1509.13  1526.24  1568.40
                             1587.27  1630.93  1649.55  1701.30  1770.92
                             1798.83  1832.80  1861.86  1913.84  1946.58
                             2024.63  2073.19  2093.47  2122.69  2154.70
                             2173.89  4361.65  4376.73  4413.66  4452.39
                             4479.28  4487.82  4532.27  4603.15  4636.92
                             5398.28

 Zero-point correction=                           0.158971 (Hartree/Particle)
 Thermal correction to Energy=                    0.167061
 Thermal correction to Enthalpy=                  0.168005
 Thermal correction to Gibbs Free Energy=         0.126264
 Sum of electronic and zero-point Energies=           -422.968349
 Sum of electronic and thermal Energies=              -422.960259
 Sum of electronic and thermal Enthalpies=            -422.959314
 Sum of electronic and thermal Free Energies=         -423.001056

                     E (Thermal)             CV                S
                      KCal/Mol        Cal/Mol-Kelvin    Cal/Mol-Kelvin
 Total                  104.833             31.715             87.852
 Electronic               0.000              0.000              0.000
 Translational            0.889              2.981             40.409
 Rotational               0.889              2.981             28.539
 Vibrational            103.055             25.754             18.904
 Vibration     1          0.600              1.961              3.809
 Vibration     2          0.607              1.938              3.206
 Vibration     3          0.638              1.839              2.126
 Vibration     4          0.653              1.794              1.872
 Vibration     5          0.690              1.681              1.439
 Vibration     6          0.722              1.590              1.200
 Vibration     7          0.776              1.445              0.921
 Vibration     8          0.869              1.220              0.625
 Vibration     9          0.957              1.034              0.451
 Vibration    10          0.970              1.010              0.432

 Optimization completed.
    -- Stationary point found.
 Normal termination of Gaussian 09 at Tue Jan 28 10:45:19 2020.
