 Gaussian 09, Revision D.01,
 Gaussian 09:  ES64L-G09RevD.01 24-Apr-2013

 -----------------------------
 # b3lyp 6-31G(2df,p) opt Freq
 -----------------------------

 -----
 titel
 -----
 Symbolic Z-matrix:
 Charge =  0 Multiplicity = 1

 SCF Done:  E(RB3LYP) =  -423.137370662     A.U. after   13 cycles
 Optimization completed.
    -- Stationary point found.
 Normal termination of Gaussian 09 at Mon Jan 27 17:43:37 2020.

 ----------------------------------------------------------------------
 #N Geom=AllCheck Guess=TCheck SCRF=Check GenChk RB3LYP/6-31G(2df,p) Fr
 eq
 ----------------------------------------------------------------------

 Structure from the checkpoint file:  "/scratch/puck/g09_746abcd3-b31f-4479-9b92-36250ebec8a7/Gau-15277.chk"
 -----
 titel
 -----
 Charge =  0 Multiplicity = 1

                         Standard orientation:
 ---------------------------------------------------------------------
 Center     Atomic      Atomic             Coordinates (Angstroms)
 Number     Number       Type             X           Y           Z
 ---------------------------------------------------------------------
      1          6           0        1.788590    0.840667   -1.178599
      2          6           0        0.967720    0.123965   -0.144014
      3          6           0        1.569888   -0.733697    0.938146
      4          6           0        0.587767   -1.366435   -0.009784
      5          6           0       -0.815959   -1.007742    0.430439
      6          8           0       -1.738572   -0.885900   -0.671374
      7          6           0       -1.488003    0.523223   -0.821635
      8          6           0       -0.429491    0.525229    0.302493
      9          8           0       -0.471509    1.526636    1.268289
     10          1           0        2.143924    1.805162   -0.798321
     11          1           0        2.667787    0.251181   -1.457464
     12          1           0        1.215862    1.032942   -2.092742
     13          1           0        2.607822   -1.007461    0.778240
     14          1           0        1.309675   -0.572265    1.980817
     15          1           0        0.844679   -2.183240   -0.673255
     16          1           0       -1.262616   -1.502630    1.297427
     17          1           0       -1.157772    0.794904   -1.831471
     18          1           0       -2.380266    1.118195   -0.572063
     19          1           0       -1.391523    1.706074    1.491244
 ---------------------------------------------------------------------

 SCF Done:  E(RB3LYP) =  -423.137370662     A.U. after    1 cycles

 The electronic state is 1-A.
 Alpha  occ. eigenvalues --  -19.14998 -19.13239 -10.24234 -10.22956 -10.22857
 Alpha  occ. eigenvalues --  -10.19906 -10.19074 -10.18689 -10.18040  -1.05073
 Alpha  occ. eigenvalues --   -1.02327  -0.88870  -0.72943  -0.71736  -0.68274
 Alpha  occ. eigenvalues --   -0.61077  -0.58146  -0.53861  -0.51026  -0.49448
 Alpha  occ. eigenvalues --   -0.48283  -0.42865  -0.42557  -0.41244  -0.40021
 Alpha  occ. eigenvalues --   -0.39517  -0.37880  -0.37045  -0.36063  -0.30944
 Alpha  occ. eigenvalues --   -0.28272  -0.27101  -0.25585  -0.24210
 Alpha virt. eigenvalues --    0.06175   0.08577   0.10680   0.11532   0.12480
 Alpha virt. eigenvalues --    0.13472   0.13749   0.14609   0.15710   0.16551
 Alpha virt. eigenvalues --    0.18778   0.20082   0.20342   0.20762   0.21012

 Mulliken charges:
               1
     1  C   -0.514152
     2  C    0.342482
     3  C   -0.347046
     4  C   -0.116508
     5  C    0.032112
     6  O   -0.291688
     7  C   -0.147095
     8  C    0.274313
     9  O   -0.479170
    10  H    0.130879
    11  H    0.120214
    12  H    0.118985
    13  H    0.112229
    14  H    0.117237
    15  H    0.094823
    16  H    0.077195
    17  H    0.106216
    18  H    0.086595
    19  H    0.282377
 Sum of Mulliken charges =   0.00000

 Dipole moment (field-independent basis, Debye):
    X=              0.2375    Y=              0.6892    Z=              0.2219  Tot=              0.7620
 Quadrupole moment (field-independent basis, Debye-Ang):
   XX=            -51.4921   YY=            -54.2343   ZZ=            -52.8778
   XY=             -5.5084   XZ=             -4.0738   YZ=             -2.0173

  Exact polarizability:  80.840  -3.709  73.084  -0.032  -3.812  70.299
 Approx polarizability: 111.241  -1.916 112.940   2.511  -2.041 104.416

                      1                      2                      3
                      A                      A                      A
 Frequencies --    134.8597               190.6036               219.7103
 Red. masses --      3.4724                 1.1291                 2.5607
 Frc consts  --      0.0372                 0.0242                 0.0728
 IR Inten    --      1.6873                 0.6497                 4.5184

                      4                      5                      6
                      A                      A                      A
 Frequencies --    233.8559               272.5226               333.9604
 Red. masses --      2.6676                 2.2779                 1.3479
 Frc consts  --      0.0860                 0.0997                 0.0886
 IR Inten    --      1.0182                 6.0619                74.4817

                      7                      8                      9
                      A                      A                      A
 Frequencies --    363.9831               409.8105               468.8054
 Red. masses --      2.4067                 2.7466                 3.1554
 Frc consts  --      0.1879                 0.2718                 0.4086
 IR Inten    --      8.4969                 9.2335                 5.7815

                     10                     11                     12
                      A                      A                      A
 Frequencies --    509.4162               593.6054               656.5856
 Red. masses --      3.4982                 3.7687                 4.1894
 Frc consts  --      0.5349                 0.7824                 1.0641
 IR Inten    --      2.2672                 2.4706                 2.6150

                     13                     14                     15
                      A                      A                      A
 Frequencies --    752.6659               808.0556               843.5429
 Red. masses --      3.3804                 3.1287                 1.8476
 Frc consts  --      1.1283                 1.2036                 0.7746
 IR Inten    --      2.4386                13.9614                 4.4353

                     16                     17                     18
                      A                      A                      A
 Frequencies --    891.1828               921.2943               969.1957
 Red. masses --      1.9242                 2.1928                 1.3460
 Frc consts  --      0.9004                 1.0966                 0.7449
 IR Inten    --      6.4770                 8.0348                 5.3407

                     19                     20                     21
                      A                      A                      A
 Frequencies --    994.9339              1011.3749              1017.2140
 Red. masses --      1.7476                 3.5034                 2.6384
 Frc consts  --      1.0192                 2.1114                 1.6085
 IR Inten    --     29.1490                32.4167                16.0573

                     22                     23                     24
                      A                      A                      A
 Frequencies --   1032.5532              1055.9952              1072.7088
 Red. masses --      1.6283                 2.1741                 1.8473
 Frc consts  --      1.0228                 1.4284                 1.2524
 IR Inten    --     19.3493                16.5252                23.5937

                     25                     26                     27
                      A                      A                      A
 Frequencies --   1086.4096              1100.2314              1122.7171
 Red. masses --      1.5094                 2.1091                 2.2352
 Frc consts  --      1.0497                 1.5042                 1.6600
 IR Inten    --     11.0190                 2.9048                11.3943

                     28                     29                     30
                      A                      A                      A
 Frequencies --   1151.2316              1171.0802              1238.6645
 Red. masses --      1.2880                 1.7748                 2.6714
 Frc consts  --      1.0057                 1.4340                 2.4149
 IR Inten    --      2.1683                15.1786                66.3897

                     31                     32                     33
                      A                      A                      A
 Frequencies --   1252.9857              1282.1059              1301.5615
 Red. masses --      1.7827                 1.9588                 1.5081
 Frc consts  --      1.6490                 1.8971                 1.5053
 IR Inten    --      2.3665                80.2569                36.7024

                     34                     35                     36
                      A                      A                      A
 Frequencies --   1357.6559              1365.8307              1409.4910
 Red. masses --      2.1216                 1.9335                 1.5938
 Frc consts  --      2.3040                 2.1251                 1.8656
 IR Inten    --     21.3980                10.1301                 3.4368

                     37                     38                     39
                      A                      A                      A
 Frequencies --   1425.4775              1486.0899              1498.7481
 Red. masses --      1.8137                 1.0480                 1.3123
 Frc consts  --      2.1714                 1.3637                 1.7368
 IR Inten    --      2.8839                 3.3493                 3.1694

                     40                     41                     42
                      A                      A                      A
 Frequencies --   1500.3822              1518.3008              2981.0187
 Red. masses --      1.0669                 1.1015                 1.0648
 Frc consts  --      1.4151                 1.4960                 5.5751
 IR Inten    --      6.2825                 2.0727                79.8897

                     43                     44                     45
                      A                      A                      A
 Frequencies --   3026.7106              3049.0467              3070.8444
 Red. masses --      1.0360                 1.0987                 1.0883
 Frc consts  --      5.5918                 6.0180                 6.0465
 IR Inten    --     28.3585                50.6918                50.7317

                     46                     47                     48
                      A                      A                      A
 Frequencies --   3086.5200              3099.1776              3117.6784
 Red. masses --      1.1007                 1.1001                 1.0558
 Frc consts  --      6.1782                 6.2253                 6.0465
 IR Inten    --     22.9611                18.4384                16.7477

                     49                     50                     51
                      A                      A                      A
 Frequencies --   3189.5102              3204.6720              3801.0222
 Red. masses --      1.0955                 1.1119                 1.0658
 Frc consts  --      6.5661                 6.7282                 9.0721
 IR Inten    --      9.1449                11.1955                17.4072

 - Thermochemistry -
 -------------------
 Temperature   298.150 Kelvin.  Pressure   1.00000 Atm.
 Atom     1 has atomic number  6 and mass  12.00000

 Molecular mass:   126.06808 amu.
 Principal axes and moments of inertia in atomic units:
                           1         2         3
     Eigenvalues --   768.369971056.752941178.62449
           X            0.99819  -0.05075  -0.03234
           Y            0.04452   0.98433  -0.17061
           Z            0.04049   0.16886   0.98481
 This molecule is an asymmetric top.
 Rotational symmetry number  1.
 Warning -- assumption of classical behavior for rotation
           may cause significant error
 Rotational temperatures (Kelvin)      0.11272     0.08196     0.07349
 Rotational constants (GHZ):           2.34879     1.70782     1.53123
 Zero-point vibrational energy     416621.0 (Joules/Mol)
                                   99.57482 (Kcal/Mol)
 Warning -- explicit consideration of  11 degrees of freedom as
           vibrations may cause significant error
 Vibrational temperatures:    194.03   274.24   316.11   336.47   392.10
          (Kelvin)            480.49   523.69   589.63   674.51   732.94
                              854.06   944.68  1082.92  1162.61  1213.67
                             1282.21  1325.54  1394.45  1431.49  1455.14
                             1463.54  1485.61  1519.34  1543.39  1563.10
                             1582.99  1615.34  1656.36  1684.92  1782.16
                             1802.76  1844.66  1872.65  1953.36  1965.12
                             2027.94  2050.94  2138.15  2156.36  2158.71
                             2184.49  4289.02  4354.76  4386.89  4418.25
                             4440.81  4459.02  4485.64  4588.99  4610.80
                             5468.82

 Zero-point correction=                           0.158683 (Hartree/Particle)
 Thermal correction to Energy=                    0.166838
 Thermal correction to Enthalpy=                  0.167782
 Thermal correction to Gibbs Free Energy=         0.126564
 Sum of electronic and zero-point Energies=           -422.978688
 Sum of electronic and thermal Energies=              -422.970533
 Sum of electronic and thermal Enthalpies=            -422.969589
 Sum of electronic and thermal Free Energies=         -423.010807

                     E (Thermal)             CV                S
                      KCal/Mol        Cal/Mol-Kelvin    Cal/Mol-Kelvin
 Total                  104.692             32.284             86.750
 Electronic               0.000              0.000              0.000
 Translational            0.889              2.981             40.409
 Rotational               0.889              2.981             28.350
 Vibrational            102.915             26.322             17.992
 Vibration     1          0.613              1.919              2.876
 Vibration     2          0.634              1.853              2.222
 Vibration     3          0.647              1.811              1.961
 Vibration     4          0.654              1.789              1.849
 Vibration     5          0.676              1.724              1.580
 Vibration     6          0.715              1.608              1.241
 Vibration     7          0.738              1.546              1.105
 Vibration     8          0.774              1.449              0.927
 Vibration     9          0.826              1.319              0.741
 Vibration    10          0.865              1.229              0.635
 Vibration    11          0.951              1.045              0.461

 Normal termination of Gaussian 09 at Mon Jan 27 19:43:59 2020.
