 Gaussian 09, Revision D.01,
 Gaussian 09:  ES64L-G09RevD.01 24-Apr-2013

 -----------------------------
 # b3lyp 6-31G(2df,p) opt Freq
 -----------------------------

 -----
 titel
 -----
 Symbolic Z-matrix:
 Charge =  0 Multiplicity = 1

 SCF Done:  E(RB3LYP) =  -423.174532266     A.U. after   14 cycles
 Optimization completed.
    -- Stationary point found.
 Normal termination of Gaussian 09 at Mon Jan 27 18:20:12 2020.

 ----------------------------------------------------------------------
 #N Geom=AllCheck Guess=TCheck SCRF=Check GenChk RB3LYP/6-31G(2df,p) Fr
 eq
 ----------------------------------------------------------------------

 Structure from the checkpoint file:  "/scratch/puck/g09_fe314a06-ebee-46d2-8e49-3bbb6d0f15cf/Gau-149793.chk"
 -----
 titel
 -----
 Charge =  0 Multiplicity = 1

                         Standard orientation:
 ---------------------------------------------------------------------
 Center     Atomic      Atomic             Coordinates (Angstroms)
 Number     Number       Type             X           Y           Z
 ---------------------------------------------------------------------
      1          6           0       -1.999205   -1.086578   -0.179616
      2          6           0       -0.846283   -0.138463   -0.041248
      3          8           0       -1.181725    1.265613    0.120018
      4          6           0        0.202686    1.403485    0.561333
      5          6           0        0.940379    1.213459   -0.779035
      6          6           0        0.336864   -0.184482   -1.076007
      7          8           0        1.201350   -1.203093   -0.578197
      8          6           0        1.293974   -0.985448    0.843448
      9          6           0        0.138876   -0.043061    1.152504
     10          1           0       -2.599523   -0.829604   -1.058916
     11          1           0       -1.627423   -2.107926   -0.306122
     12          1           0       -2.649255   -1.053674    0.699277
     13          1           0        0.391068    2.290486    1.165545
     14          1           0        0.634714    1.986774   -1.486578
     15          1           0        2.030954    1.175880   -0.722428
     16          1           0        0.096791   -0.415957   -2.112962
     17          1           0        1.193327   -1.951506    1.350289
     18          1           0        2.275780   -0.566314    1.105095
     19          1           0       -0.307179   -0.101785    2.143964
 ---------------------------------------------------------------------

 SCF Done:  E(RB3LYP) =  -423.174532265     A.U. after    1 cycles

 The electronic state is 1-A.
 Alpha  occ. eigenvalues --  -19.13686 -19.13213 -10.23904 -10.23779 -10.22934
 Alpha  occ. eigenvalues --  -10.22930 -10.19385 -10.18099 -10.18026  -1.05969
 Alpha  occ. eigenvalues --   -1.02296  -0.78706  -0.75728  -0.75033  -0.66495
 Alpha  occ. eigenvalues --   -0.63421  -0.56096  -0.54780  -0.50355  -0.48479
 Alpha  occ. eigenvalues --   -0.47496  -0.43570  -0.42202  -0.41391  -0.40731
 Alpha  occ. eigenvalues --   -0.39188  -0.38378  -0.35920  -0.34558  -0.32631
 Alpha  occ. eigenvalues --   -0.31374  -0.30466  -0.26076  -0.22907
 Alpha virt. eigenvalues --    0.09171   0.09632   0.10647   0.11148   0.12639
 Alpha virt. eigenvalues --    0.14256   0.15035   0.15606   0.16029   0.16613
 Alpha virt. eigenvalues --    0.17363   0.18160   0.19294   0.19948   0.20702

 Mulliken charges:
               1
     1  C   -0.517524
     2  C    0.444151
     3  O   -0.338715
     4  C    0.054757
     5  C   -0.238650
     6  C    0.040605
     7  O   -0.274718
     8  C   -0.118246
     9  C   -0.111675
    10  H    0.131181
    11  H    0.135527
    12  H    0.125869
    13  H    0.079187
    14  H    0.109894
    15  H    0.106228
    16  H    0.079356
    17  H    0.109373
    18  H    0.099207
    19  H    0.084192
 Sum of Mulliken charges =   0.00000

 Dipole moment (field-independent basis, Debye):
    X=              0.3993    Y=             -0.1025    Z=              0.9639  Tot=              1.0484
 Quadrupole moment (field-independent basis, Debye-Ang):
   XX=            -54.9306   YY=            -54.6647   ZZ=            -50.4087
   XY=              5.1616   XZ=              2.2396   YZ=             -1.4564

  Exact polarizability:  74.878   3.524  73.661   2.135  -1.830  70.683
 Approx polarizability: 108.156  -0.545 108.267   2.936  -0.150 106.165

                      1                      2                      3
                      A                      A                      A
 Frequencies --    201.7298               221.8779               246.8058
 Red. masses --      1.0888                 2.3552                 2.6881
 Frc consts  --      0.0261                 0.0683                 0.0965
 IR Inten    --      0.4491                 0.8079                 4.6159

                      4                      5                      6
                      A                      A                      A
 Frequencies --    274.8005               413.5496               455.0326
 Red. masses --      2.4498                 2.7627                 2.4807
 Frc consts  --      0.1090                 0.2784                 0.3026
 IR Inten    --      1.1026                 3.4586                 4.1657

                      7                      8                      9
                      A                      A                      A
 Frequencies --    520.4781               599.4801               621.8606
 Red. masses --      4.1193                 6.3503                 3.4842
 Frc consts  --      0.6575                 1.3446                 0.7938
 IR Inten    --      6.6630                 1.2934                 0.5074

                     10                     11                     12
                      A                      A                      A
 Frequencies --    720.7706               731.0851               822.8138
 Red. masses --      3.8290                 3.6218                 3.0748
 Frc consts  --      1.1720                 1.1405                 1.2265
 IR Inten    --      4.8960                 1.8079                16.3120

                     13                     14                     15
                      A                      A                      A
 Frequencies --    834.8844               881.8344               895.7238
 Red. masses --      2.5691                 2.5212                 2.9969
 Frc consts  --      1.0551                 1.1551                 1.4167
 IR Inten    --      2.3647                28.1136                11.9794

                     16                     17                     18
                      A                      A                      A
 Frequencies --    901.7285               913.5110               961.3880
 Red. masses --      3.9802                 2.5764                 1.7080
 Frc consts  --      1.9068                 1.2667                 0.9301
 IR Inten    --      3.6359                11.3484                 7.7101

                     19                     20                     21
                      A                      A                      A
 Frequencies --    974.0732              1001.7630              1025.0456
 Red. masses --      2.7646                 1.8857                 1.4216
 Frc consts  --      1.5455                 1.1149                 0.8801
 IR Inten    --     11.4899                15.9504                 4.0175

                     22                     23                     24
                      A                      A                      A
 Frequencies --   1060.6867              1071.7657              1127.3062
 Red. masses --      2.0188                 2.5210                 1.8357
 Frc consts  --      1.3382                 1.7062                 1.3745
 IR Inten    --     36.4038                27.7481                 3.3413

                     25                     26                     27
                      A                      A                      A
 Frequencies --   1139.2484              1142.7141              1167.6989
 Red. masses --      1.8470                 2.1518                 1.7110
 Frc consts  --      1.4124                 1.6555                 1.3746
 IR Inten    --     19.0356                15.4119                16.1591

                     28                     29                     30
                      A                      A                      A
 Frequencies --   1195.1861              1225.6942              1255.3601
 Red. masses --      1.6244                 1.2439                 1.8198
 Frc consts  --      1.3672                 1.1010                 1.6897
 IR Inten    --      2.8495                 1.1515                 7.5460

                     31                     32                     33
                      A                      A                      A
 Frequencies --   1279.7324              1293.2996              1310.3975
 Red. masses --      1.6300                 1.3626                 1.6332
 Frc consts  --      1.5728                 1.3428                 1.6523
 IR Inten    --     11.0963                 2.1343                11.6692

                     34                     35                     36
                      A                      A                      A
 Frequencies --   1335.7194              1357.8314              1392.0494
 Red. masses --      1.4733                 1.9796                 1.4795
 Frc consts  --      1.5487                 2.1504                 1.6892
 IR Inten    --      1.8817                 7.0885                 2.5400

                     37                     38                     39
                      A                      A                      A
 Frequencies --   1417.3756              1477.8101              1482.1257
 Red. masses --      1.7840                 1.1103                 1.0504
 Frc consts  --      2.1116                 1.4287                 1.3595
 IR Inten    --     15.6743                 4.8656                 2.9881

                     40                     41                     42
                      A                      A                      A
 Frequencies --   1494.0965              1524.4758              3003.0430
 Red. masses --      1.0510                 1.0898                 1.0661
 Frc consts  --      1.3823                 1.4922                 5.6645
 IR Inten    --      3.7006                 1.0034                64.0582

                     43                     44                     45
                      A                      A                      A
 Frequencies --   3038.2133              3057.6782              3071.8872
 Red. masses --      1.0353                 1.0985                 1.0587
 Frc consts  --      5.6307                 6.0509                 5.8863
 IR Inten    --     16.4091                34.1030                20.2947

                     46                     47                     48
                      A                      A                      A
 Frequencies --   3106.9182              3118.3809              3123.6567
 Red. masses --      1.1005                 1.1016                 1.0908
 Frc consts  --      6.2589                 6.3116                 6.2707
 IR Inten    --     12.9363                11.0620                43.8528

                     49                     50                     51
                      A                      A                      A
 Frequencies --   3125.5746              3131.5148              3138.6972
 Red. masses --      1.1011                 1.0952                 1.0913
 Frc consts  --      6.3379                 6.3276                 6.3341
 IR Inten    --      8.5668                40.9273                16.1725

 - Thermochemistry -
 -------------------
 Temperature   298.150 Kelvin.  Pressure   1.00000 Atm.
 Atom     1 has atomic number  6 and mass  12.00000

 Molecular mass:   126.06808 amu.
 Principal axes and moments of inertia in atomic units:
                           1         2         3
     Eigenvalues --   743.23717 854.277181074.25780
           X            0.94844   0.31591   0.02559
           Y           -0.31473   0.94827  -0.04165
           Z           -0.03742   0.03145   0.99880
 This molecule is an asymmetric top.
 Rotational symmetry number  1.
 Warning -- assumption of classical behavior for rotation
           may cause significant error
 Rotational temperatures (Kelvin)      0.11654     0.10139     0.08063
 Rotational constants (GHZ):           2.42822     2.11259     1.67999
 Zero-point vibrational energy     423994.7 (Joules/Mol)
                                  101.33716 (Kcal/Mol)
 Warning -- explicit consideration of   8 degrees of freedom as
           vibrations may cause significant error
 Vibrational temperatures:    290.24   319.23   355.10   395.38   595.00
          (Kelvin)            654.69   748.85   862.52   894.72  1037.03
                             1051.87  1183.84  1201.21  1268.76  1288.75
                             1297.38  1314.34  1383.22  1401.47  1441.31
                             1474.81  1526.09  1542.03  1621.94  1639.12
                             1644.11  1680.06  1719.60  1763.50  1806.18
                             1841.25  1860.77  1885.37  1921.80  1953.61
                             2002.85  2039.28  2126.24  2132.45  2149.67
                             2193.38  4320.70  4371.31  4399.31  4419.75
                             4470.16  4486.65  4494.24  4497.00  4505.55
                             4515.88

 Zero-point correction=                           0.161491 (Hartree/Particle)
 Thermal correction to Energy=                    0.168418
 Thermal correction to Enthalpy=                  0.169362
 Thermal correction to Gibbs Free Energy=         0.130628
 Sum of electronic and zero-point Energies=           -423.013041
 Sum of electronic and thermal Energies=              -423.006114
 Sum of electronic and thermal Enthalpies=            -423.005170
 Sum of electronic and thermal Free Energies=         -423.043905

                     E (Thermal)             CV                S
                      KCal/Mol        Cal/Mol-Kelvin    Cal/Mol-Kelvin
 Total                  105.684             28.831             81.524
 Electronic               0.000              0.000              0.000
 Translational            0.889              2.981             40.409
 Rotational               0.889              2.981             28.013
 Vibrational            103.906             22.870             13.102
 Vibration     1          0.639              1.837              2.117
 Vibration     2          0.648              1.808              1.944
 Vibration     3          0.661              1.768              1.753
 Vibration     4          0.677              1.720              1.566
 Vibration     5          0.777              1.441              0.914
 Vibration     6          0.813              1.350              0.781
 Vibration     7          0.875              1.205              0.609
 Vibration     8          0.958              1.033              0.451

 Optimization completed.
    -- Stationary point found.
 Normal termination of Gaussian 09 at Mon Jan 27 19:16:48 2020.
