 Gaussian 09, Revision D.01,
 Gaussian 09:  ES64L-G09RevD.01 24-Apr-2013

 -----------------------------
 # b3lyp 6-31G(2df,p) opt Freq
 -----------------------------

 -----
 titel
 -----
 Symbolic Z-matrix:
 Charge =  0 Multiplicity = 1

 SCF Done:  E(RB3LYP) =  -423.214608120     A.U. after   14 cycles
 Optimization completed.
    -- Stationary point found.
 Normal termination of Gaussian 09 at Mon Jan 27 16:56:18 2020.

 ----------------------------------------------------------------------
 #N Geom=AllCheck Guess=TCheck SCRF=Check GenChk RB3LYP/6-31G(2df,p) Fr
 eq
 ----------------------------------------------------------------------

 Structure from the checkpoint file:  "/scratch/puck/g09_18eb0ff2-c699-45d6-a9ae-940df964110e/Gau-37967.chk"
 -----
 titel
 -----
 Charge =  0 Multiplicity = 1

                         Standard orientation:
 ---------------------------------------------------------------------
 Center     Atomic      Atomic             Coordinates (Angstroms)
 Number     Number       Type             X           Y           Z
 ---------------------------------------------------------------------
      1          8           0        0.665717   -0.224624    1.389515
      2          6           0        0.521354    0.032005    0.010271
      3          6           0       -0.261982   -1.123456   -0.657275
      4          6           0       -1.650401   -1.257037   -0.019795
      5          6           0       -2.353098    0.070306    0.071520
      6          6           0       -1.717053    1.236005   -0.020513
      7          6           0       -0.228533    1.367457   -0.210990
      8          6           0        1.896706    0.118394   -0.623708
      9          8           0        2.911039   -0.043162    0.010821
     10          1           0        1.621196   -0.300516    1.541327
     11          1           0       -0.362874   -0.918561   -1.730443
     12          1           0        0.302550   -2.054925   -0.546397
     13          1           0       -2.254189   -1.966524   -0.597931
     14          1           0       -1.546911   -1.688428    0.984322
     15          1           0       -3.427695    0.053839    0.234170
     16          1           0       -2.273484    2.167452    0.048698
     17          1           0       -0.016579    1.760817   -1.216932
     18          1           0        0.181541    2.097362    0.496583
     19          1           0        1.920435    0.329724   -1.713148
 ---------------------------------------------------------------------

 SCF Done:  E(RB3LYP) =  -423.214608120     A.U. after    1 cycles

 The electronic state is 1-A.
 Alpha  occ. eigenvalues --  -19.16141 -19.13198 -10.28118 -10.24749 -10.19489
 Alpha  occ. eigenvalues --  -10.19236 -10.18685 -10.18249 -10.18068  -1.07238
 Alpha  occ. eigenvalues --   -1.01640  -0.83410  -0.75528  -0.75037  -0.64878
 Alpha  occ. eigenvalues --   -0.62471  -0.57828  -0.53071  -0.51842  -0.48643
 Alpha  occ. eigenvalues --   -0.46459  -0.45414  -0.43472  -0.41806  -0.40665
 Alpha  occ. eigenvalues --   -0.39290  -0.38429  -0.36994  -0.34972  -0.34011
 Alpha  occ. eigenvalues --   -0.32784  -0.27057  -0.26818  -0.24411
 Alpha virt. eigenvalues --   -0.03699   0.02459   0.08458   0.10718   0.11926
 Alpha virt. eigenvalues --    0.13730   0.13838   0.15056   0.16476   0.17162
 Alpha virt. eigenvalues --    0.17433   0.18958   0.20365   0.21984   0.22825

 Mulliken charges:
               1
     1  O   -0.474483
     2  C    0.268699
     3  C   -0.234754
     4  C   -0.257425
     5  C   -0.038111
     6  C   -0.053998
     7  C   -0.274455
     8  C    0.116378
     9  O   -0.272142
    10  H    0.290233
    11  H    0.098880
    12  H    0.104971
    13  H    0.101568
    14  H    0.132505
    15  H    0.086649
    16  H    0.086808
    17  H    0.101459
    18  H    0.122568
    19  H    0.094650
 Sum of Mulliken charges =   0.00000

 Dipole moment (field-independent basis, Debye):
    X=             -1.1939    Y=              0.1969    Z=             -1.8022  Tot=              2.1708
 Quadrupole moment (field-independent basis, Debye-Ang):
   XX=            -58.1567   YY=            -50.4548   ZZ=            -53.8697
   XY=              0.8487   XZ=             -0.8267   YZ=             -0.0584

  Exact polarizability:  90.943   3.592  77.545  -0.423  -1.750  63.110
 Approx polarizability: 126.929   8.954 118.767   3.698  -5.275 100.800

                      1                      2                      3
                      A                      A                      A
 Frequencies --     87.3959               106.5591               183.6929
 Red. masses --      5.4525                 3.3232                 2.3547
 Frc consts  --      0.0245                 0.0222                 0.0468
 IR Inten    --      0.2549                 0.6459                 1.9127

                      4                      5                      6
                      A                      A                      A
 Frequencies --    296.8559               311.1925               352.2147
 Red. masses --      1.9721                 5.5925                 2.8309
 Frc consts  --      0.1024                 0.3191                 0.2069
 IR Inten    --      0.1094                13.5533                 3.1480

                      7                      8                      9
                      A                      A                      A
 Frequencies --    385.9498               389.2047               413.2325
 Red. masses --      2.5239                 2.2949                 2.6560
 Frc consts  --      0.2215                 0.2048                 0.2672
 IR Inten    --     21.8881                13.5830                 3.9573

                     10                     11                     12
                      A                      A                      A
 Frequencies --    473.1448               538.5683               647.8975
 Red. masses --      1.4837                 2.8333                 5.0595
 Frc consts  --      0.1957                 0.4842                 1.2513
 IR Inten    --     29.1648                 1.4851                 6.3227

                     13                     14                     15
                      A                      A                      A
 Frequencies --    667.8766               763.7437               824.7237
 Red. masses --      1.2436                 1.7464                 4.5551
 Frc consts  --      0.3268                 0.6002                 1.8254
 IR Inten    --     21.7712                 3.4609                30.2016

                     16                     17                     18
                      A                      A                      A
 Frequencies --    878.7113               881.5135               919.7972
 Red. masses --      3.4669                 2.5158                 2.3005
 Frc consts  --      1.5772                 1.1518                 1.1467
 IR Inten    --      4.3689                 7.7109                 5.5961

                     19                     20                     21
                      A                      A                      A
 Frequencies --    948.0574               987.2193              1005.7140
 Red. masses --      2.1834                 1.6877                 1.3637
 Frc consts  --      1.1562                 0.9691                 0.8127
 IR Inten    --     23.1730                 9.8096                 4.0684

                     22                     23                     24
                      A                      A                      A
 Frequencies --   1017.6538              1056.1973              1060.4587
 Red. masses --      1.8665                 2.9554                 1.8830
 Frc consts  --      1.1389                 1.9425                 1.2477
 IR Inten    --      5.8835                24.2092                 9.3226

                     25                     26                     27
                      A                      A                      A
 Frequencies --   1117.1086              1145.8333              1199.0683
 Red. masses --      2.0401                 1.8310                 1.0847
 Frc consts  --      1.5000                 1.4164                 0.9189
 IR Inten    --      1.3954                16.6997                 1.6239

                     28                     29                     30
                      A                      A                      A
 Frequencies --   1226.2175              1265.8883              1300.2278
 Red. masses --      1.4267                 1.2646                 1.7624
 Frc consts  --      1.2639                 1.1939                 1.7555
 IR Inten    --      4.1762                 2.0557                14.5446

                     31                     32                     33
                      A                      A                      A
 Frequencies --   1341.5919              1345.5602              1369.9273
 Red. masses --      1.4251                 1.3671                 1.4475
 Frc consts  --      1.5112                 1.4583                 1.6006
 IR Inten    --     49.5667                 8.2758                 7.3696

                     34                     35                     36
                      A                      A                      A
 Frequencies --   1395.5003              1415.3798              1436.8079
 Red. masses --      1.2776                 1.5394                 1.4690
 Frc consts  --      1.4659                 1.8170                 1.7867
 IR Inten    --     26.9773                 1.3897                36.2358

                     37                     38                     39
                      A                      A                      A
 Frequencies --   1456.4368              1469.5606              1481.9107
 Red. masses --      1.0971                 1.0792                 1.1025
 Frc consts  --      1.3712                 1.3731                 1.4265
 IR Inten    --      1.9505                 3.7501                 1.5015

                     40                     41                     42
                      A                      A                      A
 Frequencies --   1730.1151              1812.2702              2918.6972
 Red. masses --      6.4986                10.4797                 1.0856
 Frc consts  --     11.4610                20.2790                 5.4487
 IR Inten    --      4.3464               166.9493                63.7212

                     43                     44                     45
                      A                      A                      A
 Frequencies --   2992.5674              3025.1144              3028.7055
 Red. masses --      1.0685                 1.0598                 1.0634
 Frc consts  --      5.6380                 5.7141                 5.7474
 IR Inten    --     30.0215                24.0782                18.3823

                     46                     47                     48
                      A                      A                      A
 Frequencies --   3057.0747              3057.5040              3082.0026
 Red. masses --      1.0930                 1.0953                 1.1032
 Frc consts  --      6.0184                 6.0327                 6.1738
 IR Inten    --     38.5981                 2.7004                28.4660

                     49                     50                     51
                      A                      A                      A
 Frequencies --   3146.5611              3170.0490              3687.0518
 Red. masses --      1.0833                 1.0972                 1.0648
 Frc consts  --      6.3196                 6.4963                 8.5288
 IR Inten    --      6.1532                37.0322                81.1717

 - Thermochemistry -
 -------------------
 Temperature   298.150 Kelvin.  Pressure   1.00000 Atm.
 Atom     1 has atomic number  8 and mass  15.99491

 Molecular mass:   126.06808 amu.
 Principal axes and moments of inertia in atomic units:
                           1         2         3
     Eigenvalues --   547.818911460.861511629.46715
           X            0.99996   0.00842  -0.00386
           Y           -0.00840   0.99995   0.00452
           Z            0.00389  -0.00449   0.99998
 This molecule is an asymmetric top.
 Rotational symmetry number  1.
 Warning -- assumption of classical behavior for rotation
           may cause significant error
 Rotational temperatures (Kelvin)      0.15811     0.05929     0.05315
 Rotational constants (GHZ):           3.29441     1.23540     1.10757
 Zero-point vibrational energy     417929.2 (Joules/Mol)
                                   99.88748 (Kcal/Mol)
 Warning -- explicit consideration of  11 degrees of freedom as
           vibrations may cause significant error
 Vibrational temperatures:    125.74   153.31   264.29   427.11   447.74
          (Kelvin)            506.76   555.29   559.98   594.55   680.75
                              774.88   932.18   960.92  1098.86  1186.59
                             1264.27  1268.30  1323.38  1364.04  1420.39
                             1447.00  1464.18  1519.63  1525.76  1607.27
                             1648.60  1725.19  1764.25  1821.33  1870.74
                             1930.25  1935.96  1971.02  2007.81  2036.41
                             2067.24  2095.49  2114.37  2132.14  2489.25
                             2607.45  4199.35  4305.63  4352.46  4357.63
                             4398.44  4399.06  4434.31  4527.19  4560.99
                             5304.84

 Zero-point correction=                           0.159181 (Hartree/Particle)
 Thermal correction to Energy=                    0.167623
 Thermal correction to Enthalpy=                  0.168567
 Thermal correction to Gibbs Free Energy=         0.126226
 Sum of electronic and zero-point Energies=           -423.055427
 Sum of electronic and thermal Energies=              -423.046985
 Sum of electronic and thermal Enthalpies=            -423.046041
 Sum of electronic and thermal Free Energies=         -423.088382

                     E (Thermal)             CV                S
                      KCal/Mol        Cal/Mol-Kelvin    Cal/Mol-Kelvin
 Total                  105.185             32.607             89.113
 Electronic               0.000              0.000              0.000
 Translational            0.889              2.981             40.409
 Rotational               0.889              2.981             28.657
 Vibrational            103.407             26.645             20.047
 Vibration     1          0.601              1.958              3.718
 Vibration     2          0.605              1.944              3.331
 Vibration     3          0.631              1.862              2.291
 Vibration     4          0.691              1.680              1.435
 Vibration     5          0.700              1.652              1.356
 Vibration     6          0.729              1.571              1.156
 Vibration     7          0.755              1.500              1.016
 Vibration     8          0.757              1.493              1.003
 Vibration     9          0.777              1.442              0.915
 Vibration    10          0.830              1.310              0.729
 Vibration    11          0.894              1.165              0.568

 Optimization completed.
    -- Stationary point found.
 Normal termination of Gaussian 09 at Mon Jan 27 17:54:28 2020.
