 Gaussian 09, Revision D.01,
 Gaussian 09:  ES64L-G09RevD.01 24-Apr-2013

 -----------------------------
 # b3lyp 6-31G(2df,p) opt Freq
 -----------------------------

 -----
 titel
 -----
 Symbolic Z-matrix:
 Charge =  0 Multiplicity = 1

 SCF Done:  E(RB3LYP) =  -423.208280001     A.U. after   14 cycles
 Optimization completed.
    -- Stationary point found.
 Normal termination of Gaussian 09 at Tue Jan 28 00:41:36 2020.

 ----------------------------------------------------------------------
 #N Geom=AllCheck Guess=TCheck SCRF=Check GenChk RB3LYP/6-31G(2df,p) Fr
 eq
 ----------------------------------------------------------------------

 Structure from the checkpoint file:  "/scratch/puck/g09_0c3bb26b-c967-418f-9b7d-3e9e3aae5c64/Gau-166985.chk"
 -----
 titel
 -----
 Charge =  0 Multiplicity = 1

                         Standard orientation:
 ---------------------------------------------------------------------
 Center     Atomic      Atomic             Coordinates (Angstroms)
 Number     Number       Type             X           Y           Z
 ---------------------------------------------------------------------
      1          6           0       -0.700837    2.319752    0.453195
      2          6           0       -0.122652    1.202469   -0.424429
      3          6           0        1.394017    0.963095   -0.203842
      4          6           0        1.622134   -0.560946   -0.368514
      5          8           0        2.630111   -1.107015    0.466439
      6          6           0        0.243294   -1.129243   -0.147849
      7          6           0       -0.706351   -0.183955   -0.176758
      8          6           0       -2.151038   -0.471679   -0.056515
      9          8           0       -2.613581   -1.563028    0.191421
     10          1           0       -0.592775    2.076979    1.516003
     11          1           0       -0.175682    3.262536    0.268748
     12          1           0       -1.763030    2.491455    0.253051
     13          1           0       -0.296568    1.473481   -1.476231
     14          1           0        2.027160    1.562767   -0.861660
     15          1           0        1.654470    1.230678    0.828435
     16          1           0        1.960333   -0.800239   -1.385935
     17          1           0        2.349738   -0.984830    1.380591
     18          1           0        0.055680   -2.189324   -0.019882
     19          1           0       -2.822973    0.399889   -0.217726
 ---------------------------------------------------------------------

 SCF Done:  E(RB3LYP) =  -423.208280001     A.U. after    1 cycles

 The electronic state is 1-A.
 Alpha  occ. eigenvalues --  -19.14396 -19.13619 -10.27011 -10.24458 -10.20709
 Alpha  occ. eigenvalues --  -10.20123 -10.19920 -10.19135 -10.18800  -1.04125
 Alpha  occ. eigenvalues --   -1.02675  -0.85961  -0.75757  -0.73375  -0.66702
 Alpha  occ. eigenvalues --   -0.62547  -0.59159  -0.52818  -0.52291  -0.48379
 Alpha  occ. eigenvalues --   -0.45510  -0.44732  -0.44229  -0.41709  -0.39677
 Alpha  occ. eigenvalues --   -0.39276  -0.38746  -0.37169  -0.35889  -0.34691
 Alpha  occ. eigenvalues --   -0.32769  -0.28150  -0.26210  -0.25223
 Alpha virt. eigenvalues --   -0.06625   0.05721   0.08021   0.09213   0.10584
 Alpha virt. eigenvalues --    0.11678   0.14077   0.14762   0.15005   0.16100
 Alpha virt. eigenvalues --    0.17237   0.17806   0.19379   0.22063   0.24006

 Mulliken charges:
               1
     1  C   -0.404986
     2  C   -0.098616
     3  C   -0.255652
     4  C    0.109058
     5  O   -0.428727
     6  C   -0.200025
     7  C    0.223657
     8  C    0.070430
     9  O   -0.260943
    10  H    0.118649
    11  H    0.122413
    12  H    0.121413
    13  H    0.090629
    14  H    0.109291
    15  H    0.097480
    16  H    0.106546
    17  H    0.277865
    18  H    0.131190
    19  H    0.070328
 Sum of Mulliken charges =   0.00000

 Dipole moment (field-independent basis, Debye):
    X=              0.8632    Y=              2.7136    Z=             -0.0840  Tot=              2.8488
 Quadrupole moment (field-independent basis, Debye-Ang):
   XX=            -63.8566   YY=            -56.1522   ZZ=            -49.7201
   XY=             -3.7538   XZ=              1.9832   YZ=             -0.1718

  Exact polarizability:  96.848  -4.081  84.077  -1.308  -2.024  58.487
 Approx polarizability: 143.388  -8.390 123.960  -2.208  -5.821  92.528

                      1                      2                      3
                      A                      A                      A
 Frequencies --     75.4837               102.7020               131.2612
 Red. masses --      2.6818                 3.6999                 3.5790
 Frc consts  --      0.0090                 0.0230                 0.0363
 IR Inten    --      0.9124                 8.0270                 2.2081

                      4                      5                      6
                      A                      A                      A
 Frequencies --    194.3296               230.7996               266.3011
 Red. masses --      3.0386                 1.1730                 2.8936
 Frc consts  --      0.0676                 0.0368                 0.1209
 IR Inten    --      1.9987                 0.8986                 1.8837

                      7                      8                      9
                      A                      A                      A
 Frequencies --    312.9991               349.6089               408.7437
 Red. masses --      1.8758                 1.2539                 4.6735
 Frc consts  --      0.1083                 0.0903                 0.4600
 IR Inten    --     10.6135                71.6356                20.5626

                     10                     11                     12
                      A                      A                      A
 Frequencies --    445.5304               494.1317               569.0623
 Red. masses --      3.3330                 3.8204                 2.6868
 Frc consts  --      0.3898                 0.5496                 0.5126
 IR Inten    --      2.5185                 1.4221                 1.8588

                     13                     14                     15
                      A                      A                      A
 Frequencies --    588.4839               699.4263               829.3744
 Red. masses --      3.1332                 3.2743                 3.7540
 Frc consts  --      0.6393                 0.9437                 1.5214
 IR Inten    --      4.6586                31.7714                21.3870

                     16                     17                     18
                      A                      A                      A
 Frequencies --    881.6506               893.6740               917.4461
 Red. masses --      1.8759                 1.6045                 1.9924
 Frc consts  --      0.8591                 0.7550                 0.9881
 IR Inten    --      1.8086                 6.9864                 3.0003

                     19                     20                     21
                      A                      A                      A
 Frequencies --    942.9807              1030.2335              1040.9231
 Red. masses --      1.5344                 1.6564                 1.6009
 Frc consts  --      0.8039                 1.0358                 1.0220
 IR Inten    --     20.5238                 8.4605                 1.4073

                     22                     23                     24
                      A                      A                      A
 Frequencies --   1050.0176              1074.0203              1111.3176
 Red. masses --      2.4384                 3.0839                 2.1106
 Frc consts  --      1.5840                 2.0959                 1.5358
 IR Inten    --      3.8770                60.5815                 9.6404

                     25                     26                     27
                      A                      A                      A
 Frequencies --   1123.8594              1161.3035              1220.4219
 Red. masses --      2.2852                 1.7638                 1.9321
 Frc consts  --      1.7006                 1.4015                 1.6955
 IR Inten    --      8.9923                71.1689                27.1409

                     28                     29                     30
                      A                      A                      A
 Frequencies --   1249.6503              1260.1705              1306.9190
 Red. masses --      1.5818                 1.2977                 1.5342
 Frc consts  --      1.4554                 1.2142                 1.5439
 IR Inten    --      1.9706                10.5104                 8.8419

                     31                     32                     33
                      A                      A                      A
 Frequencies --   1319.2917              1325.8872              1358.5559
 Red. masses --      1.3735                 1.5265                 1.6053
 Frc consts  --      1.4085                 1.5811                 1.7457
 IR Inten    --      0.3351                 1.9526                13.6808

                     34                     35                     36
                      A                      A                      A
 Frequencies --   1410.0280              1423.6185              1445.4134
 Red. masses --      1.2278                 1.2274                 1.2885
 Frc consts  --      1.4382                 1.4656                 1.5861
 IR Inten    --      6.6936                96.1550                 2.0809

                     37                     38                     39
                      A                      A                      A
 Frequencies --   1486.9231              1497.4790              1499.9391
 Red. masses --      1.0884                 1.0578                 1.0455
 Frc consts  --      1.4178                 1.3976                 1.3859
 IR Inten    --      2.0189                 2.2376                 6.4049

                     40                     41                     42
                      A                      A                      A
 Frequencies --   1664.2257              1789.4378              2886.2773
 Red. masses --      8.5907                 9.7527                 1.0813
 Frc consts  --     14.0185                18.3996                 5.3071
 IR Inten    --     92.0753               132.8549               124.5309

                     43                     44                     45
                      A                      A                      A
 Frequencies --   2992.8363              3017.4969              3028.7774
 Red. masses --      1.0822                 1.0817                 1.0587
 Frc consts  --      5.7111                 5.8030                 5.7219
 IR Inten    --     18.5969                14.4528                15.1738

                     46                     47                     48
                      A                      A                      A
 Frequencies --   3032.5440              3100.7866              3103.6160
 Red. masses --      1.0449                 1.1011                 1.1007
 Frc consts  --      5.6617                 6.2375                 6.2465
 IR Inten    --     37.5658                14.0449                32.2301

                     49                     50                     51
                      A                      A                      A
 Frequencies --   3106.5186              3209.8853              3796.5390
 Red. masses --      1.0978                 1.0939                 1.0660
 Frc consts  --      6.2421                 6.6403                 9.0528
 IR Inten    --     33.8036                 1.3126                13.4280

 - Thermochemistry -
 -------------------
 Temperature   298.150 Kelvin.  Pressure   1.00000 Atm.
 Atom     1 has atomic number  6 and mass  12.00000

 Molecular mass:   126.06808 amu.
 Principal axes and moments of inertia in atomic units:
                           1         2         3
     Eigenvalues --   816.664171402.517962065.82987
           X            0.99925  -0.03870  -0.00069
           Y            0.03871   0.99920   0.01003
           Z            0.00031  -0.01004   0.99995
 This molecule is an asymmetric top.
 Rotational symmetry number  1.
 Warning -- assumption of classical behavior for rotation
           may cause significant error
 Rotational temperatures (Kelvin)      0.10606     0.06176     0.04193
 Rotational constants (GHZ):           2.20989     1.28679     0.87362
 Zero-point vibrational energy     415456.5 (Joules/Mol)
                                   99.29649 (Kcal/Mol)
 Warning -- explicit consideration of  13 degrees of freedom as
           vibrations may cause significant error
 Vibrational temperatures:    108.60   147.77   188.86   279.60   332.07
          (Kelvin)            383.15   450.34   503.01   588.09   641.02
                              710.94   818.75   846.70  1006.32  1193.28
                             1268.50  1285.80  1320.00  1356.74  1482.27
                             1497.65  1510.74  1545.27  1598.94  1616.98
                             1670.85  1755.91  1797.97  1813.10  1880.36
                             1898.16  1907.65  1954.66  2028.71  2048.27
                             2079.62  2139.35  2154.54  2158.08  2394.45
                             2574.60  4152.70  4306.02  4341.50  4357.73
                             4363.15  4461.33  4465.41  4469.58  4618.30
                             5462.37

 Zero-point correction=                           0.158239 (Hartree/Particle)
 Thermal correction to Energy=                    0.167418
 Thermal correction to Enthalpy=                  0.168362
 Thermal correction to Gibbs Free Energy=         0.123996
 Sum of electronic and zero-point Energies=           -423.050041
 Sum of electronic and thermal Energies=              -423.040862
 Sum of electronic and thermal Enthalpies=            -423.039918
 Sum of electronic and thermal Free Energies=         -423.084284

                     E (Thermal)             CV                S
                      KCal/Mol        Cal/Mol-Kelvin    Cal/Mol-Kelvin
 Total                  105.056             33.762             93.376
 Electronic               0.000              0.000              0.000
 Translational            0.889              2.981             40.409
 Rotational               0.889              2.981             29.249
 Vibrational            103.279             27.800             23.718
 Vibration     1          0.599              1.965              4.005
 Vibration     2          0.605              1.947              3.402
 Vibration     3          0.612              1.922              2.927
 Vibration     4          0.635              1.848              2.186
 Vibration     5          0.653              1.794              1.873
 Vibration     6          0.672              1.735              1.620
 Vibration     7          0.701              1.649              1.346
 Vibration     8          0.727              1.576              1.168
 Vibration     9          0.773              1.451              0.931
 Vibration    10          0.805              1.371              0.809
 Vibration    11          0.850              1.263              0.673
 Vibration    12          0.925              1.098              0.506
 Vibration    13          0.946              1.056              0.470

 Optimization completed.
    -- Stationary point found.
 Normal termination of Gaussian 09 at Tue Jan 28 01:14:27 2020.
