 Gaussian 09, Revision D.01,
 Gaussian 09:  ES64L-G09RevD.01 24-Apr-2013

 -----------------------------
 # b3lyp 6-31G(2df,p) opt Freq
 -----------------------------

 -----
 titel
 -----
 Symbolic Z-matrix:
 Charge =  0 Multiplicity = 1

 SCF Done:  E(RB3LYP) =  -423.150052617     A.U. after   14 cycles
 Optimization completed.
    -- Stationary point found.
 Normal termination of Gaussian 09 at Tue Jan 28 08:43:54 2020.

 ----------------------------------------------------------------------
 #N Geom=AllCheck Guess=TCheck SCRF=Check GenChk RB3LYP/6-31G(2df,p) Fr
 eq
 ----------------------------------------------------------------------

 Structure from the checkpoint file:  "/scratch/puck/g09_b1627843-764d-4096-831e-fcc0b9283ee2/Gau-187534.chk"
 -----
 titel
 -----
 Charge =  0 Multiplicity = 1

                         Standard orientation:
 ---------------------------------------------------------------------
 Center     Atomic      Atomic             Coordinates (Angstroms)
 Number     Number       Type             X           Y           Z
 ---------------------------------------------------------------------
      1          6           0        2.795544   -0.050232   -0.579266
      2          6           0        1.796557    0.314180    0.525183
      3          6           0        0.384636   -0.196990    0.241917
      4          8           0        0.376802   -1.610903    0.181728
      5          6           0       -0.844593    0.454647    0.992279
      6          6           0       -0.714018    1.651860   -0.011594
      7          6           0       -0.471052    0.400917   -0.924557
      8          6           0       -1.671649   -0.179732   -0.144100
      9          8           0       -2.713795   -0.720359   -0.330262
     10          1           0        3.812024    0.238834   -0.296826
     11          1           0        2.783214   -1.125485   -0.773853
     12          1           0        2.549969    0.461647   -1.515349
     13          1           0        2.118724   -0.134233    1.476342
     14          1           0        1.804758    1.393432    0.695590
     15          1           0        0.746669   -1.954966    1.002178
     16          1           0       -1.038764    0.494559    2.062819
     17          1           0       -1.620442    2.225623   -0.205487
     18          1           0        0.142367    2.307276    0.133872
     19          1           0       -0.255122    0.375511   -1.990183
 ---------------------------------------------------------------------

 SCF Done:  E(RB3LYP) =  -423.150052617     A.U. after    1 cycles

 The electronic state is 1-A.
 Alpha  occ. eigenvalues --  -19.15013 -19.13006 -10.27162 -10.26147 -10.21065
 Alpha  occ. eigenvalues --  -10.20771 -10.20681 -10.19715 -10.18159  -1.04890
 Alpha  occ. eigenvalues --   -1.03466  -0.91313  -0.77890  -0.67316  -0.65793
 Alpha  occ. eigenvalues --   -0.64816  -0.58007  -0.53155  -0.51395  -0.48268
 Alpha  occ. eigenvalues --   -0.45938  -0.45108  -0.42435  -0.41660  -0.40496
 Alpha  occ. eigenvalues --   -0.37886  -0.37269  -0.35654  -0.35156  -0.33923
 Alpha  occ. eigenvalues --   -0.33604  -0.31578  -0.27746  -0.23673
 Alpha virt. eigenvalues --    0.01815   0.06216   0.09717   0.11946   0.12253
 Alpha virt. eigenvalues --    0.12785   0.13289   0.14261   0.14699   0.15944
 Alpha virt. eigenvalues --    0.16399   0.17411   0.18844   0.20396   0.20787

 Mulliken charges:
               1
     1  C   -0.374646
     2  C   -0.275015
     3  C    0.462137
     4  O   -0.477899
     5  C   -0.257174
     6  C   -0.263193
     7  C   -0.218440
     8  C    0.462219
     9  O   -0.324924
    10  H    0.113527
    11  H    0.131940
    12  H    0.120925
    13  H    0.091659
    14  H    0.107606
    15  H    0.282374
    16  H    0.086824
    17  H    0.123136
    18  H    0.114011
    19  H    0.094932
 Sum of Mulliken charges =   0.00000

 Dipole moment (field-independent basis, Debye):
    X=              3.3185    Y=              1.8303    Z=              1.5676  Tot=              4.1012
 Quadrupole moment (field-independent basis, Debye-Ang):
   XX=            -60.9626   YY=            -52.9442   ZZ=            -50.3174
   XY=             -4.7164   XZ=             -0.0179   YZ=             -3.2134

  Exact polarizability:  87.624   0.671  71.450   0.844  -0.649  68.566
 Approx polarizability: 120.473   6.339 111.196   3.469  -0.046 107.679

                      1                      2                      3
                      A                      A                      A
 Frequencies --     88.5512               139.5754               162.7042
 Red. masses --      2.4426                 4.1025                 3.4417
 Frc consts  --      0.0113                 0.0471                 0.0537
 IR Inten    --      0.2125                 2.0847                 0.6378

                      4                      5                      6
                      A                      A                      A
 Frequencies --    214.8664               277.9104               311.8003
 Red. masses --      1.2434                 1.1199                 3.4101
 Frc consts  --      0.0338                 0.0510                 0.1953
 IR Inten    --      0.0091                72.7548                25.5269

                      7                      8                      9
                      A                      A                      A
 Frequencies --    365.1511               412.5673               439.8792
 Red. masses --      3.2420                 2.8780                 3.8451
 Frc consts  --      0.2547                 0.2886                 0.4384
 IR Inten    --      4.3685                 3.7131                 6.4403

                     10                     11                     12
                      A                      A                      A
 Frequencies --    479.6373               528.4087               646.4421
 Red. masses --      2.8359                 3.8262                 3.3358
 Frc consts  --      0.3844                 0.6294                 0.8213
 IR Inten    --      1.7425                13.0269                 0.7801

                     13                     14                     15
                      A                      A                      A
 Frequencies --    703.5109               765.7331               777.1437
 Red. masses --      2.9162                 4.4094                 2.5068
 Frc consts  --      0.8504                 1.5233                 0.8920
 IR Inten    --      5.3224                 7.4276                 2.3835

                     16                     17                     18
                      A                      A                      A
 Frequencies --    789.0634               815.8201               881.4197
 Red. masses --      1.6279                 3.3847                 2.3683
 Frc consts  --      0.5972                 1.3273                 1.0841
 IR Inten    --      0.8976                 1.5944                 1.4111

                     19                     20                     21
                      A                      A                      A
 Frequencies --    957.7700               977.6162               993.5213
 Red. masses --      1.5403                 2.1209                 1.8461
 Frc consts  --      0.8325                 1.1943                 1.0736
 IR Inten    --     15.6464                12.8581                34.2158

                     22                     23                     24
                      A                      A                      A
 Frequencies --   1017.2618              1055.0809              1068.2302
 Red. masses --      1.3809                 1.4774                 1.6334
 Frc consts  --      0.8419                 0.9690                 1.0982
 IR Inten    --     13.4097                 3.7075                 1.7078

                     25                     26                     27
                      A                      A                      A
 Frequencies --   1097.0575              1098.9641              1130.8603
 Red. masses --      1.5139                 2.8402                 2.4101
 Frc consts  --      1.0735                 2.0210                 1.8160
 IR Inten    --      8.5755                 8.9374                 3.1926

                     28                     29                     30
                      A                      A                      A
 Frequencies --   1145.2424              1190.0101              1206.0374
 Red. masses --      1.5212                 1.9658                 2.4532
 Frc consts  --      1.1755                 1.6402                 2.1023
 IR Inten    --      5.6520                36.3285                47.9319

                     31                     32                     33
                      A                      A                      A
 Frequencies --   1211.5977              1228.5334              1277.0633
 Red. masses --      1.7587                 1.7581                 1.3193
 Frc consts  --      1.5211                 1.5634                 1.2678
 IR Inten    --      0.6087                31.0220                28.9667

                     34                     35                     36
                      A                      A                      A
 Frequencies --   1361.0048              1384.7390              1408.7593
 Red. masses --      1.4653                 1.8224                 1.2331
 Frc consts  --      1.5992                 2.0589                 1.4418
 IR Inten    --      5.0569                26.8441                 4.2221

                     37                     38                     39
                      A                      A                      A
 Frequencies --   1481.4554              1495.3162              1508.8358
 Red. masses --      1.0760                 1.0411                 1.0619
 Frc consts  --      1.3913                 1.3716                 1.4244
 IR Inten    --      2.7116                 4.5170                 6.1896

                     40                     41                     42
                      A                      A                      A
 Frequencies --   1528.6139              1931.2632              3006.7216
 Red. masses --      1.0961                12.0965                 1.0728
 Frc consts  --      1.5091                26.5823                 5.7142
 IR Inten    --      2.1605               398.0159                28.8978

                     43                     44                     45
                      A                      A                      A
 Frequencies --   3042.9684              3086.3458              3098.4661
 Red. masses --      1.0356                 1.0815                 1.0625
 Frc consts  --      5.6500                 6.0698                 6.0100
 IR Inten    --     23.1061                 1.5655                29.8817

                     46                     47                     48
                      A                      A                      A
 Frequencies --   3108.6994              3127.3633              3136.7457
 Red. masses --      1.1017                 1.1010                 1.0927
 Frc consts  --      6.2729                 6.3443                 6.3342
 IR Inten    --     31.7881                24.4083                31.5765

                     49                     50                     51
                      A                      A                      A
 Frequencies --   3150.9100              3165.7418              3803.7559
 Red. masses --      1.0941                 1.1087                 1.0658
 Frc consts  --      6.4000                 6.5467                 9.0859
 IR Inten    --     14.0199                17.9707                22.6190

 - Thermochemistry -
 -------------------
 Temperature   298.150 Kelvin.  Pressure   1.00000 Atm.
 Atom     1 has atomic number  6 and mass  12.00000

 Molecular mass:   126.06808 amu.
 Principal axes and moments of inertia in atomic units:
                           1         2         3
     Eigenvalues --   552.050241404.127521616.00952
           X            0.99982  -0.01594  -0.01062
           Y            0.01578   0.99976  -0.01510
           Z            0.01085   0.01492   0.99983
 This molecule is an asymmetric top.
 Rotational symmetry number  1.
 Warning -- assumption of classical behavior for rotation
           may cause significant error
 Rotational temperatures (Kelvin)      0.15689     0.06169     0.05360
 Rotational constants (GHZ):           3.26916     1.28531     1.11679
 Zero-point vibrational energy     414402.8 (Joules/Mol)
                                   99.04464 (Kcal/Mol)
 Warning -- explicit consideration of  11 degrees of freedom as
           vibrations may cause significant error
 Vibrational temperatures:    127.41   200.82   234.09   309.14   399.85
          (Kelvin)            448.61   525.37   593.59   632.89   690.09
                              760.26   930.08  1012.19  1101.72  1118.14
                             1135.28  1173.78  1268.16  1378.02  1406.57
                             1429.45  1463.61  1518.02  1536.94  1578.42
                             1581.16  1627.05  1647.75  1712.16  1735.22
                             1743.22  1767.58  1837.41  1958.18  1992.33
                             2026.89  2131.48  2151.42  2170.88  2199.33
                             2778.65  4326.00  4378.15  4440.56  4458.00
                             4472.72  4499.57  4513.07  4533.45  4554.79
                             5472.75

 Zero-point correction=                           0.157838 (Hartree/Particle)
 Thermal correction to Energy=                    0.166523
 Thermal correction to Enthalpy=                  0.167468
 Thermal correction to Gibbs Free Energy=         0.124769
 Sum of electronic and zero-point Energies=           -422.992215
 Sum of electronic and thermal Energies=              -422.983529
 Sum of electronic and thermal Enthalpies=            -422.982585
 Sum of electronic and thermal Free Energies=         -423.025284

                     E (Thermal)             CV                S
                      KCal/Mol        Cal/Mol-Kelvin    Cal/Mol-Kelvin
 Total                  104.495             33.599             89.867
 Electronic               0.000              0.000              0.000
 Translational            0.889              2.981             40.409
 Rotational               0.889              2.981             28.617
 Vibrational            102.718             27.637             20.841
 Vibration     1          0.601              1.957              3.692
 Vibration     2          0.615              1.914              2.810
 Vibration     3          0.623              1.888              2.518
 Vibration     4          0.645              1.818              2.002
 Vibration     5          0.679              1.714              1.547
 Vibration     6          0.700              1.651              1.353
 Vibration     7          0.738              1.544              1.100
 Vibration     8          0.776              1.443              0.918
 Vibration     9          0.800              1.383              0.827
 Vibration    10          0.836              1.295              0.711
 Vibration    11          0.883              1.187              0.591

 Optimization completed.
    -- Stationary point found.
 Normal termination of Gaussian 09 at Tue Jan 28 09:18:28 2020.
