 Gaussian 09, Revision D.01,
 Gaussian 09:  ES64L-G09RevD.01 24-Apr-2013

 -----------------------------
 # b3lyp 6-31G(2df,p) opt Freq
 -----------------------------

 -----
 titel
 -----
 Symbolic Z-matrix:
 Charge =  0 Multiplicity = 1

 SCF Done:  E(RB3LYP) =  -423.165904803     A.U. after   14 cycles
 Optimization completed.
    -- Stationary point found.
 Normal termination of Gaussian 09 at Tue Jan 28 02:51:31 2020.

 ----------------------------------------------------------------------
 #N Geom=AllCheck Guess=TCheck SCRF=Check GenChk RB3LYP/6-31G(2df,p) Fr
 eq
 ----------------------------------------------------------------------

 Structure from the checkpoint file:  "/scratch/puck/g09_8e54ad27-3f53-4fc4-acd5-d636526d6425/Gau-193457.chk"
 -----
 titel
 -----
 Charge =  0 Multiplicity = 1

                         Standard orientation:
 ---------------------------------------------------------------------
 Center     Atomic      Atomic             Coordinates (Angstroms)
 Number     Number       Type             X           Y           Z
 ---------------------------------------------------------------------
      1          8           0        2.607277   -0.842169   -0.410401
      2          6           0        1.662541    0.020368    0.181812
      3          6           0        0.662553   -0.777188    1.048045
      4          6           0       -0.537467   -0.177663    0.273315
      5          6           0       -1.007354    1.237386    0.699052
      6          6           0       -0.086512    1.891373   -0.373700
      7          6           0        0.497793    0.507673   -0.733686
      8          6           0       -1.573269   -1.117225   -0.246622
      9          8           0       -2.739091   -0.847088   -0.407314
     10          1           0        3.182670   -0.318026   -0.977578
     11          1           0        2.157761    0.850649    0.706829
     12          1           0        0.783456   -1.845659    0.842778
     13          1           0        0.680409   -0.615513    2.128470
     14          1           0       -2.074565    1.383225    0.525758
     15          1           0       -0.777997    1.493249    1.736699
     16          1           0       -0.649767    2.342516   -1.193645
     17          1           0        0.641794    2.624822   -0.013363
     18          1           0        0.579291    0.214016   -1.781364
     19          1           0       -1.178255   -2.123577   -0.522157
 ---------------------------------------------------------------------

 SCF Done:  E(RB3LYP) =  -423.165904803     A.U. after    1 cycles

 The electronic state is 1-A.
 Alpha  occ. eigenvalues --  -19.14667 -19.13460 -10.26368 -10.24143 -10.19988
 Alpha  occ. eigenvalues --  -10.19892 -10.19083 -10.19023 -10.18477  -1.04043
 Alpha  occ. eigenvalues --   -1.02972  -0.87961  -0.75750  -0.70351  -0.65482
 Alpha  occ. eigenvalues --   -0.60803  -0.58651  -0.53188  -0.51518  -0.49557
 Alpha  occ. eigenvalues --   -0.47262  -0.44455  -0.43729  -0.41174  -0.40190
 Alpha  occ. eigenvalues --   -0.38870  -0.37676  -0.35108  -0.33899  -0.32138
 Alpha  occ. eigenvalues --   -0.31883  -0.28384  -0.26674  -0.24408
 Alpha virt. eigenvalues --   -0.02453   0.06607   0.08643   0.09354   0.10741
 Alpha virt. eigenvalues --    0.11714   0.12393   0.14903   0.15734   0.17057
 Alpha virt. eigenvalues --    0.18422   0.18822   0.20012   0.21284   0.21830

 Mulliken charges:
               1
     1  O   -0.430867
     2  C    0.142548
     3  C   -0.317095
     4  C    0.269539
     5  C   -0.297081
     6  C   -0.225950
     7  C   -0.116796
     8  C    0.067665
     9  O   -0.259020
    10  H    0.283218
    11  H    0.065773
    12  H    0.120922
    13  H    0.105639
    14  H    0.133245
    15  H    0.099426
    16  H    0.112767
    17  H    0.097169
    18  H    0.077894
    19  H    0.071003
 Sum of Mulliken charges =   0.00000

 Dipole moment (field-independent basis, Debye):
    X=              2.7805    Y=              1.5287    Z=              0.0140  Tot=              3.1731
 Quadrupole moment (field-independent basis, Debye-Ang):
   XX=            -60.8221   YY=            -53.3552   ZZ=            -50.8501
   XY=              1.6494   XZ=             -3.5523   YZ=             -0.9510

  Exact polarizability:  86.579   0.341  77.486  -0.402   0.482  65.555
 Approx polarizability: 128.124   0.008 110.128  -0.304   0.688  99.210

                      1                      2                      3
                      A                      A                      A
 Frequencies --     46.3972                88.2350               198.2460
 Red. masses --      3.3596                 4.3458                 1.9851
 Frc consts  --      0.0043                 0.0199                 0.0460
 IR Inten    --      0.2828                 4.2874                 1.5177

                      4                      5                      6
                      A                      A                      A
 Frequencies --    252.8832               297.4109               304.4228
 Red. masses --      3.4769                 1.5759                 1.8415
 Frc consts  --      0.1310                 0.0821                 0.1006
 IR Inten    --     14.6734                43.2000                39.0050

                      7                      8                      9
                      A                      A                      A
 Frequencies --    313.6540               365.5584               434.9834
 Red. masses --      2.4259                 2.4858                 4.6421
 Frc consts  --      0.1406                 0.1957                 0.5175
 IR Inten    --      5.8227                25.5379                 3.7580

                     10                     11                     12
                      A                      A                      A
 Frequencies --    500.1178               637.9710               709.7461
 Red. masses --      2.8151                 3.3247                 2.6060
 Frc consts  --      0.4148                 0.7973                 0.7735
 IR Inten    --     12.0961                 0.5571                 9.6288

                     13                     14                     15
                      A                      A                      A
 Frequencies --    754.0065               814.6229               839.9217
 Red. masses --      1.4792                 2.0977                 2.9080
 Frc consts  --      0.4955                 0.8202                 1.2087
 IR Inten    --      9.0254                 6.9242                 1.3978

                     16                     17                     18
                      A                      A                      A
 Frequencies --    885.7506               894.9797               937.5859
 Red. masses --      2.4438                 2.1448                 2.1065
 Frc consts  --      1.1296                 1.0122                 1.0910
 IR Inten    --      1.7973                 4.9452                 7.2886

                     19                     20                     21
                      A                      A                      A
 Frequencies --    962.8706              1003.9306              1007.9968
 Red. masses --      2.6303                 2.0577                 2.1237
 Frc consts  --      1.4368                 1.2219                 1.2714
 IR Inten    --      1.0351                30.9256                 7.1255

                     22                     23                     24
                      A                      A                      A
 Frequencies --   1050.9404              1062.1918              1094.0602
 Red. masses --      2.0164                 1.6712                 1.7726
 Frc consts  --      1.3121                 1.1110                 1.2501
 IR Inten    --     22.7610                42.9545                11.5799

                     25                     26                     27
                      A                      A                      A
 Frequencies --   1150.5791              1166.3845              1185.7532
 Red. masses --      1.7491                 1.8027                 2.4609
 Frc consts  --      1.3643                 1.4450                 2.0386
 IR Inten    --     18.6853                 9.7516                 4.3427

                     28                     29                     30
                      A                      A                      A
 Frequencies --   1235.4685              1239.3111              1251.0306
 Red. masses --      1.3839                 1.3286                 1.5073
 Frc consts  --      1.2446                 1.2023                 1.3899
 IR Inten    --      8.1751                32.1034                13.7302

                     31                     32                     33
                      A                      A                      A
 Frequencies --   1267.0063              1269.1530              1280.1489
 Red. masses --      1.4378                 1.5937                 1.3423
 Frc consts  --      1.3599                 1.5124                 1.2961
 IR Inten    --      6.9395                 0.7033                 0.1127

                     34                     35                     36
                      A                      A                      A
 Frequencies --   1314.6605              1328.9203              1419.6652
 Red. masses --      1.7960                 1.8391                 1.2894
 Frc consts  --      1.8289                 1.9136                 1.5311
 IR Inten    --     44.6070                26.9447                 0.7183

                     37                     38                     39
                      A                      A                      A
 Frequencies --   1430.4900              1466.6165              1474.7637
 Red. masses --      1.3166                 1.1316                 1.0833
 Frc consts  --      1.5873                 1.4341                 1.3881
 IR Inten    --      8.6660                 5.1475                 2.3850

                     40                     41                     42
                      A                      A                      A
 Frequencies --   1490.3644              1808.0379              2853.6330
 Red. masses --      1.1121                10.7233                 1.0820
 Frc consts  --      1.4554                20.6536                 5.1911
 IR Inten    --      3.7208               194.1032               115.6890

                     43                     44                     45
                      A                      A                      A
 Frequencies --   2984.1013              3049.4777              3051.9440
 Red. masses --      1.0850                 1.0607                 1.0584
 Frc consts  --      5.6927                 5.8115                 5.8083
 IR Inten    --     51.2356                48.1424                15.8075

                     46                     47                     48
                      A                      A                      A
 Frequencies --   3066.4502              3097.4156              3107.4833
 Red. masses --      1.0623                 1.0950                 1.0979
 Frc consts  --      5.8853                 6.1899                 6.2464
 IR Inten    --     32.3108                12.2536                22.4772

                     49                     50                     51
                      A                      A                      A
 Frequencies --   3112.7562              3132.8164              3808.6583
 Red. masses --      1.1074                 1.1047                 1.0660
 Frc consts  --      6.3220                 6.3880                 9.1108
 IR Inten    --     18.8071                14.7058                23.2177

 - Thermochemistry -
 -------------------
 Temperature   298.150 Kelvin.  Pressure   1.00000 Atm.
 Atom     1 has atomic number  8 and mass  15.99491

 Molecular mass:   126.06808 amu.
 Principal axes and moments of inertia in atomic units:
                           1         2         3
     Eigenvalues --   660.884861387.476421694.84825
           X            0.99993  -0.01068  -0.00519
           Y            0.01064   0.99991  -0.00779
           Z            0.00527   0.00774   0.99996
 This molecule is an asymmetric top.
 Rotational symmetry number  1.
 Warning -- assumption of classical behavior for rotation
           may cause significant error
 Rotational temperatures (Kelvin)      0.13106     0.06243     0.05110
 Rotational constants (GHZ):           2.73080     1.30074     1.06484
 Zero-point vibrational energy     415711.7 (Joules/Mol)
                                   99.35749 (Kcal/Mol)
 Warning -- explicit consideration of  10 degrees of freedom as
           vibrations may cause significant error
 Vibrational temperatures:     66.76   126.95   285.23   363.84   427.91
          (Kelvin)            438.00   451.28   525.96   625.84   719.56
                              917.90  1021.17  1084.85  1172.06  1208.46
                             1274.40  1287.67  1348.98  1385.35  1444.43
                             1450.28  1512.07  1528.26  1574.11  1655.42
                             1678.16  1706.03  1777.56  1783.09  1799.95
                             1822.94  1826.03  1841.85  1891.50  1912.02
                             2042.58  2058.15  2110.13  2121.85  2144.30
                             2601.36  4105.74  4293.45  4387.51  4391.06
                             4411.93  4456.48  4470.97  4478.56  4507.42
                             5479.80

 Zero-point correction=                           0.158336 (Hartree/Particle)
 Thermal correction to Energy=                    0.166932
 Thermal correction to Enthalpy=                  0.167876
 Thermal correction to Gibbs Free Energy=         0.124539
 Sum of electronic and zero-point Energies=           -423.007569
 Sum of electronic and thermal Energies=              -422.998973
 Sum of electronic and thermal Enthalpies=            -422.998029
 Sum of electronic and thermal Free Energies=         -423.041366

                     E (Thermal)             CV                S
                      KCal/Mol        Cal/Mol-Kelvin    Cal/Mol-Kelvin
 Total                  104.751             32.391             91.212
 Electronic               0.000              0.000              0.000
 Translational            0.889              2.981             40.409
 Rotational               0.889              2.981             28.832
 Vibrational            102.974             26.429             21.971
 Vibration     1          0.595              1.979              4.965
 Vibration     2          0.601              1.957              3.699
 Vibration     3          0.637              1.842              2.149
 Vibration     4          0.664              1.758              1.710
 Vibration     5          0.691              1.679              1.431
 Vibration     6          0.695              1.665              1.392
 Vibration     7          0.702              1.648              1.343
 Vibration     8          0.739              1.543              1.098
 Vibration     9          0.796              1.394              0.843
 Vibration    10          0.856              1.250              0.658

 Normal termination of Gaussian 09 at Tue Jan 28 03:38:44 2020.
