 Gaussian 09, Revision D.01,
 Gaussian 09:  ES64L-G09RevD.01 24-Apr-2013

 -----------------------------
 # b3lyp 6-31G(2df,p) opt Freq
 -----------------------------

 -----
 titel
 -----
 Symbolic Z-matrix:
 Charge =  0 Multiplicity = 1

 SCF Done:  E(RB3LYP) =  -423.194322075     A.U. after   14 cycles
 Optimization completed.
    -- Stationary point found.
 Normal termination of Gaussian 09 at Tue Jan 28 03:59:05 2020.

 ----------------------------------------------------------------------
 #N Geom=AllCheck Guess=TCheck SCRF=Check GenChk RB3LYP/6-31G(2df,p) Fr
 eq
 ----------------------------------------------------------------------

 Structure from the checkpoint file:  "/scratch/puck/g09_6f9cf521-8c3f-4225-b911-58055787c36f/Gau-69802.chk"
 -----
 titel
 -----
 Charge =  0 Multiplicity = 1

                         Standard orientation:
 ---------------------------------------------------------------------
 Center     Atomic      Atomic             Coordinates (Angstroms)
 Number     Number       Type             X           Y           Z
 ---------------------------------------------------------------------
      1          6           0        1.401852   -1.272698    1.090905
      2          6           0        1.152413   -0.706747   -0.321039
      3          6           0       -0.097516   -1.270792   -1.041291
      4          6           0       -1.254338   -0.262957   -0.832261
      5          6           0       -1.961499   -0.301423    0.535663
      6          8           0       -1.199149    0.834342    1.012117
      7          6           0       -0.617010    1.041863   -0.303273
      8          6           0        0.897251    0.805493   -0.244228
      9          8           0        1.735554    1.664443   -0.156314
     10          1           0        0.560609   -1.071916    1.759070
     11          1           0        1.562561   -2.354453    1.045381
     12          1           0        2.291380   -0.811108    1.528891
     13          1           0        2.056954   -0.865070   -0.915329
     14          1           0        0.108342   -1.360357   -2.112746
     15          1           0       -0.366823   -2.271011   -0.686306
     16          1           0       -1.912872   -0.194617   -1.697937
     17          1           0       -3.034112   -0.073306    0.509640
     18          1           0       -1.799506   -1.197007    1.146959
     19          1           0       -0.884698    2.012123   -0.730914
 ---------------------------------------------------------------------

 SCF Done:  E(RB3LYP) =  -423.194322075     A.U. after    1 cycles

 The electronic state is 1-A.
 Alpha  occ. eigenvalues --  -19.14756 -19.13616 -10.26500 -10.23935 -10.23907
 Alpha  occ. eigenvalues --  -10.20462 -10.19857 -10.19699 -10.18468  -1.05435
 Alpha  occ. eigenvalues --   -1.03876  -0.83277  -0.75399  -0.71921  -0.67667
 Alpha  occ. eigenvalues --   -0.63461  -0.56536  -0.54107  -0.50837  -0.47384
 Alpha  occ. eigenvalues --   -0.45685  -0.44558  -0.43795  -0.43003  -0.40883
 Alpha  occ. eigenvalues --   -0.39843  -0.38128  -0.37470  -0.34348  -0.33667
 Alpha  occ. eigenvalues --   -0.33092  -0.30942  -0.27746  -0.23061
 Alpha virt. eigenvalues --   -0.03271   0.07526   0.09493   0.09895   0.11288
 Alpha virt. eigenvalues --    0.12998   0.14368   0.14834   0.15774   0.16650
 Alpha virt. eigenvalues --    0.17243   0.18158   0.19353   0.20605   0.21672

 Mulliken charges:
               1
     1  C   -0.406773
     2  C   -0.090360
     3  C   -0.257032
     4  C   -0.078397
     5  C   -0.076736
     6  O   -0.293861
     7  C    0.023924
     8  C    0.400828
     9  O   -0.316540
    10  H    0.141452
    11  H    0.116113
    12  H    0.136356
    13  H    0.100073
    14  H    0.109358
    15  H    0.104991
    16  H    0.084489
    17  H    0.107871
    18  H    0.104747
    19  H    0.089494
 Sum of Mulliken charges =   0.00000

 Dipole moment (field-independent basis, Debye):
    X=             -1.8137    Y=             -2.8772    Z=             -1.5424  Tot=              3.7345
 Quadrupole moment (field-independent basis, Debye-Ang):
   XX=            -54.1053   YY=            -56.2014   ZZ=            -52.9710
   XY=             -3.4609   XZ=              1.6137   YZ=             -1.9739

  Exact polarizability:  80.964   1.908  75.480   0.233  -2.188  65.464
 Approx polarizability: 112.759   9.556 113.351  -2.064  -1.595  98.775

                      1                      2                      3
                      A                      A                      A
 Frequencies --     81.5622               123.6957               197.7413
 Red. masses --      4.7311                 2.5679                 4.2595
 Frc consts  --      0.0185                 0.0231                 0.0981
 IR Inten    --      2.2634                 1.3278                 5.8279

                      4                      5                      6
                      A                      A                      A
 Frequencies --    229.6912               261.3345               320.1021
 Red. masses --      1.2347                 2.6696                 3.0422
 Frc consts  --      0.0384                 0.1074                 0.1837
 IR Inten    --      0.8242                 0.4558                 1.0074

                      7                      8                      9
                      A                      A                      A
 Frequencies --    358.5516               450.9950               559.2698
 Red. masses --      1.7912                 4.5058                 5.2697
 Frc consts  --      0.1357                 0.5400                 0.9711
 IR Inten    --      0.0380                 9.3528                 4.3101

                     10                     11                     12
                      A                      A                      A
 Frequencies --    650.8437               701.9330               763.1819
 Red. masses --      4.0942                 5.3242                 2.9337
 Frc consts  --      1.0218                 1.5456                 1.0068
 IR Inten    --      0.4151                 6.3024                 3.3831

                     13                     14                     15
                      A                      A                      A
 Frequencies --    815.9141               870.1670               879.3002
 Red. masses --      2.3842                 2.0270                 3.5751
 Frc consts  --      0.9351                 0.9043                 1.6286
 IR Inten    --     11.7240                 2.2683                10.3106

                     16                     17                     18
                      A                      A                      A
 Frequencies --    885.9257               911.5305               967.8918
 Red. masses --      1.7471                 1.7865                 3.6685
 Frc consts  --      0.8079                 0.8746                 2.0248
 IR Inten    --      9.5585                 4.8534                12.7701

                     19                     20                     21
                      A                      A                      A
 Frequencies --    999.2165              1021.2204              1039.2141
 Red. masses --      2.0415                 5.6808                 1.7414
 Frc consts  --      1.2010                 3.4906                 1.1080
 IR Inten    --      7.1132                71.1543                 1.7228

                     22                     23                     24
                      A                      A                      A
 Frequencies --   1074.5135              1106.1538              1141.1876
 Red. masses --      1.8744                 1.7586                 1.9853
 Frc consts  --      1.2751                 1.2678                 1.5233
 IR Inten    --      6.1447                 2.4558                 0.5943

                     25                     26                     27
                      A                      A                      A
 Frequencies --   1164.5128              1179.5702              1192.6663
 Red. masses --      1.1615                 2.4456                 1.7120
 Frc consts  --      0.9280                 2.0048                 1.4348
 IR Inten    --      0.4037                27.3171                 8.8427

                     28                     29                     30
                      A                      A                      A
 Frequencies --   1243.9153              1258.9465              1272.0870
 Red. masses --      1.4387                 1.7161                 1.3728
 Frc consts  --      1.3116                 1.6025                 1.3088
 IR Inten    --      0.6811                 0.8333                 2.5426

                     31                     32                     33
                      A                      A                      A
 Frequencies --   1290.2447              1327.3100              1335.5598
 Red. masses --      1.4318                 1.5169                 1.3220
 Frc consts  --      1.4043                 1.5746                 1.3894
 IR Inten    --      0.9303                 0.6244                 2.3310

                     34                     35                     36
                      A                      A                      A
 Frequencies --   1348.0371              1367.6440              1406.9066
 Red. masses --      1.4233                 1.4818                 1.2113
 Frc consts  --      1.5238                 1.6330                 1.4127
 IR Inten    --      2.5987                 1.6938                 2.6372

                     37                     38                     39
                      A                      A                      A
 Frequencies --   1487.3332              1494.7018              1505.6811
 Red. masses --      1.0704                 1.0601                 1.0519
 Frc consts  --      1.3951                 1.3954                 1.4051
 IR Inten    --      3.0497                 2.0076                 4.7701

                     40                     41                     42
                      A                      A                      A
 Frequencies --   1528.1707              1844.9202              3018.0568
 Red. masses --      1.0961                12.2607                 1.0557
 Frc consts  --      1.5081                24.5878                 5.6659
 IR Inten    --      0.6062               178.6332                69.3217

                     43                     44                     45
                      A                      A                      A
 Frequencies --   3041.1040              3043.0054              3064.0351
 Red. masses --      1.0437                 1.0530                 1.1080
 Frc consts  --      5.6871                 5.7447                 6.1291
 IR Inten    --     19.5759                26.0039                24.9420

                     46                     47                     48
                      A                      A                      A
 Frequencies --   3066.3637              3074.4519              3083.3570
 Red. masses --      1.0872                 1.0879                 1.1027
 Frc consts  --      6.0230                 6.0586                 6.1768
 IR Inten    --     23.9217                27.4296                19.4206

                     49                     50                     51
                      A                      A                      A
 Frequencies --   3112.1375              3112.6727              3129.6054
 Red. masses --      1.0894                 1.1015                 1.1010
 Frc consts  --      6.2168                 6.2880                 6.3535
 IR Inten    --     41.1857                15.8495                18.0323

 - Thermochemistry -
 -------------------
 Temperature   298.150 Kelvin.  Pressure   1.00000 Atm.
 Atom     1 has atomic number  6 and mass  12.00000

 Molecular mass:   126.06808 amu.
 Principal axes and moments of inertia in atomic units:
                           1         2         3
     Eigenvalues --   781.884831057.783571296.70870
           X            0.99650  -0.07662   0.03329
           Y            0.07810   0.99590  -0.04576
           Z           -0.02964   0.04820   0.99840
 This molecule is an asymmetric top.
 Rotational symmetry number  1.
 Warning -- assumption of classical behavior for rotation
           may cause significant error
 Rotational temperatures (Kelvin)      0.11078     0.08188     0.06680
 Rotational constants (GHZ):           2.30819     1.70615     1.39179
 Zero-point vibrational energy     421110.2 (Joules/Mol)
                                  100.64776 (Kcal/Mol)
 Warning -- explicit consideration of   9 degrees of freedom as
           vibrations may cause significant error
 Vibrational temperatures:    117.35   177.97   284.51   330.47   376.00
          (Kelvin)            460.55   515.88   648.88   804.66   936.42
                             1009.92  1098.05  1173.92  1251.97  1265.12
                             1274.65  1311.49  1392.58  1437.65  1469.31
                             1495.20  1545.98  1591.51  1641.91  1675.47
                             1697.14  1715.98  1789.71  1811.34  1830.25
                             1856.37  1909.70  1921.57  1939.52  1967.73
                             2024.22  2139.94  2150.54  2166.34  2198.69
                             2654.43  4342.31  4375.46  4378.20  4408.46
                             4411.81  4423.44  4436.26  4477.67  4478.44
                             4502.80

 Zero-point correction=                           0.160392 (Hartree/Particle)
 Thermal correction to Energy=                    0.168456
 Thermal correction to Enthalpy=                  0.169401
 Thermal correction to Gibbs Free Energy=         0.127648
 Sum of electronic and zero-point Energies=           -423.033930
 Sum of electronic and thermal Energies=              -423.025866
 Sum of electronic and thermal Enthalpies=            -423.024921
 Sum of electronic and thermal Free Energies=         -423.066674

                     E (Thermal)             CV                S
                      KCal/Mol        Cal/Mol-Kelvin    Cal/Mol-Kelvin
 Total                  105.708             30.630             87.876
 Electronic               0.000              0.000              0.000
 Translational            0.889              2.981             40.409
 Rotational               0.889              2.981             28.463
 Vibrational            103.931             24.669             19.004
 Vibration     1          0.600              1.962              3.853
 Vibration     2          0.610              1.929              3.042
 Vibration     3          0.637              1.843              2.154
 Vibration     4          0.652              1.796              1.881
 Vibration     5          0.669              1.744              1.653
 Vibration     6          0.706              1.635              1.310
 Vibration     7          0.733              1.558              1.128
 Vibration     8          0.810              1.359              0.793
 Vibration     9          0.915              1.119              0.525

 Optimization completed.
    -- Stationary point found.
 Normal termination of Gaussian 09 at Tue Jan 28 04:47:55 2020.
