 Gaussian 09, Revision D.01,
 Gaussian 09:  ES64L-G09RevD.01 24-Apr-2013

 -----------------------------
 # b3lyp 6-31G(2df,p) opt Freq
 -----------------------------

 -----
 titel
 -----
 Symbolic Z-matrix:
 Charge =  0 Multiplicity = 1

 SCF Done:  E(RB3LYP) =  -423.112258683     A.U. after   14 cycles
 Optimization completed.
    -- Stationary point found.
 Normal termination of Gaussian 09 at Mon Jan 27 11:15:49 2020.

 ----------------------------------------------------------------------
 #N Geom=AllCheck Guess=TCheck SCRF=Check GenChk RB3LYP/6-31G(2df,p) Fr
 eq
 ----------------------------------------------------------------------

 Structure from the checkpoint file:  "/scratch/puck/g09_3cabc95c-12a2-4ab7-adb6-fe502805fa67/Gau-22698.chk"
 -----
 titel
 -----
 Charge =  0 Multiplicity = 1

                         Standard orientation:
 ---------------------------------------------------------------------
 Center     Atomic      Atomic             Coordinates (Angstroms)
 Number     Number       Type             X           Y           Z
 ---------------------------------------------------------------------
      1          6           0        4.417982    0.541263    0.118796
      2          6           0        3.377215   -0.007774   -0.124853
      3          6           0        2.098090   -0.647458   -0.399542
      4          6           0        0.930492    0.082181    0.272652
      5          8           0       -0.252514   -0.617983   -0.057363
      6          6           0       -1.407384   -0.080750    0.524582
      7          6           0       -2.689949   -0.821844    0.119494
      8          8           0       -3.294456    0.398562   -0.357172
      9          6           0       -2.070931    1.138095   -0.165578
     10          1           0        5.345237    1.015675    0.324999
     11          1           0        1.913036   -0.682580   -1.479606
     12          1           0        2.107616   -1.686970   -0.051189
     13          1           0        1.075952    0.107593    1.363804
     14          1           0        0.886480    1.123672   -0.079766
     15          1           0       -1.274870    0.044399    1.608227
     16          1           0       -2.517127   -1.547634   -0.684931
     17          1           0       -3.274141   -1.287972    0.920175
     18          1           0       -1.592930    1.407682   -1.117031
     19          1           0       -2.226581    2.039221    0.438293
 ---------------------------------------------------------------------

 SCF Done:  E(RB3LYP) =  -423.112258683     A.U. after    1 cycles

 The electronic state is 1-A.
 Alpha  occ. eigenvalues --  -19.15542 -19.13410 -10.24389 -10.24362 -10.23067
 Alpha  occ. eigenvalues --  -10.23032 -10.21361 -10.18595 -10.17502  -1.05833
 Alpha  occ. eigenvalues --   -1.03081  -0.80719  -0.74591  -0.70922  -0.69545
 Alpha  occ. eigenvalues --   -0.63739  -0.57112  -0.53559  -0.52077  -0.50803
 Alpha  occ. eigenvalues --   -0.48634  -0.46187  -0.44992  -0.42699  -0.41444
 Alpha  occ. eigenvalues --   -0.40614  -0.39519  -0.35931  -0.33086  -0.31240
 Alpha  occ. eigenvalues --   -0.27009  -0.26898  -0.26326  -0.25025
 Alpha virt. eigenvalues --    0.04895   0.05476   0.06799   0.09034   0.10950
 Alpha virt. eigenvalues --    0.11634   0.12658   0.12791   0.14653   0.15674
 Alpha virt. eigenvalues --    0.16440   0.17364   0.18177   0.18604   0.20820

 Mulliken charges:
               1
     1  C   -0.445634
     2  C    0.285533
     3  C   -0.350533
     4  C   -0.062959
     5  O   -0.248989
     6  C    0.090688
     7  C   -0.098878
     8  O   -0.271875
     9  C   -0.093913
    10  H    0.198271
    11  H    0.142491
    12  H    0.141801
    13  H    0.104528
    14  H    0.106609
    15  H    0.078489
    16  H    0.111595
    17  H    0.106195
    18  H    0.102707
    19  H    0.103874
 Sum of Mulliken charges =   0.00000

 Dipole moment (field-independent basis, Debye):
    X=              1.1733    Y=              0.1852    Z=              1.0805  Tot=              1.6058
 Quadrupole moment (field-independent basis, Debye-Ang):
   XX=            -59.4071   YY=            -51.5256   ZZ=            -52.6680
   XY=              3.5124   XZ=             -2.1327   YZ=              0.3525

  Exact polarizability: 104.498  10.534  70.124   1.727   1.584  60.717
 Approx polarizability: 132.692  19.605 104.891   6.672   4.419  91.396

                      1                      2                      3
                      A                      A                      A
 Frequencies --     43.2896                64.6281                83.7587
 Red. masses --      4.7966                 2.9176                 3.2054
 Frc consts  --      0.0053                 0.0072                 0.0132
 IR Inten    --      0.7159                 1.8333                 1.6408

                      4                      5                      6
                      A                      A                      A
 Frequencies --    102.7393               143.0840               212.4556
 Red. masses --      2.9268                 3.0259                 3.4994
 Frc consts  --      0.0182                 0.0365                 0.0931
 IR Inten    --      1.3543                 3.0862                 1.1031

                      7                      8                      9
                      A                      A                      A
 Frequencies --    316.6561               354.5063               395.4087
 Red. masses --      4.5983                 3.2092                 3.7902
 Frc consts  --      0.2717                 0.2376                 0.3491
 IR Inten    --      1.1898                 5.0287                 4.5310

                     10                     11                     12
                      A                      A                      A
 Frequencies --    461.2211               539.7186               625.4613
 Red. masses --      2.5400                 4.6361                 1.2076
 Frc consts  --      0.3183                 0.7957                 0.2783
 IR Inten    --      4.6079                 5.4256                44.3054

                     13                     14                     15
                      A                      A                      A
 Frequencies --    652.0557               742.3514               798.9155
 Red. masses --      1.2317                 3.6679                 1.1618
 Frc consts  --      0.3086                 1.1909                 0.4369
 IR Inten    --     41.0878                 5.6555                 0.0206

                     16                     17                     18
                      A                      A                      A
 Frequencies --    872.1388               887.7875               966.2221
 Red. masses --      1.5911                 2.1224                 4.0154
 Frc consts  --      0.7131                 0.9856                 2.2087
 IR Inten    --      4.7911                10.3618                 8.1036

                     19                     20                     21
                      A                      A                      A
 Frequencies --    991.5920              1023.8114              1039.5146
 Red. masses --      3.5877                 3.8682                 5.3002
 Frc consts  --      2.0784                 2.3889                 3.3744
 IR Inten    --      6.3879                36.4139                58.6603

                     22                     23                     24
                      A                      A                      A
 Frequencies --   1066.5187              1073.2805              1090.7016
 Red. masses --      3.6677                 3.4134                 1.5829
 Frc consts  --      2.4580                 2.3166                 1.1095
 IR Inten    --     20.9494                 9.4476                 1.7244

                     25                     26                     27
                      A                      A                      A
 Frequencies --   1138.4258              1157.0584              1165.5207
 Red. masses --      2.5137                 1.0984                 1.5706
 Frc consts  --      1.9194                 0.8664                 1.2571
 IR Inten    --     40.3793                 6.8274                82.0556

                     28                     29                     30
                      A                      A                      A
 Frequencies --   1210.8266              1229.9340              1275.8944
 Red. masses --      2.2295                 1.2226                 1.4351
 Frc consts  --      1.9258                 1.0897                 1.3765
 IR Inten    --    134.0587                 5.5007                 1.6014

                     31                     32                     33
                      A                      A                      A
 Frequencies --   1301.4695              1303.8720              1307.9657
 Red. masses --      1.2006                 1.2075                 1.3787
 Frc consts  --      1.1981                 1.2095                 1.3897
 IR Inten    --      0.4849                 5.4046                11.9077

                     34                     35                     36
                      A                      A                      A
 Frequencies --   1348.2730              1394.6757              1442.4345
 Red. masses --      1.2882                 1.4242                 1.4749
 Frc consts  --      1.3798                 1.6321                 1.8080
 IR Inten    --     24.2432                41.1114                 4.5352

                     37                     38                     39
                      A                      A                      A
 Frequencies --   1477.4836              1498.8715              1524.3086
 Red. masses --      1.0851                 1.0799                 1.0916
 Frc consts  --      1.3956                 1.4294                 1.4944
 IR Inten    --      1.9619                 0.5923                 3.4167

                     40                     41                     42
                      A                      A                      A
 Frequencies --   1527.1651              2242.8864              2980.1941
 Red. masses --      1.1133                 5.9238                 1.0552
 Frc consts  --      1.5298                17.5577                 5.5217
 IR Inten    --      1.9520                 2.5539                20.7205

                     43                     44                     45
                      A                      A                      A
 Frequencies --   3005.0593              3007.2568              3015.6380
 Red. masses --      1.0850                 1.0590                 1.1015
 Frc consts  --      5.7728                 5.6426                 5.9020
 IR Inten    --     38.7732                59.5291                52.1242

                     46                     47                     48
                      A                      A                      A
 Frequencies --   3024.9909              3036.6424              3066.3161
 Red. masses --      1.0592                 1.0581                 1.1076
 Frc consts  --      5.7104                 5.7487                 6.1358
 IR Inten    --     18.6794                15.1918                37.3961

                     49                     50                     51
                      A                      A                      A
 Frequencies --   3074.7024              3076.6876              3506.7653
 Red. masses --      1.1031                 1.1102                 1.1627
 Frc consts  --      6.1445                 6.1919                 8.4240
 IR Inten    --     15.1801                58.4487                68.9342

 - Thermochemistry -
 -------------------
 Temperature   298.150 Kelvin.  Pressure   1.00000 Atm.
 Atom     1 has atomic number  6 and mass  12.00000

 Molecular mass:   126.06808 amu.
 Principal axes and moments of inertia in atomic units:
                           1         2         3
     Eigenvalues --   269.791383052.939603189.83611
           X            0.99999   0.00381  -0.00276
           Y           -0.00376   0.99981   0.01935
           Z            0.00283  -0.01934   0.99981
 This molecule is an asymmetric top.
 Rotational symmetry number  1.
 Rotational temperatures (Kelvin)      0.32104     0.02837     0.02715
 Rotational constants (GHZ):           6.68940     0.59115     0.56578
 Zero-point vibrational energy     412048.5 (Joules/Mol)
                                   98.48196 (Kcal/Mol)
 Warning -- explicit consideration of  11 degrees of freedom as
           vibrations may cause significant error
 Vibrational temperatures:     62.28    92.99   120.51   147.82   205.87
          (Kelvin)            305.68   455.60   510.05   568.90   663.59
                              776.53   899.90   938.16  1068.08  1149.46
                             1254.81  1277.33  1390.18  1426.68  1473.03
                             1495.63  1534.48  1544.21  1569.27  1637.94
                             1664.75  1676.92  1742.11  1769.60  1835.73
                             1872.52  1875.98  1881.87  1939.86  2006.62
                             2075.34  2125.77  2156.54  2193.14  2197.25
                             3227.01  4287.83  4323.60  4326.77  4338.83
                             4352.28  4369.05  4411.74  4423.81  4426.66
                             5045.45

 Zero-point correction=                           0.156941 (Hartree/Particle)
 Thermal correction to Energy=                    0.166619
 Thermal correction to Enthalpy=                  0.167563
 Thermal correction to Gibbs Free Energy=         0.120760
 Sum of electronic and zero-point Energies=           -422.955318
 Sum of electronic and thermal Energies=              -422.945640
 Sum of electronic and thermal Enthalpies=            -422.944696
 Sum of electronic and thermal Free Energies=         -422.991498

                     E (Thermal)             CV                S
                      KCal/Mol        Cal/Mol-Kelvin    Cal/Mol-Kelvin
 Total                  104.555             33.809             98.504
 Electronic               0.000              0.000              0.000
 Translational            0.889              2.981             40.409
 Rotational               0.889              2.981             29.353
 Vibrational            102.777             27.848             28.742
 Vibration     1          0.595              1.980              5.103
 Vibration     2          0.597              1.971              4.311
 Vibration     3          0.601              1.960              3.801
 Vibration     4          0.605              1.947              3.402
 Vibration     5          0.616              1.910              2.762
 Vibration     6          0.643              1.822              2.022
 Vibration     7          0.704              1.642              1.327
 Vibration     8          0.730              1.566              1.146
 Vibration     9          0.762              1.480              0.980
 Vibration    10          0.819              1.336              0.763
 Vibration    11          0.895              1.162              0.566

 Normal termination of Gaussian 09 at Mon Jan 27 11:54:16 2020.
