 Gaussian 09, Revision D.01,
 Gaussian 09:  ES64L-G09RevD.01 24-Apr-2013

 -----------------------------
 # b3lyp 6-31G(2df,p) opt Freq
 -----------------------------

 -----
 titel
 -----
 Symbolic Z-matrix:
 Charge =  0 Multiplicity = 1

 SCF Done:  E(RB3LYP) =  -423.163990026     A.U. after   12 cycles
 Optimization completed.
    -- Stationary point found.
 Normal termination of Gaussian 09 at Mon Jan 27 16:58:13 2020.

 ----------------------------------------------------------------------
 #N Geom=AllCheck Guess=TCheck SCRF=Check GenChk RB3LYP/6-31G(2df,p) Fr
 eq
 ----------------------------------------------------------------------

 Structure from the checkpoint file:  "/scratch/puck/g09_2b4c6e9f-6b32-4228-9d27-bee0bbad0ecb/Gau-85030.chk"
 -----
 titel
 -----
 Charge =  0 Multiplicity = 1

                         Standard orientation:
 ---------------------------------------------------------------------
 Center     Atomic      Atomic             Coordinates (Angstroms)
 Number     Number       Type             X           Y           Z
 ---------------------------------------------------------------------
      1          8           0        1.075900    1.687509   -0.922744
      2          6           0        0.268299    0.856091   -0.179600
      3          6           0       -0.389729    0.947147    1.185240
      4          6           0        0.099401   -0.456290    1.554128
      5          6           0        0.499587   -0.675567    0.067349
      6          8           0        1.802321   -1.172665   -0.082717
      7          6           0       -0.612495   -1.381843   -0.720951
      8          6           0       -1.833072   -0.436807   -0.552381
      9          6           0       -1.212035    0.898159   -0.121358
     10          1           0        1.965321    1.626453   -0.553315
     11          1           0       -0.495991    1.789203    1.858920
     12          1           0        0.993793   -0.420825    2.181016
     13          1           0       -0.616769   -1.166368    1.982551
     14          1           0        1.964273   -1.293323   -1.025380
     15          1           0       -0.320991   -1.446669   -1.778275
     16          1           0       -0.796444   -2.398846   -0.361819
     17          1           0       -2.390356   -0.327936   -1.487101
     18          1           0       -2.537012   -0.815687    0.196180
     19          1           0       -1.711337    1.829901   -0.363657
 ---------------------------------------------------------------------

 SCF Done:  E(RB3LYP) =  -423.163990026     A.U. after    1 cycles

 The electronic state is 1-A.
 Alpha  occ. eigenvalues --  -19.15009 -19.14443 -10.23227 -10.22462 -10.18513
 Alpha  occ. eigenvalues --  -10.18416 -10.18179 -10.17992 -10.17838  -1.03987
 Alpha  occ. eigenvalues --   -1.02222  -0.89756  -0.75823  -0.72825  -0.64962
 Alpha  occ. eigenvalues --   -0.60101  -0.55824  -0.55071  -0.53522  -0.47594
 Alpha  occ. eigenvalues --   -0.47054  -0.43377  -0.41050  -0.40767  -0.39630
 Alpha  occ. eigenvalues --   -0.38580  -0.37262  -0.35006  -0.34359  -0.31683
 Alpha  occ. eigenvalues --   -0.30623  -0.27894  -0.24524  -0.23211
 Alpha virt. eigenvalues --    0.06405   0.09539   0.10253   0.10978   0.12768
 Alpha virt. eigenvalues --    0.14726   0.15158   0.15943   0.16662   0.17869
 Alpha virt. eigenvalues --    0.18405   0.19760   0.21130   0.22031   0.22660

 Mulliken charges:
               1
     1  O   -0.462274
     2  C    0.322385
     3  C   -0.162938
     4  C   -0.262706
     5  C    0.342936
     6  O   -0.501663
     7  C   -0.278139
     8  C   -0.240753
     9  C   -0.091248
    10  H    0.287385
    11  H    0.085475
    12  H    0.108889
    13  H    0.088502
    14  H    0.278048
    15  H    0.088190
    16  H    0.101606
    17  H    0.102877
    18  H    0.103450
    19  H    0.089977
 Sum of Mulliken charges =   0.00000

 Dipole moment (field-independent basis, Debye):
    X=             -0.0335    Y=             -0.3297    Z=             -0.2975  Tot=              0.4454
 Quadrupole moment (field-independent basis, Debye-Ang):
   XX=            -50.8182   YY=            -54.5210   ZZ=            -52.3919
   XY=              1.5143   XZ=             -1.5538   YZ=              3.8758

  Exact polarizability:  76.405  -0.101  72.171   0.421   1.747  72.551
 Approx polarizability: 111.954  -0.672 102.964  -1.775  -0.448 110.707

                      1                      2                      3
                      A                      A                      A
 Frequencies --    180.0374               196.1626               219.4279
 Red. masses --      2.9341                 2.3165                 1.2133
 Frc consts  --      0.0560                 0.0525                 0.0344
 IR Inten    --     31.1185                 1.7187               112.3090

                      4                      5                      6
                      A                      A                      A
 Frequencies --    238.8914               328.8817               385.9001
 Red. masses --      2.3563                 2.3446                 3.0034
 Frc consts  --      0.0792                 0.1494                 0.2635
 IR Inten    --     20.5095                15.1194                12.0490

                      7                      8                      9
                      A                      A                      A
 Frequencies --    404.4803               455.2006               483.4077
 Red. masses --      1.2910                 2.8666                 3.4324
 Frc consts  --      0.1244                 0.3500                 0.4726
 IR Inten    --     24.4170                 2.0183                 7.2220

                     10                     11                     12
                      A                      A                      A
 Frequencies --    578.0391               606.0703               657.0930
 Red. masses --      4.5820                 3.0434                 4.0490
 Frc consts  --      0.9020                 0.6587                 1.0300
 IR Inten    --      3.4871                 9.4873                 2.6063

                     13                     14                     15
                      A                      A                      A
 Frequencies --    715.7941               753.0328               828.8898
 Red. masses --      3.8932                 2.4524                 2.1827
 Frc consts  --      1.1752                 0.8194                 0.8836
 IR Inten    --      6.8030                 6.8043                 0.9041

                     16                     17                     18
                      A                      A                      A
 Frequencies --    857.9590               919.7003               926.2828
 Red. masses --      1.6532                 1.9774                 2.1201
 Frc consts  --      0.7170                 0.9854                 1.0717
 IR Inten    --      4.1117                 2.0510                 3.0096

                     19                     20                     21
                      A                      A                      A
 Frequencies --    937.2388               972.0632               985.5802
 Red. masses --      2.1615                 1.8291                 1.9214
 Frc consts  --      1.1187                 1.0183                 1.0996
 IR Inten    --      2.1842                18.2242                 7.7354

                     22                     23                     24
                      A                      A                      A
 Frequencies --   1024.6163              1040.4682              1078.6091
 Red. masses --      1.6923                 1.7405                 2.2144
 Frc consts  --      1.0468                 1.1101                 1.5179
 IR Inten    --      7.5557                 6.6584                18.4610

                     25                     26                     27
                      A                      A                      A
 Frequencies --   1098.7118              1140.2108              1154.5579
 Red. masses --      2.0564                 1.6372                 1.7228
 Frc consts  --      1.4626                 1.2540                 1.3531
 IR Inten    --      2.2242                25.3652                15.7624

                     28                     29                     30
                      A                      A                      A
 Frequencies --   1177.1185              1205.4171              1238.3140
 Red. masses --      1.4336                 1.7530                 2.0088
 Frc consts  --      1.1703                 1.5007                 1.8149
 IR Inten    --     16.2415                 2.7269                33.8063

                     31                     32                     33
                      A                      A                      A
 Frequencies --   1256.7148              1276.1040              1289.5461
 Red. masses --      1.6097                 1.3922                 2.0536
 Frc consts  --      1.4979                 1.3358                 2.0120
 IR Inten    --     18.3478                12.9596                67.7239

                     34                     35                     36
                      A                      A                      A
 Frequencies --   1303.7895              1326.6964              1350.8261
 Red. masses --      1.6866                 1.3977                 1.8022
 Frc consts  --      1.6892                 1.4495                 1.9376
 IR Inten    --     29.7910                27.5595               120.0826

                     37                     38                     39
                      A                      A                      A
 Frequencies --   1390.7504              1479.4414              1486.8316
 Red. masses --      1.7120                 1.3276                 1.1937
 Frc consts  --      1.9509                 1.7121                 1.5548
 IR Inten    --     15.2095                 5.6723                 2.3144

                     40                     41                     42
                      A                      A                      A
 Frequencies --   1494.4833              1512.3433              3012.8262
 Red. masses --      1.6986                 1.3016                 1.0669
 Frc consts  --      2.2353                 1.7540                 5.7057
 IR Inten    --     15.8560                17.4294                40.4120

                     43                     44                     45
                      A                      A                      A
 Frequencies --   3036.0856              3046.5293              3079.6347
 Red. masses --      1.0620                 1.0632                 1.0951
 Frc consts  --      5.7677                 5.8141                 6.1191
 IR Inten    --     37.3977                39.4622                18.0511

                     46                     47                     48
                      A                      A                      A
 Frequencies --   3092.2715              3104.8065              3174.5800
 Red. masses --      1.1025                 1.1031                 1.0901
 Frc consts  --      6.2114                 6.2653                 6.4728
 IR Inten    --     39.3923                20.3510                 5.3434

                     49                     50                     51
                      A                      A                      A
 Frequencies --   3184.2114              3777.7709              3794.8025
 Red. masses --      1.0926                 1.0656                 1.0656
 Frc consts  --      6.5272                 8.9601                 9.0409
 IR Inten    --     24.9744                22.7451                16.2223

 - Thermochemistry -
 -------------------
 Temperature   298.150 Kelvin.  Pressure   1.00000 Atm.
 Atom     1 has atomic number  8 and mass  15.99491

 Molecular mass:   126.06808 amu.
 Principal axes and moments of inertia in atomic units:
                           1         2         3
     Eigenvalues --   857.49794 905.288701125.91811
           X            0.98654   0.16217   0.02072
           Y           -0.16312   0.98488   0.05837
           Z           -0.01094  -0.06097   0.99808
 This molecule is an asymmetric top.
 Rotational symmetry number  1.
 Warning -- assumption of classical behavior for rotation
           may cause significant error
 Rotational temperatures (Kelvin)      0.10101     0.09568     0.07693
 Rotational constants (GHZ):           2.10466     1.99355     1.60291
 Zero-point vibrational energy     420243.3 (Joules/Mol)
                                  100.44057 (Kcal/Mol)
 Warning -- explicit consideration of  11 degrees of freedom as
           vibrations may cause significant error
 Vibrational temperatures:    259.03   282.23   315.71   343.71   473.19
          (Kelvin)            555.22   581.96   654.93   695.51   831.67
                              872.00   945.41  1029.87  1083.44  1192.59
                             1234.41  1323.24  1332.71  1348.48  1398.58
                             1418.03  1474.19  1497.00  1551.88  1580.80
                             1640.51  1661.15  1693.61  1734.32  1781.66
                             1808.13  1836.03  1855.37  1875.86  1908.82
                             1943.54  2000.98  2128.58  2139.22  2150.23
                             2175.92  4334.78  4368.24  4383.27  4430.90
                             4449.08  4467.12  4567.51  4581.36  5435.36
                             5459.87

 Zero-point correction=                           0.160062 (Hartree/Particle)
 Thermal correction to Energy=                    0.167920
 Thermal correction to Enthalpy=                  0.168864
 Thermal correction to Gibbs Free Energy=         0.128404
 Sum of electronic and zero-point Energies=           -423.003928
 Sum of electronic and thermal Energies=              -422.996070
 Sum of electronic and thermal Enthalpies=            -422.995126
 Sum of electronic and thermal Free Energies=         -423.035586

                     E (Thermal)             CV                S
                      KCal/Mol        Cal/Mol-Kelvin    Cal/Mol-Kelvin
 Total                  105.371             32.040             85.156
 Electronic               0.000              0.000              0.000
 Translational            0.889              2.981             40.409
 Rotational               0.889              2.981             28.260
 Vibrational            103.594             26.078             16.487
 Vibration     1          0.629              1.867              2.328
 Vibration     2          0.636              1.845              2.169
 Vibration     3          0.647              1.811              1.964
 Vibration     4          0.657              1.781              1.811
 Vibration     5          0.712              1.618              1.266
 Vibration     6          0.755              1.500              1.016
 Vibration     7          0.770              1.460              0.946
 Vibration     8          0.814              1.349              0.780
 Vibration     9          0.840              1.287              0.701
 Vibration    10          0.935              1.079              0.489
 Vibration    11          0.965              1.019              0.439

 Optimization completed.
    -- Stationary point found.
 Normal termination of Gaussian 09 at Mon Jan 27 17:45:33 2020.
