 Gaussian 09, Revision D.01,
 Gaussian 09:  ES64L-G09RevD.01 24-Apr-2013

 -----------------------------
 # b3lyp 6-31G(2df,p) opt Freq
 -----------------------------

 -----
 titel
 -----
 Symbolic Z-matrix:
 Charge =  0 Multiplicity = 1

 SCF Done:  E(RB3LYP) =  -423.133852876     A.U. after   14 cycles
 Optimization completed.
    -- Stationary point found.
 Normal termination of Gaussian 09 at Mon Jan 27 22:05:15 2020.

 ----------------------------------------------------------------------
 #N Geom=AllCheck Guess=TCheck SCRF=Check GenChk RB3LYP/6-31G(2df,p) Fr
 eq
 ----------------------------------------------------------------------

 Structure from the checkpoint file:  "/scratch/puck/g09_84e0146a-35e9-4f2b-87cd-62df71047d5f/Gau-15067.chk"
 -----
 titel
 -----
 Charge =  0 Multiplicity = 1

                         Standard orientation:
 ---------------------------------------------------------------------
 Center     Atomic      Atomic             Coordinates (Angstroms)
 Number     Number       Type             X           Y           Z
 ---------------------------------------------------------------------
      1          6           0        2.594049   -0.008280   -0.396509
      2          6           0        1.116233   -0.123786   -0.177187
      3          6           0        0.464575   -1.035505    0.867278
      4          8           0       -0.809747   -0.482558    1.223402
      5          6           0       -0.995421   -0.223825   -0.215623
      6          6           0       -2.425486   -0.179541   -0.648467
      7          6           0        0.143291   -1.245333   -0.571845
      8          6           0        0.029227    0.927451   -0.435509
      9          8           0       -0.078713    2.045574    0.396685
     10          1           0        2.825274    0.251145   -1.435720
     11          1           0        3.019770    0.770903    0.245094
     12          1           0        3.109017   -0.947596   -0.167198
     13          1           0        1.000412   -1.632728    1.593471
     14          1           0       -2.934514    0.659073   -0.161756
     15          1           0       -2.490977   -0.037774   -1.731572
     16          1           0       -2.945906   -1.103535   -0.381942
     17          1           0        0.219873   -2.085358   -1.247547
     18          1           0        0.042346    1.269911   -1.474437
     19          1           0       -0.296420    1.684744    1.268080
 ---------------------------------------------------------------------

 SCF Done:  E(RB3LYP) =  -423.133852876     A.U. after    1 cycles

 The electronic state is 1-A.
 Alpha  occ. eigenvalues --  -19.14172 -19.12857 -10.24523 -10.24052 -10.22952
 Alpha  occ. eigenvalues --  -10.19848 -10.19451 -10.18463 -10.18377  -1.06672
 Alpha  occ. eigenvalues --   -1.00912  -0.86120  -0.76342  -0.72125  -0.68525
 Alpha  occ. eigenvalues --   -0.61510  -0.56543  -0.53346  -0.49974  -0.49727
 Alpha  occ. eigenvalues --   -0.46082  -0.44575  -0.42369  -0.40791  -0.40514
 Alpha  occ. eigenvalues --   -0.38929  -0.37700  -0.36949  -0.35943  -0.34950
 Alpha  occ. eigenvalues --   -0.29047  -0.26446  -0.26119  -0.23115
 Alpha virt. eigenvalues --    0.08166   0.09860   0.10409   0.11710   0.11969
 Alpha virt. eigenvalues --    0.13234   0.13694   0.14951   0.15658   0.17310
 Alpha virt. eigenvalues --    0.17622   0.18198   0.19141   0.20145   0.20660

 Mulliken charges:
               1
     1  C   -0.516969
     2  C    0.236920
     3  C    0.039556
     4  O   -0.343377
     5  C    0.360897
     6  C   -0.516200
     7  C   -0.253948
     8  C    0.092247
     9  O   -0.450726
    10  H    0.122795
    11  H    0.133998
    12  H    0.118739
    13  H    0.108944
    14  H    0.139151
    15  H    0.125795
    16  H    0.132266
    17  H    0.100735
    18  H    0.085597
    19  H    0.283582
 Sum of Mulliken charges =   0.00000

 Dipole moment (field-independent basis, Debye):
    X=              0.6046    Y=             -1.6811    Z=             -1.0324  Tot=              2.0634
 Quadrupole moment (field-independent basis, Debye-Ang):
   XX=            -50.5736   YY=            -56.7029   ZZ=            -51.5949
   XY=             -1.6192   XZ=              2.2579   YZ=              0.7344

  Exact polarizability:  84.875  -0.550  71.276   1.535  -0.485  67.844
 Approx polarizability: 110.148   0.409 108.558  -0.046  -0.032 109.922

                      1                      2                      3
                      A                      A                      A
 Frequencies --    174.3026               181.5760               188.3633
 Red. masses --      2.3564                 1.2111                 1.2593
 Frc consts  --      0.0422                 0.0235                 0.0263
 IR Inten    --      3.3457                 0.3462                 0.3802

                      4                      5                      6
                      A                      A                      A
 Frequencies --    213.0835               225.2672               253.9576
 Red. masses --      2.6550                 2.0851                 3.4698
 Frc consts  --      0.0710                 0.0623                 0.1318
 IR Inten    --      0.8699                 0.0522                 3.2765

                      7                      8                      9
                      A                      A                      A
 Frequencies --    339.2354               390.9829               526.1771
 Red. masses --      2.5888                 3.2733                 1.1267
 Frc consts  --      0.1755                 0.2948                 0.1838
 IR Inten    --      0.3945                 4.4422                63.6579

                     10                     11                     12
                      A                      A                      A
 Frequencies --    560.2732               590.4968               611.2327
 Red. masses --      3.9510                 3.8627                 4.3698
 Frc consts  --      0.7307                 0.7935                 0.9619
 IR Inten    --      0.6794                 4.8687                 3.5734

                     13                     14                     15
                      A                      A                      A
 Frequencies --    722.1779               763.9277               784.6418
 Red. masses --      3.3081                 2.4617                 4.1294
 Frc consts  --      1.0165                 0.8464                 1.4979
 IR Inten    --     13.1885                 2.5975                37.0821

                     16                     17                     18
                      A                      A                      A
 Frequencies --    825.4152               840.0978               884.4436
 Red. masses --      3.0976                 1.5075                 2.1793
 Frc consts  --      1.2434                 0.6269                 1.0044
 IR Inten    --     12.4164                 2.6195                13.2308

                     19                     20                     21
                      A                      A                      A
 Frequencies --    897.8993               924.6338               965.0110
 Red. masses --      2.4276                 2.3487                 1.6077
 Frc consts  --      1.1531                 1.1831                 0.8821
 IR Inten    --      6.1707                 8.1859                27.3322

                     22                     23                     24
                      A                      A                      A
 Frequencies --   1000.0319              1056.4968              1076.4553
 Red. masses --      2.7274                 1.7213                 1.8770
 Frc consts  --      1.6071                 1.1320                 1.2815
 IR Inten    --     27.5183                20.9403                 8.1160

                     25                     26                     27
                      A                      A                      A
 Frequencies --   1100.8046              1122.8146              1141.9243
 Red. masses --      1.9811                 1.8291                 2.4137
 Frc consts  --      1.4144                 1.3587                 1.8544
 IR Inten    --     74.5941                14.3204                60.2395

                     28                     29                     30
                      A                      A                      A
 Frequencies --   1156.4229              1183.9859              1253.9511
 Red. masses --      2.4358                 1.6220                 1.8689
 Frc consts  --      1.9192                 1.3397                 1.7314
 IR Inten    --      4.5506                 3.4493                17.1665

                     31                     32                     33
                      A                      A                      A
 Frequencies --   1277.6977              1298.8420              1343.3633
 Red. masses --      1.7941                 2.5747                 2.3985
 Frc consts  --      1.7257                 2.5591                 2.5502
 IR Inten    --      7.2123                 3.5644                16.3540

                     34                     35                     36
                      A                      A                      A
 Frequencies --   1405.6730              1413.2835              1427.1250
 Red. masses --      1.5703                 1.4381                 1.8447
 Frc consts  --      1.8281                 1.6924                 2.2136
 IR Inten    --      1.7238                11.7117                19.0179

                     37                     38                     39
                      A                      A                      A
 Frequencies --   1449.1214              1477.7170              1486.5725
 Red. masses --      1.7934                 1.0524                 1.0453
 Frc consts  --      2.2188                 1.3540                 1.3610
 IR Inten    --     82.2331                 7.1082                 4.4680

                     40                     41                     42
                      A                      A                      A
 Frequencies --   1488.2564              1498.4115              3025.4311
 Red. masses --      1.0557                 1.0586                 1.0351
 Frc consts  --      1.3776                 1.4004                 5.5820
 IR Inten    --      3.3972                 7.5676                37.3294

                     43                     44                     45
                      A                      A                      A
 Frequencies --   3039.2196              3080.2063              3088.1302
 Red. masses --      1.0350                 1.0866                 1.1009
 Frc consts  --      5.6326                 6.0739                 6.1856
 IR Inten    --     14.2720                23.3055                23.2224

                     46                     47                     48
                      A                      A                      A
 Frequencies --   3094.2910              3110.6248              3119.1048
 Red. masses --      1.1007                 1.1005                 1.1019
 Frc consts  --      6.2092                 6.2741                 6.3163
 IR Inten    --     16.7210                11.4742                13.7124

                     49                     50                     51
                      A                      A                      A
 Frequencies --   3202.4910              3218.6786              3742.5750
 Red. masses --      1.0906                 1.1020                 1.0644
 Frc consts  --      6.5899                 6.7265                 8.7843
 IR Inten    --     12.8501                 8.2222                28.4464

 - Thermochemistry -
 -------------------
 Temperature   298.150 Kelvin.  Pressure   1.00000 Atm.
 Atom     1 has atomic number  6 and mass  12.00000

 Molecular mass:   126.06808 amu.
 Principal axes and moments of inertia in atomic units:
                           1         2         3
     Eigenvalues --   682.446101093.331241327.94061
           X            0.99983  -0.00928   0.01592
           Y            0.00913   0.99991   0.00977
           Z           -0.01601  -0.00963   0.99983
 This molecule is an asymmetric top.
 Rotational symmetry number  1.
 Warning -- assumption of classical behavior for rotation
           may cause significant error
 Rotational temperatures (Kelvin)      0.12692     0.07922     0.06522
 Rotational constants (GHZ):           2.64452     1.65068     1.35905
 Zero-point vibrational energy     414164.5 (Joules/Mol)
                                   98.98769 (Kcal/Mol)
 Warning -- explicit consideration of  12 degrees of freedom as
           vibrations may cause significant error
 Vibrational temperatures:    250.78   261.25   271.01   306.58   324.11
          (Kelvin)            365.39   488.08   562.54   757.05   806.11
                              849.59   879.43  1039.05  1099.12  1128.92
                             1187.59  1208.71  1272.52  1291.88  1330.34
                             1388.43  1438.82  1520.06  1548.78  1583.81
                             1615.48  1642.97  1663.83  1703.49  1804.15
                             1838.32  1868.74  1932.80  2022.45  2033.40
                             2053.31  2084.96  2126.10  2138.84  2141.27
                             2155.88  4352.92  4372.75  4431.72  4443.12
                             4451.99  4475.49  4487.69  4607.66  4630.95
                             5384.72

 Zero-point correction=                           0.157747 (Hartree/Particle)
 Thermal correction to Energy=                    0.166207
 Thermal correction to Enthalpy=                  0.167151
 Thermal correction to Gibbs Free Energy=         0.125358
 Sum of electronic and zero-point Energies=           -422.976106
 Sum of electronic and thermal Energies=              -422.967646
 Sum of electronic and thermal Enthalpies=            -422.966702
 Sum of electronic and thermal Free Energies=         -423.008494

                     E (Thermal)             CV                S
                      KCal/Mol        Cal/Mol-Kelvin    Cal/Mol-Kelvin
 Total                  104.296             33.221             87.960
 Electronic               0.000              0.000              0.000
 Translational            0.889              2.981             40.409
 Rotational               0.889              2.981             28.384
 Vibrational            102.519             27.259             19.167
 Vibration     1          0.627              1.874              2.389
 Vibration     2          0.630              1.865              2.312
 Vibration     3          0.633              1.856              2.244
 Vibration     4          0.644              1.821              2.017
 Vibration     5          0.650              1.803              1.916
 Vibration     6          0.665              1.756              1.703
 Vibration     7          0.719              1.597              1.216
 Vibration     8          0.759              1.489              0.996
 Vibration     9          0.881              1.192              0.596
 Vibration    10          0.916              1.117              0.523
 Vibration    11          0.948              1.052              0.466
 Vibration    12          0.970              1.008              0.431

 Optimization completed.
    -- Stationary point found.
 Normal termination of Gaussian 09 at Mon Jan 27 22:56:06 2020.
