 Gaussian 09, Revision D.01,
 Gaussian 09:  ES64L-G09RevD.01 24-Apr-2013

 -----------------------------
 # b3lyp 6-31G(2df,p) opt Freq
 -----------------------------

 -----
 titel
 -----
 Symbolic Z-matrix:
 Charge =  0 Multiplicity = 1

 SCF Done:  E(RB3LYP) =  -423.195442372     A.U. after   14 cycles
 Optimization completed.
    -- Stationary point found.
 Normal termination of Gaussian 09 at Mon Jan 27 14:10:22 2020.

 ----------------------------------------------------------------------
 #N Geom=AllCheck Guess=TCheck SCRF=Check GenChk RB3LYP/6-31G(2df,p) Fr
 eq
 ----------------------------------------------------------------------

 Structure from the checkpoint file:  "/scratch/puck/g09_ebd8d796-9008-4a30-b823-afe9e7a27adb/Gau-31510.chk"
 -----
 titel
 -----
 Charge =  0 Multiplicity = 1

                         Standard orientation:
 ---------------------------------------------------------------------
 Center     Atomic      Atomic             Coordinates (Angstroms)
 Number     Number       Type             X           Y           Z
 ---------------------------------------------------------------------
      1          6           0        2.670539   -0.887873    0.046505
      2          6           0        1.557471    0.139308   -0.051046
      3          8           0        1.685348    1.185990   -0.639622
      4          6           0        0.235002   -0.231238    0.642309
      5          8           0       -0.516400    0.908724    1.015931
      6          6           0       -1.387674    1.273419   -0.061183
      7          6           0       -1.708249   -0.026451   -0.774675
      8          6           0       -2.088556   -1.186499    0.109285
      9          6           0       -0.655438   -1.011237   -0.325030
     10          1           0        2.300746   -1.898226   -0.159483
     11          1           0        3.476360   -0.633968   -0.643038
     12          1           0        3.062971   -0.898297    1.070668
     13          1           0        0.453003   -0.788308    1.563102
     14          1           0       -2.257947    1.763508    0.388347
     15          1           0       -0.889408    1.973905   -0.741571
     16          1           0       -2.048190    0.009132   -1.802437
     17          1           0       -2.337098   -0.979846    1.145727
     18          1           0       -2.645477   -2.001036   -0.340269
     19          1           0       -0.205105   -1.721151   -1.008516
 ---------------------------------------------------------------------

 SCF Done:  E(RB3LYP) =  -423.195442372     A.U. after    1 cycles

 The electronic state is 1-A.
 Alpha  occ. eigenvalues --  -19.14022 -19.13018 -10.26717 -10.23965 -10.22430
 Alpha  occ. eigenvalues --  -10.20256 -10.19677 -10.19226 -10.19145  -1.05154
 Alpha  occ. eigenvalues --   -1.02817  -0.86364  -0.77095  -0.72689  -0.66398
 Alpha  occ. eigenvalues --   -0.59010  -0.57895  -0.54181  -0.51271  -0.48715
 Alpha  occ. eigenvalues --   -0.46399  -0.45464  -0.43246  -0.42807  -0.40809
 Alpha  occ. eigenvalues --   -0.39630  -0.39319  -0.37227  -0.35169  -0.31890
 Alpha  occ. eigenvalues --   -0.30337  -0.29138  -0.27200  -0.23084
 Alpha virt. eigenvalues --   -0.01451   0.08145   0.10399   0.11531   0.12701
 Alpha virt. eigenvalues --    0.13410   0.13676   0.14557   0.16045   0.16854
 Alpha virt. eigenvalues --    0.17417   0.18321   0.20130   0.20267   0.21306

 Mulliken charges:
               1
     1  C   -0.486241
     2  C    0.370301
     3  O   -0.295263
     4  C   -0.003644
     5  O   -0.256925
     6  C   -0.098615
     7  C   -0.042078
     8  C   -0.305367
     9  C   -0.054372
    10  H    0.135477
    11  H    0.144987
    12  H    0.148588
    13  H    0.090012
    14  H    0.104577
    15  H    0.120669
    16  H    0.094054
    17  H    0.125055
    18  H    0.113851
    19  H    0.094935
 Sum of Mulliken charges =   0.00000

 Dipole moment (field-independent basis, Debye):
    X=             -0.5511    Y=             -2.8350    Z=             -0.2304  Tot=              2.8973
 Quadrupole moment (field-independent basis, Debye-Ang):
   XX=            -50.3096   YY=            -54.5086   ZZ=            -53.3736
   XY=             -4.4066   XZ=              3.5072   YZ=              0.2306

  Exact polarizability:  86.524  -2.288  75.251   0.318  -3.998  63.576
 Approx polarizability: 110.281  -2.093 116.774  -0.483  -9.892 101.649

                      1                      2                      3
                      A                      A                      A
 Frequencies --     57.2282               126.6284               133.6754
 Red. masses --      4.2446                 1.0787                 3.5730
 Frc consts  --      0.0082                 0.0102                 0.0376
 IR Inten    --      2.8973                 0.4126                 4.8489

                      4                      5                      6
                      A                      A                      A
 Frequencies --    170.2591               285.0255               316.7268
 Red. masses --      3.1963                 3.0410                 3.9329
 Frc consts  --      0.0546                 0.1456                 0.2324
 IR Inten    --      0.7180                 1.1451                 1.8401

                      7                      8                      9
                      A                      A                      A
 Frequencies --    367.6273               383.1060               557.7648
 Red. masses --      3.8017                 2.3125                 2.8611
 Frc consts  --      0.3027                 0.2000                 0.5244
 IR Inten    --      2.4344                 0.2218                 3.2322

                     10                     11                     12
                      A                      A                      A
 Frequencies --    597.9843               682.2033               737.2615
 Red. masses --      3.6162                 2.8980                 3.6706
 Frc consts  --      0.7619                 0.7947                 1.1755
 IR Inten    --     21.4262                 1.6267                 4.8277

                     13                     14                     15
                      A                      A                      A
 Frequencies --    794.6741               825.8089               851.6187
 Red. masses --      2.4556                 1.3242                 2.5916
 Frc consts  --      0.9137                 0.5321                 1.1074
 IR Inten    --      2.3939                 4.6337                 7.1935

                     16                     17                     18
                      A                      A                      A
 Frequencies --    888.0991               929.8029               942.9912
 Red. masses --      2.2977                 3.7985                 2.6266
 Frc consts  --      1.0678                 1.9348                 1.3761
 IR Inten    --      2.8676                17.6920                17.3297

                     19                     20                     21
                      A                      A                      A
 Frequencies --    968.2661              1008.6153              1010.6522
 Red. masses --      2.1622                 1.6064                 2.1252
 Frc consts  --      1.1944                 0.9629                 1.2789
 IR Inten    --     48.4503                 4.5233                 7.3460

                     22                     23                     24
                      A                      A                      A
 Frequencies --   1056.2048              1073.7817              1083.0169
 Red. masses --      2.1572                 1.6388                 1.3251
 Frc consts  --      1.4179                 1.1133                 0.9157
 IR Inten    --      0.6235                 6.7589                 0.1533

                     25                     26                     27
                      A                      A                      A
 Frequencies --   1104.2498              1120.0886              1131.1823
 Red. masses --      1.3768                 1.8527                 2.5692
 Frc consts  --      0.9892                 1.3695                 1.9369
 IR Inten    --      1.2429                30.1851                74.9229

                     28                     29                     30
                      A                      A                      A
 Frequencies --   1190.7098              1201.8420              1230.7125
 Red. masses --      2.1533                 1.7782                 1.1664
 Frc consts  --      1.7987                 1.5133                 1.0409
 IR Inten    --     25.3665                 2.5527                 2.0201

                     31                     32                     33
                      A                      A                      A
 Frequencies --   1265.8952              1328.2911              1356.9720
 Red. masses --      1.4346                 1.6320                 1.9345
 Frc consts  --      1.3545                 1.6965                 2.0988
 IR Inten    --      7.3407                 2.4074                 6.4237

                     34                     35                     36
                      A                      A                      A
 Frequencies --   1362.2356              1378.5889              1404.7977
 Red. masses --      1.3671                 1.3088                 1.4521
 Frc consts  --      1.4947                 1.4655                 1.6884
 IR Inten    --      1.0428                31.7185                 3.4597

                     37                     38                     39
                      A                      A                      A
 Frequencies --   1462.6592              1474.3327              1478.8442
 Red. masses --      1.0528                 1.0544                 1.3135
 Frc consts  --      1.3271                 1.3504                 1.6925
 IR Inten    --      9.8785                 7.8520                 2.6047

                     40                     41                     42
                      A                      A                      A
 Frequencies --   1515.5377              1821.2425              3023.0968
 Red. masses --      1.0935                10.8992                 1.0795
 Frc consts  --      1.4798                21.3001                 5.8128
 IR Inten    --      0.5110               116.9702                40.6487

                     43                     44                     45
                      A                      A                      A
 Frequencies --   3033.1710              3035.2902              3077.7083
 Red. masses --      1.0553                 1.0427                 1.1085
 Frc consts  --      5.7204                 5.6600                 6.1867
 IR Inten    --     48.8410                 2.3302                29.1790

                     46                     47                     48
                      A                      A                      A
 Frequencies --   3094.2670              3128.5943              3152.4201
 Red. masses --      1.0974                 1.0539                 1.1018
 Frc consts  --      6.1904                 6.0777                 6.4515
 IR Inten    --      8.0074                13.2523                 9.7278

                     49                     50                     51
                      A                      A                      A
 Frequencies --   3180.2158              3190.3516              3219.1596
 Red. masses --      1.0891                 1.0948                 1.1152
 Frc consts  --      6.4898                 6.5656                 6.8089
 IR Inten    --      9.5677                 7.2330                 9.2028

 - Thermochemistry -
 -------------------
 Temperature   298.150 Kelvin.  Pressure   1.00000 Atm.
 Atom     1 has atomic number  6 and mass  12.00000

 Molecular mass:   126.06808 amu.
 Principal axes and moments of inertia in atomic units:
                           1         2         3
     Eigenvalues --   578.232721350.087711591.44512
           X            0.99935  -0.03397   0.01190
           Y            0.03415   0.99930  -0.01538
           Z           -0.01137   0.01577   0.99981
 This molecule is an asymmetric top.
 Rotational symmetry number  1.
 Warning -- assumption of classical behavior for rotation
           may cause significant error
 Rotational temperatures (Kelvin)      0.14979     0.06415     0.05442
 Rotational constants (GHZ):           3.12113     1.33676     1.13403
 Zero-point vibrational energy     417565.4 (Joules/Mol)
                                   99.80052 (Kcal/Mol)
 Warning -- explicit consideration of  10 degrees of freedom as
           vibrations may cause significant error
 Vibrational temperatures:     82.34   182.19   192.33   244.96   410.09
          (Kelvin)            455.70   528.93   551.20   802.50   860.36
                              981.54  1060.75  1143.36  1188.15  1225.29
                             1277.77  1337.78  1356.75  1393.12  1451.17
                             1454.10  1519.64  1544.93  1558.22  1588.77
                             1611.56  1627.52  1713.16  1729.18  1770.72
                             1821.34  1911.11  1952.38  1959.95  1983.48
                             2021.19  2104.44  2121.23  2127.72  2180.52
                             2620.36  4349.56  4364.05  4367.10  4428.13
                             4451.95  4501.34  4535.62  4575.62  4590.20
                             4631.65

 Zero-point correction=                           0.159042 (Hartree/Particle)
 Thermal correction to Energy=                    0.167492
 Thermal correction to Enthalpy=                  0.168436
 Thermal correction to Gibbs Free Energy=         0.125509
 Sum of electronic and zero-point Energies=           -423.036400
 Sum of electronic and thermal Energies=              -423.027950
 Sum of electronic and thermal Enthalpies=            -423.027006
 Sum of electronic and thermal Free Energies=         -423.069933

                     E (Thermal)             CV                S
                      KCal/Mol        Cal/Mol-Kelvin    Cal/Mol-Kelvin
 Total                  105.103             31.654             90.348
 Electronic               0.000              0.000              0.000
 Translational            0.889              2.981             40.409
 Rotational               0.889              2.981             28.609
 Vibrational            103.325             25.693             21.330
 Vibration     1          0.596              1.975              4.551
 Vibration     2          0.611              1.927              2.997
 Vibration     3          0.613              1.920              2.892
 Vibration     4          0.625              1.879              2.433
 Vibration     5          0.683              1.701              1.503
 Vibration     6          0.704              1.642              1.327
 Vibration     7          0.740              1.539              1.090
 Vibration     8          0.752              1.506              1.027
 Vibration     9          0.913              1.123              0.528
 Vibration    10          0.956              1.036              0.453

 Optimization completed.
    -- Stationary point found.
 Normal termination of Gaussian 09 at Mon Jan 27 15:04:53 2020.
