 Gaussian 09, Revision D.01,
 Gaussian 09:  ES64L-G09RevD.01 24-Apr-2013

 -----------------------------
 # b3lyp 6-31G(2df,p) opt Freq
 -----------------------------

 -----
 titel
 -----
 Symbolic Z-matrix:
 Charge =  0 Multiplicity = 1

 SCF Done:  E(RB3LYP) =  -423.160086868     A.U. after   14 cycles
 Optimization completed.
    -- Stationary point found.
 Normal termination of Gaussian 09 at Mon Jan 27 12:04:37 2020.

 ----------------------------------------------------------------------
 #N Geom=AllCheck Guess=TCheck SCRF=Check GenChk RB3LYP/6-31G(2df,p) Fr
 eq
 ----------------------------------------------------------------------

 Structure from the checkpoint file:  "/scratch/puck/g09_d250ce14-acee-474f-adec-6def4c8908fb/Gau-48310.chk"
 -----
 titel
 -----
 Charge =  0 Multiplicity = 1

                         Standard orientation:
 ---------------------------------------------------------------------
 Center     Atomic      Atomic             Coordinates (Angstroms)
 Number     Number       Type             X           Y           Z
 ---------------------------------------------------------------------
      1          6           0        2.201151   -0.728631   -0.384506
      2          8           0        2.085517    0.126291    0.759248
      3          6           0        0.941735   -0.047089   -0.092905
      4          6           0        0.410183    1.183366   -0.809272
      5          6           0       -0.736294    1.660148    0.113363
      6          6           0       -1.340964    0.371283    0.701059
      7          6           0       -2.151889   -0.512548   -0.268969
      8          8           0       -1.056004   -1.442966   -0.419509
      9          6           0       -0.250965   -0.727183    0.547299
     10          1           0        2.839722   -0.353929   -1.183647
     11          1           0        2.306697   -1.790997   -0.168337
     12          1           0        1.189227    1.933397   -0.960693
     13          1           0        0.021579    0.892389   -1.791622
     14          1           0       -0.323390    2.268769    0.924887
     15          1           0       -1.479000    2.271247   -0.408595
     16          1           0       -1.785630    0.511234    1.686193
     17          1           0       -3.034594   -0.997202    0.166048
     18          1           0       -2.435092   -0.049896   -1.223349
     19          1           0        0.026632   -1.347682    1.404800
 ---------------------------------------------------------------------

 SCF Done:  E(RB3LYP) =  -423.160086868     A.U. after    1 cycles

 The electronic state is 1-A.
 Alpha  occ. eigenvalues --  -19.14851 -19.13396 -10.23632 -10.23184 -10.23165
 Alpha  occ. eigenvalues --  -10.23064 -10.19425 -10.18926 -10.18687  -1.06844
 Alpha  occ. eigenvalues --   -1.03748  -0.82081  -0.73022  -0.70163  -0.66445
 Alpha  occ. eigenvalues --   -0.64297  -0.57095  -0.53860  -0.51775  -0.48640
 Alpha  occ. eigenvalues --   -0.47429  -0.46119  -0.43191  -0.42313  -0.41041
 Alpha  occ. eigenvalues --   -0.39258  -0.36237  -0.35198  -0.34358  -0.32146
 Alpha  occ. eigenvalues --   -0.29994  -0.29356  -0.27148  -0.24603
 Alpha virt. eigenvalues --    0.05958   0.08693   0.10077   0.11338   0.11796
 Alpha virt. eigenvalues --    0.13886   0.14294   0.14905   0.15832   0.16557
 Alpha virt. eigenvalues --    0.17221   0.18060   0.19239   0.20642   0.20791

 Mulliken charges:
               1
     1  C   -0.257760
     2  O   -0.283472
     3  C    0.443023
     4  C   -0.304311
     5  C   -0.233300
     6  C   -0.074955
     7  C   -0.080245
     8  O   -0.297408
     9  C    0.048425
    10  H    0.113479
    11  H    0.118402
    12  H    0.112352
    13  H    0.117466
    14  H    0.114493
    15  H    0.100003
    16  H    0.081558
    17  H    0.102099
    18  H    0.099266
    19  H    0.080888
 Sum of Mulliken charges =   0.00000

 Dipole moment (field-independent basis, Debye):
    X=             -1.0628    Y=              0.9543    Z=             -0.4969  Tot=              1.5123
 Quadrupole moment (field-independent basis, Debye-Ang):
   XX=            -52.1144   YY=            -54.3247   ZZ=            -53.0282
   XY=             -3.2988   XZ=             -4.2140   YZ=             -2.1026

  Exact polarizability:  86.705  -3.586  71.365  -1.926  -1.739  64.635
 Approx polarizability: 114.995  -3.934 102.858   1.956   1.669 101.842

                      1                      2                      3
                      A                      A                      A
 Frequencies --     89.1991               147.0894               215.0621
 Red. masses --      3.6241                 2.4928                 3.9120
 Frc consts  --      0.0170                 0.0318                 0.1066
 IR Inten    --      3.0758                 0.9558                 8.9269

                      4                      5                      6
                      A                      A                      A
 Frequencies --    292.8480               352.8072               358.4383
 Red. masses --      2.6904                 2.3924                 2.4752
 Frc consts  --      0.1359                 0.1755                 0.1874
 IR Inten    --      0.5707                 2.1960                 2.6520

                      7                      8                      9
                      A                      A                      A
 Frequencies --    447.8359               556.1560               600.9992
 Red. masses --      3.7329                 4.1638                 2.6342
 Frc consts  --      0.4411                 0.7588                 0.5606
 IR Inten    --      1.6087                 2.2179                 0.6956

                     10                     11                     12
                      A                      A                      A
 Frequencies --    744.8606               793.5514               842.8219
 Red. masses --      2.6559                 2.7879                 3.6541
 Frc consts  --      0.8682                 1.0344                 1.5293
 IR Inten    --      5.2417                 1.5155                17.2428

                     13                     14                     15
                      A                      A                      A
 Frequencies --    858.9693               869.5408               898.7672
 Red. masses --      2.0063                 2.1738                 3.0252
 Frc consts  --      0.8722                 0.9684                 1.4398
 IR Inten    --      9.6791                 2.5142                14.9774

                     16                     17                     18
                      A                      A                      A
 Frequencies --    931.2426               946.0806               963.2578
 Red. masses --      1.5459                 2.0378                 2.3633
 Frc consts  --      0.7899                 1.0747                 1.2920
 IR Inten    --      1.8127                 4.7434                13.5763

                     19                     20                     21
                      A                      A                      A
 Frequencies --    986.0420              1008.7631              1027.4815
 Red. masses --      3.2293                 2.4872                 9.3832
 Frc consts  --      1.8499                 1.4912                 5.8364
 IR Inten    --      7.0045                19.7720               112.7492

                     22                     23                     24
                      A                      A                      A
 Frequencies --   1075.0795              1104.7755              1125.3853
 Red. masses --      1.7448                 1.8387                 1.3238
 Frc consts  --      1.1882                 1.3222                 0.9878
 IR Inten    --      2.4639                 2.1789                 2.4678

                     25                     26                     27
                      A                      A                      A
 Frequencies --   1150.4132              1162.8067              1174.7051
 Red. masses --      1.3741                 1.2053                 1.3995
 Frc consts  --      1.0715                 0.9602                 1.1378
 IR Inten    --      0.4322                 0.9841                 5.4590

                     28                     29                     30
                      A                      A                      A
 Frequencies --   1192.3792              1237.4370              1248.2286
 Red. masses --      1.3985                 2.1474                 1.4720
 Frc consts  --      1.1715                 1.9373                 1.3512
 IR Inten    --      1.2073                 6.2625                 0.0693

                     31                     32                     33
                      A                      A                      A
 Frequencies --   1273.2901              1286.7014              1318.6117
 Red. masses --      1.6232                 1.3994                 1.5176
 Frc consts  --      1.5506                 1.3650                 1.5547
 IR Inten    --      0.0383                 8.3913                 0.2349

                     34                     35                     36
                      A                      A                      A
 Frequencies --   1324.7341              1341.1112              1367.0317
 Red. masses --      1.7527                 1.3072                 1.5144
 Frc consts  --      1.8123                 1.3853                 1.6674
 IR Inten    --      4.5438                 1.6469                 0.4978

                     37                     38                     39
                      A                      A                      A
 Frequencies --   1441.4324              1471.5110              1491.6127
 Red. masses --      2.1835                 1.1055                 1.0967
 Frc consts  --      2.6729                 1.4104                 1.4376
 IR Inten    --      1.8889                 5.0368                 3.3024

                     40                     41                     42
                      A                      A                      A
 Frequencies --   1524.7678              1533.3545              3008.8194
 Red. masses --      1.0997                 1.5200                 1.0553
 Frc consts  --      1.5064                 2.1056                 5.6286
 IR Inten    --      0.8911                 2.3762                78.0108

                     43                     44                     45
                      A                      A                      A
 Frequencies --   3046.2316              3048.1163              3051.3735
 Red. masses --      1.0649                 1.0645                 1.1071
 Frc consts  --      5.8224                 5.8270                 6.0731
 IR Inten    --     20.1405                13.5687                46.8788

                     46                     47                     48
                      A                      A                      A
 Frequencies --   3065.7280              3080.9360              3089.9075
 Red. masses --      1.0879                 1.0507                 1.1023
 Frc consts  --      6.0242                 5.8760                 6.2008
 IR Inten    --     30.9712                27.8129                20.1257

                     49                     50                     51
                      A                      A                      A
 Frequencies --   3111.3491              3116.0008              3166.0741
 Red. masses --      1.0902                 1.0992                 1.1193
 Frc consts  --      6.2182                 6.2879                 6.6107
 IR Inten    --     35.6707                19.3332                20.2294

 - Thermochemistry -
 -------------------
 Temperature   298.150 Kelvin.  Pressure   1.00000 Atm.
 Atom     1 has atomic number  6 and mass  12.00000

 Molecular mass:   126.06808 amu.
 Principal axes and moments of inertia in atomic units:
                           1         2         3
     Eigenvalues --   597.623251155.623661431.16005
           X            0.99929  -0.03140  -0.02092
           Y            0.03068   0.99896  -0.03387
           Z            0.02196   0.03321   0.99921
 This molecule is an asymmetric top.
 Rotational symmetry number  1.
 Warning -- assumption of classical behavior for rotation
           may cause significant error
 Rotational temperatures (Kelvin)      0.14493     0.07495     0.06052
 Rotational constants (GHZ):           3.01986     1.56170     1.26103
 Zero-point vibrational energy     422052.8 (Joules/Mol)
                                  100.87304 (Kcal/Mol)
 Warning -- explicit consideration of   9 degrees of freedom as
           vibrations may cause significant error
 Vibrational temperatures:    128.34   211.63   309.43   421.34   507.61
          (Kelvin)            515.71   644.34   800.18   864.70  1071.69
                             1141.74  1212.63  1235.86  1251.07  1293.12
                             1339.85  1361.20  1385.91  1418.69  1451.38
                             1478.31  1546.80  1589.52  1619.18  1655.19
                             1673.02  1690.14  1715.57  1780.39  1795.92
                             1831.98  1851.27  1897.19  1905.99  1929.56
                             1966.85  2073.90  2117.17  2146.10  2193.80
                             2206.15  4329.01  4382.84  4385.55  4390.24
                             4410.89  4432.77  4445.68  4476.53  4483.22
                             4555.27

 Zero-point correction=                           0.160751 (Hartree/Particle)
 Thermal correction to Energy=                    0.168207
 Thermal correction to Enthalpy=                  0.169151
 Thermal correction to Gibbs Free Energy=         0.128724
 Sum of electronic and zero-point Energies=           -422.999335
 Sum of electronic and thermal Energies=              -422.991880
 Sum of electronic and thermal Enthalpies=            -422.990936
 Sum of electronic and thermal Free Energies=         -423.031363

                     E (Thermal)             CV                S
                      KCal/Mol        Cal/Mol-Kelvin    Cal/Mol-Kelvin
 Total                  105.551             29.322             85.085
 Electronic               0.000              0.000              0.000
 Translational            0.889              2.981             40.409
 Rotational               0.889              2.981             28.382
 Vibrational            103.774             23.360             16.295
 Vibration     1          0.602              1.957              3.678
 Vibration     2          0.617              1.906              2.710
 Vibration     3          0.645              1.818              2.000
 Vibration     4          0.688              1.687              1.457
 Vibration     5          0.729              1.570              1.154
 Vibration     6          0.733              1.558              1.129
 Vibration     7          0.807              1.366              0.802
 Vibration     8          0.912              1.126              0.532
 Vibration     9          0.959              1.030              0.448

 Optimization completed.
    -- Stationary point found.
 Normal termination of Gaussian 09 at Mon Jan 27 12:47:23 2020.
