 Gaussian 09, Revision D.01,
 Gaussian 09:  ES64L-G09RevD.01 24-Apr-2013

 -----------------------------
 # b3lyp 6-31G(2df,p) opt Freq
 -----------------------------

 -----
 titel
 -----
 Symbolic Z-matrix:
 Charge =  0 Multiplicity = 1

 SCF Done:  E(RB3LYP) =  -423.133079265     A.U. after   13 cycles
 Optimization completed.
    -- Stationary point found.
 Normal termination of Gaussian 09 at Mon Jan 27 16:07:35 2020.

 ----------------------------------------------------------------------
 #N Geom=AllCheck Guess=TCheck SCRF=Check GenChk RB3LYP/6-31G(2df,p) Fr
 eq
 ----------------------------------------------------------------------

 Structure from the checkpoint file:  "/scratch/puck/g09_51204493-1e82-42c6-bd9a-e7c221207952/Gau-163200.chk"
 -----
 titel
 -----
 Charge =  0 Multiplicity = 1

                         Standard orientation:
 ---------------------------------------------------------------------
 Center     Atomic      Atomic             Coordinates (Angstroms)
 Number     Number       Type             X           Y           Z
 ---------------------------------------------------------------------
      1          6           0       -1.738593    1.170136   -0.470731
      2          6           0       -0.871647   -0.000053   -0.000017
      3          6           0       -1.738652   -1.170204    0.470688
      4          6           0        0.220339    0.409845    1.028129
      5          8           0        0.880054    1.532337    0.369223
      6          6           0        1.403946    0.553487   -0.524687
      7          6           0        1.404062   -0.553337    0.524693
      8          8           0        0.880324   -1.532296   -0.369181
      9          6           0        0.220406   -0.409931   -1.028111
     10          1           0       -2.398317    1.512480    0.333997
     11          1           0       -1.134097    2.018648   -0.793465
     12          1           0       -2.375407    0.853900   -1.304566
     13          1           0       -2.375316   -0.853987    1.304646
     14          1           0       -2.398531   -1.512375   -0.333984
     15          1           0       -1.134200   -2.018810    0.793247
     16          1           0       -0.040663    0.598537    2.068360
     17          1           0        2.207346    0.873302   -1.185276
     18          1           0        2.207536   -0.873000    1.185265
     19          1           0       -0.040540   -0.598681   -2.068345
 ---------------------------------------------------------------------

 SCF Done:  E(RB3LYP) =  -423.133079265     A.U. after    1 cycles

 The electronic state is 1-A.
 Alpha  occ. eigenvalues --  -19.14509 -19.14509 -10.24303 -10.24280 -10.23933
 Alpha  occ. eigenvalues --  -10.23933 -10.19832 -10.17212 -10.17212  -1.08735
 Alpha  occ. eigenvalues --   -1.02721  -0.80796  -0.72617  -0.70078  -0.68180
 Alpha  occ. eigenvalues --   -0.66537  -0.55173  -0.54345  -0.53183  -0.48392
 Alpha  occ. eigenvalues --   -0.46212  -0.43969  -0.43014  -0.41451  -0.38695
 Alpha  occ. eigenvalues --   -0.38274  -0.37163  -0.36821  -0.34305  -0.32549
 Alpha  occ. eigenvalues --   -0.31855  -0.31351  -0.26130  -0.23854
 Alpha virt. eigenvalues --    0.06213   0.09348   0.10941   0.11777   0.12502
 Alpha virt. eigenvalues --    0.13961   0.14817   0.15508   0.15591   0.16097
 Alpha virt. eigenvalues --    0.17443   0.18406   0.20284   0.21070   0.21324

 Mulliken charges:
               1
     1  C   -0.453688
     2  C    0.325356
     3  C   -0.453717
     4  C   -0.013652
     5  O   -0.286701
     6  C    0.055127
     7  C    0.055142
     8  O   -0.286705
     9  C   -0.013659
    10  H    0.113934
    11  H    0.134620
    12  H    0.109989
    13  H    0.109994
    14  H    0.113932
    15  H    0.134617
    16  H    0.080337
    17  H    0.097366
    18  H    0.097368
    19  H    0.080339
 Sum of Mulliken charges =   0.00000

 Dipole moment (field-independent basis, Debye):
    X=             -0.2802    Y=              0.0001    Z=              0.0000  Tot=              0.2802
 Quadrupole moment (field-independent basis, Debye-Ang):
   XX=            -51.1896   YY=            -60.2528   ZZ=            -49.4510
   XY=              0.0006   XZ=              0.0001   YZ=             -1.7698

  Exact polarizability:  80.341   0.000  68.222   0.000  -0.696  70.721
 Approx polarizability: 109.686   0.000 108.056   0.000   2.643 110.578

                      1                      2                      3
                      A                      A                      A
 Frequencies --    179.9353               206.6680               218.2499
 Red. masses --      1.0200                 1.1704                 2.9707
 Frc consts  --      0.0195                 0.0295                 0.0834
 IR Inten    --      0.3140                 0.0959                 0.1759

                      4                      5                      6
                      A                      A                      A
 Frequencies --    254.0340               350.4039               362.7720
 Red. masses --      2.4948                 2.4769                 2.4544
 Frc consts  --      0.0949                 0.1792                 0.1903
 IR Inten    --      0.1287                 0.4389                 1.2714

                      7                      8                      9
                      A                      A                      A
 Frequencies --    503.0970               544.1074               544.9568
 Red. masses --      4.0824                 4.9717                 4.7443
 Frc consts  --      0.6088                 0.8672                 0.8301
 IR Inten    --      8.4158                10.6180                 1.7775

                     10                     11                     12
                      A                      A                      A
 Frequencies --    619.0268               741.6634               760.7862
 Red. masses --      4.3742                 4.3818                 2.2814
 Frc consts  --      0.9876                 1.4201                 0.7780
 IR Inten    --      6.7908                 0.3256                 6.4235

                     13                     14                     15
                      A                      A                      A
 Frequencies --    793.4350               838.2488               852.9346
 Red. masses --      3.7087                 3.2728                 1.5516
 Frc consts  --      1.3756                 1.3549                 0.6651
 IR Inten    --      0.0194                10.4617                10.1697

                     16                     17                     18
                      A                      A                      A
 Frequencies --    870.8776               930.6396               950.2149
 Red. masses --      4.2775                 3.6839                 1.9416
 Frc consts  --      1.9114                 1.8799                 1.0329
 IR Inten    --     17.2780                29.4346                16.7679

                     19                     20                     21
                      A                      A                      A
 Frequencies --    957.4220               958.9779               990.2018
 Red. masses --      4.1599                 1.4119                 3.3064
 Frc consts  --      2.2467                 0.7650                 1.9101
 IR Inten    --      8.8114                 0.4484                47.5772

                     22                     23                     24
                      A                      A                      A
 Frequencies --   1020.3037              1028.1314              1069.9824
 Red. masses --      1.4056                 2.5966                 2.3739
 Frc consts  --      0.8621                 1.6172                 1.6013
 IR Inten    --      0.0481                36.5979                 2.2065

                     25                     26                     27
                      A                      A                      A
 Frequencies --   1107.9992              1140.3507              1165.0736
 Red. masses --      2.0364                 1.5602                 1.6515
 Frc consts  --      1.4730                 1.1954                 1.3208
 IR Inten    --      0.2073                 0.8614                 4.0464

                     28                     29                     30
                      A                      A                      A
 Frequencies --   1199.1756              1199.6390              1220.9510
 Red. masses --      1.2207                 1.6992                 2.0164
 Frc consts  --      1.0343                 1.4408                 1.7710
 IR Inten    --      1.3635                 1.7822                 4.1444

                     31                     32                     33
                      A                      A                      A
 Frequencies --   1229.9987              1252.7834              1307.0332
 Red. masses --      2.2360                 2.1617                 1.6858
 Frc consts  --      1.9931                 1.9989                 1.6968
 IR Inten    --      3.9022                 2.8707                21.4214

                     34                     35                     36
                      A                      A                      A
 Frequencies --   1316.8683              1345.4501              1396.6468
 Red. masses --      2.4507                 1.7578                 1.2480
 Frc consts  --      2.5040                 1.8748                 1.4343
 IR Inten    --      3.3094                 2.0581                 6.0769

                     37                     38                     39
                      A                      A                      A
 Frequencies --   1418.3532              1484.6524              1489.0987
 Red. masses --      1.2234                 1.0507                 1.0470
 Frc consts  --      1.4501                 1.3645                 1.3679
 IR Inten    --      4.2759                 4.8060                 0.0512

                     40                     41                     42
                      A                      A                      A
 Frequencies --   1504.6880              1514.9049              3032.1367
 Red. masses --      1.0609                 1.0511                 1.0389
 Frc consts  --      1.4152                 1.4212                 5.6277
 IR Inten    --      0.9327                 9.9869                11.9591

                     43                     44                     45
                      A                      A                      A
 Frequencies --   3036.5585              3088.6220              3092.7796
 Red. masses --      1.0389                 1.1010                 1.1003
 Frc consts  --      5.6439                 6.1884                 6.2010
 IR Inten    --     45.9725                 0.0685                39.5400

                     46                     47                     48
                      A                      A                      A
 Frequencies --   3134.6749              3136.3391              3140.9823
 Red. masses --      1.0908                 1.0913                 1.0975
 Frc consts  --      6.3153                 6.3249                 6.3794
 IR Inten    --     13.8900                17.1771                 9.0827

                     49                     50                     51
                      A                      A                      A
 Frequencies --   3141.5336              3142.2339              3154.1857
 Red. masses --      1.0908                 1.0944                 1.0993
 Frc consts  --      6.3425                 6.3666                 6.4436
 IR Inten    --     30.6391                43.4277                24.7203

 - Thermochemistry -
 -------------------
 Temperature   298.150 Kelvin.  Pressure   1.00000 Atm.
 Atom     1 has atomic number  6 and mass  12.00000

 Molecular mass:   126.06808 amu.
 Principal axes and moments of inertia in atomic units:
                           1         2         3
     Eigenvalues --   692.58865 884.564691164.12046
           X            1.00000   0.00002   0.00000
           Y           -0.00002   0.99871  -0.05087
           Z            0.00000   0.05087   0.99871
 This molecule is an asymmetric top.
 Rotational symmetry number  1.
 Warning -- assumption of classical behavior for rotation
           may cause significant error
 Rotational temperatures (Kelvin)      0.12506     0.09792     0.07440
 Rotational constants (GHZ):           2.60579     2.04026     1.55030
 Zero-point vibrational energy     418338.8 (Joules/Mol)
                                   99.98537 (Kcal/Mol)
 Warning -- explicit consideration of  10 degrees of freedom as
           vibrations may cause significant error
 Vibrational temperatures:    258.89   297.35   314.01   365.50   504.15
          (Kelvin)            521.95   723.84   782.85   784.07   890.64
                             1067.09  1094.60  1141.57  1206.05  1227.18
                             1253.00  1338.98  1367.15  1377.52  1379.75
                             1424.68  1467.99  1479.25  1539.46  1594.16
                             1640.71  1676.28  1725.34  1726.01  1756.67
                             1769.69  1802.47  1880.53  1894.68  1935.80
                             2009.46  2040.69  2136.08  2142.48  2164.91
                             2179.61  4362.56  4368.92  4443.83  4449.81
                             4510.09  4512.49  4519.17  4519.96  4520.97
                             4538.16

 Zero-point correction=                           0.159337 (Hartree/Particle)
 Thermal correction to Energy=                    0.166773
 Thermal correction to Enthalpy=                  0.167717
 Thermal correction to Gibbs Free Energy=         0.128033
 Sum of electronic and zero-point Energies=           -422.973742
 Sum of electronic and thermal Energies=              -422.966307
 Sum of electronic and thermal Enthalpies=            -422.965363
 Sum of electronic and thermal Free Energies=         -423.005047

                     E (Thermal)             CV                S
                      KCal/Mol        Cal/Mol-Kelvin    Cal/Mol-Kelvin
 Total                  104.651             30.493             83.522
 Electronic               0.000              0.000              0.000
 Translational            0.889              2.981             40.409
 Rotational               0.889              2.981             28.058
 Vibrational            102.874             24.531             15.056
 Vibration     1          0.629              1.867              2.329
 Vibration     2          0.641              1.830              2.073
 Vibration     3          0.646              1.813              1.974
 Vibration     4          0.665              1.756              1.702
 Vibration     5          0.727              1.574              1.164
 Vibration     6          0.737              1.549              1.110
 Vibration     7          0.858              1.243              0.650
 Vibration     8          0.899              1.153              0.557
 Vibration     9          0.900              1.151              0.555
 Vibration    10          0.979              0.992              0.418

 Normal termination of Gaussian 09 at Mon Jan 27 16:58:49 2020.
