 Gaussian 09, Revision D.01,
 Gaussian 09:  ES64L-G09RevD.01 24-Apr-2013

 -----------------------------
 # b3lyp 6-31G(2df,p) opt Freq
 -----------------------------

 -----
 titel
 -----
 Symbolic Z-matrix:
 Charge =  0 Multiplicity = 1

 SCF Done:  E(RB3LYP) =  -423.175587665     A.U. after   14 cycles
 Optimization completed.
    -- Stationary point found.
 Normal termination of Gaussian 09 at Mon Jan 27 16:39:09 2020.

 ----------------------------------------------------------------------
 #N Geom=AllCheck Guess=TCheck SCRF=Check GenChk RB3LYP/6-31G(2df,p) Fr
 eq
 ----------------------------------------------------------------------

 Structure from the checkpoint file:  "/scratch/puck/g09_7560ff00-cd78-4d4e-bfe7-69b01e664d02/Gau-36722.chk"
 -----
 titel
 -----
 Charge =  0 Multiplicity = 1

                         Standard orientation:
 ---------------------------------------------------------------------
 Center     Atomic      Atomic             Coordinates (Angstroms)
 Number     Number       Type             X           Y           Z
 ---------------------------------------------------------------------
      1          6           0       -1.117143    1.647589   -0.050925
      2          6           0       -0.489202    0.259904    0.054271
      3          6           0        0.396543    0.013798    1.336999
      4          6           0        1.720514   -0.328610    0.623644
      5          6           0        1.864991    0.762082   -0.456399
      6          6           0        0.651848   -0.035365   -0.978810
      7          8           0        1.263544   -1.241434   -0.427509
      8          6           0       -1.550817   -0.819956   -0.056899
      9          8           0       -2.736931   -0.610025   -0.116447
     10          1           0       -1.571716    1.796980   -1.035167
     11          1           0       -1.915208    1.759571    0.687272
     12          1           0       -0.381591    2.439098    0.112560
     13          1           0        0.454530    0.901998    1.971513
     14          1           0        0.047437   -0.824417    1.945602
     15          1           0        2.553942   -0.707992    1.213939
     16          1           0        1.756632    1.813250   -0.183846
     17          1           0        2.743032    0.597328   -1.081095
     18          1           0        0.383618   -0.108350   -2.033109
     19          1           0       -1.143984   -1.852451   -0.077307
 ---------------------------------------------------------------------

 SCF Done:  E(RB3LYP) =  -423.175587665     A.U. after    1 cycles

 The electronic state is 1-A.
 Alpha  occ. eigenvalues --  -19.14600 -19.13524 -10.26166 -10.25129 -10.24995
 Alpha  occ. eigenvalues --  -10.20768 -10.19941 -10.19886 -10.18051  -1.06182
 Alpha  occ. eigenvalues --   -1.04124  -0.82415  -0.75130  -0.72459  -0.68352
 Alpha  occ. eigenvalues --   -0.61573  -0.56890  -0.54481  -0.52006  -0.49042
 Alpha  occ. eigenvalues --   -0.45980  -0.44816  -0.43971  -0.41819  -0.39851
 Alpha  occ. eigenvalues --   -0.38572  -0.37911  -0.36768  -0.35046  -0.34290
 Alpha  occ. eigenvalues --   -0.33686  -0.32236  -0.26509  -0.24114
 Alpha virt. eigenvalues --   -0.02035   0.08366   0.09118   0.10782   0.11575
 Alpha virt. eigenvalues --    0.13408   0.14101   0.15008   0.15268   0.15700
 Alpha virt. eigenvalues --    0.16774   0.17165   0.18187   0.19433   0.21501

 Mulliken charges:
               1
     1  C   -0.465986
     2  C    0.217984
     3  C   -0.284957
     4  C    0.083147
     5  C   -0.235832
     6  C    0.029412
     7  O   -0.296227
     8  C    0.115830
     9  O   -0.262907
    10  H    0.126604
    11  H    0.138123
    12  H    0.109530
    13  H    0.110775
    14  H    0.117127
    15  H    0.086792
    16  H    0.103247
    17  H    0.118981
    18  H    0.090208
    19  H    0.098151
 Sum of Mulliken charges =   0.00000

 Dipole moment (field-independent basis, Debye):
    X=              2.6898    Y=              1.7013    Z=              0.6098  Tot=              3.2406
 Quadrupole moment (field-independent basis, Debye-Ang):
   XX=            -61.4892   YY=            -54.6099   ZZ=            -50.1843
   XY=              0.6220   XZ=              0.8172   YZ=             -1.2685

  Exact polarizability:  86.570  -0.372  70.449   1.662  -1.114  67.030
 Approx polarizability: 125.598  -2.244 107.049   4.082   0.648 102.615

                      1                      2                      3
                      A                      A                      A
 Frequencies --     86.9658               149.5008               182.0408
 Red. masses --      3.8236                 1.2079                 2.9761
 Frc consts  --      0.0170                 0.0159                 0.0581
 IR Inten    --      3.8746                 0.3297                 2.2671

                      4                      5                      6
                      A                      A                      A
 Frequencies --    235.1486               291.5739               357.5244
 Red. masses --      2.5451                 2.9670                 2.2876
 Frc consts  --      0.0829                 0.1486                 0.1723
 IR Inten    --      2.9479                 4.7614                 0.6304

                      7                      8                      9
                      A                      A                      A
 Frequencies --    408.3558               430.5572               482.0366
 Red. masses --      2.7938                 2.3571                 3.3714
 Frc consts  --      0.2745                 0.2575                 0.4615
 IR Inten    --      0.1483                 0.4845                 7.2607

                     10                     11                     12
                      A                      A                      A
 Frequencies --    569.0287               703.2019               769.8472
 Red. masses --      3.5650                 3.7206                 3.1304
 Frc consts  --      0.6801                 1.0840                 1.0931
 IR Inten    --      7.6216                 8.3942                 5.3747

                     13                     14                     15
                      A                      A                      A
 Frequencies --    804.6043               838.0310               869.3743
 Red. masses --      2.8818                 2.8930                 2.8173
 Frc consts  --      1.0992                 1.1971                 1.2546
 IR Inten    --      1.3984                13.0421                11.8286

                     16                     17                     18
                      A                      A                      A
 Frequencies --    878.9964               921.7900               933.1164
 Red. masses --      2.9832                 2.0634                 3.1125
 Frc consts  --      1.3580                 1.0330                 1.5967
 IR Inten    --     19.7916                51.7800                14.9247

                     19                     20                     21
                      A                      A                      A
 Frequencies --    946.8059               972.2330              1021.2265
 Red. masses --      2.4519                 1.7152                 1.5648
 Frc consts  --      1.2950                 0.9552                 0.9615
 IR Inten    --     16.6363                10.2919                 4.0334

                     22                     23                     24
                      A                      A                      A
 Frequencies --   1048.1341              1057.7257              1078.1833
 Red. masses --      1.8498                 1.1885                 2.3365
 Frc consts  --      1.1973                 0.7834                 1.6003
 IR Inten    --      1.4845                 1.1887                 2.3071

                     25                     26                     27
                      A                      A                      A
 Frequencies --   1116.4851              1163.4240              1169.5611
 Red. masses --      1.1815                 2.3179                 2.5041
 Frc consts  --      0.8677                 1.8485                 2.0181
 IR Inten    --      1.3894                 4.8586                 0.8546

                     28                     29                     30
                      A                      A                      A
 Frequencies --   1210.7094              1230.1991              1258.4921
 Red. masses --      1.5600                 1.4357                 1.4211
 Frc consts  --      1.3473                 1.2801                 1.3261
 IR Inten    --      7.0817                 3.4175                 8.5911

                     31                     32                     33
                      A                      A                      A
 Frequencies --   1266.3762              1282.4636              1322.3812
 Red. masses --      2.2879                 1.6370                 1.7622
 Frc consts  --      2.1618                 1.5863                 1.8156
 IR Inten    --      7.3268                 5.7210                 2.7538

                     34                     35                     36
                      A                      A                      A
 Frequencies --   1330.1482              1405.0963              1422.3873
 Red. masses --      1.6112                 1.1977                 1.2494
 Frc consts  --      1.6796                 1.3932                 1.4893
 IR Inten    --      5.2901                 0.1776                11.6345

                     37                     38                     39
                      A                      A                      A
 Frequencies --   1477.3385              1487.2371              1488.1106
 Red. masses --      1.1004                 1.0617                 1.0718
 Frc consts  --      1.4150                 1.3836                 1.3985
 IR Inten    --      4.4756                 1.1232                 2.5378

                     40                     41                     42
                      A                      A                      A
 Frequencies --   1498.3655              1818.5882              2921.3473
 Red. masses --      1.0943                10.4377                 1.0841
 Frc consts  --      1.4475                20.3386                 5.4511
 IR Inten    --      8.7278               184.0697                62.1762

                     43                     44                     45
                      A                      A                      A
 Frequencies --   3047.2298              3062.2794              3080.2998
 Red. masses --      1.0361                 1.0588                 1.0583
 Frc consts  --      5.6685                 5.8500                 5.9162
 IR Inten    --     13.2942                18.9525                21.9716

                     46                     47                     48
                      A                      A                      A
 Frequencies --   3110.5310              3115.2584              3121.4536
 Red. masses --      1.1059                 1.1010                 1.0903
 Frc consts  --      6.3043                 6.2954                 6.2593
 IR Inten    --      7.5546                20.0348                42.2413

                     49                     50                     51
                      A                      A                      A
 Frequencies --   3125.8847              3130.7712              3152.2659
 Red. masses --      1.1013                 1.0930                 1.1085
 Frc consts  --      6.3401                 6.3123                 6.4901
 IR Inten    --     17.2455                33.2895                20.4564

 - Thermochemistry -
 -------------------
 Temperature   298.150 Kelvin.  Pressure   1.00000 Atm.
 Atom     1 has atomic number  6 and mass  12.00000

 Molecular mass:   126.06808 amu.
 Principal axes and moments of inertia in atomic units:
                           1         2         3
     Eigenvalues --   575.295391289.081781439.77068
           X            0.99997  -0.00750   0.00192
           Y            0.00757   0.99926  -0.03782
           Z           -0.00163   0.03783   0.99928
 This molecule is an asymmetric top.
 Rotational symmetry number  1.
 Warning -- assumption of classical behavior for rotation
           may cause significant error
 Rotational temperatures (Kelvin)      0.15056     0.06719     0.06016
 Rotational constants (GHZ):           3.13707     1.40002     1.25349
 Zero-point vibrational energy     417799.9 (Joules/Mol)
                                   99.85657 (Kcal/Mol)
 Warning -- explicit consideration of  10 degrees of freedom as
           vibrations may cause significant error
 Vibrational temperatures:    125.12   215.10   261.92   338.33   419.51
          (Kelvin)            514.40   587.53   619.47   693.54   818.70
                             1011.75  1107.64  1157.64  1205.74  1250.83
                             1264.68  1326.25  1342.54  1362.24  1398.82
                             1469.32  1508.03  1521.83  1551.26  1606.37
                             1673.91  1682.74  1741.94  1769.98  1810.69
                             1822.03  1845.18  1902.61  1913.78  2021.62
                             2046.50  2125.56  2139.80  2141.06  2155.81
                             2616.54  4203.16  4384.28  4405.93  4431.86
                             4475.35  4482.16  4491.07  4497.45  4504.48
                             4535.40

 Zero-point correction=                           0.159132 (Hartree/Particle)
 Thermal correction to Energy=                    0.167202
 Thermal correction to Enthalpy=                  0.168146
 Thermal correction to Gibbs Free Energy=         0.126582
 Sum of electronic and zero-point Energies=           -423.016456
 Sum of electronic and thermal Energies=              -423.008386
 Sum of electronic and thermal Enthalpies=            -423.007442
 Sum of electronic and thermal Free Energies=         -423.049006

                     E (Thermal)             CV                S
                      KCal/Mol        Cal/Mol-Kelvin    Cal/Mol-Kelvin
 Total                  104.921             31.282             87.479
 Electronic               0.000              0.000              0.000
 Translational            0.889              2.981             40.409
 Rotational               0.889              2.981             28.459
 Vibrational            103.143             25.320             18.611
 Vibration     1          0.601              1.958              3.727
 Vibration     2          0.618              1.903              2.679
 Vibration     3          0.630              1.864              2.307
 Vibration     4          0.655              1.787              1.839
 Vibration     5          0.687              1.689              1.465
 Vibration     6          0.733              1.560              1.133
 Vibration     7          0.773              1.452              0.932
 Vibration     8          0.792              1.404              0.857
 Vibration     9          0.838              1.290              0.705
 Vibration    10          0.925              1.098              0.506

 Optimization completed.
    -- Stationary point found.
 Normal termination of Gaussian 09 at Mon Jan 27 17:50:12 2020.
