 Gaussian 09, Revision D.01,
 Gaussian 09:  ES64L-G09RevD.01 24-Apr-2013

 -----------------------------
 # b3lyp 6-31G(2df,p) opt Freq
 -----------------------------

 -----
 titel
 -----
 Symbolic Z-matrix:
 Charge =  0 Multiplicity = 1

 SCF Done:  E(RB3LYP) =  -423.130167740     A.U. after   13 cycles
 Optimization completed.
    -- Stationary point found.
 Normal termination of Gaussian 09 at Tue Jan 28 13:55:41 2020.

 ----------------------------------------------------------------------
 #N Geom=AllCheck Guess=TCheck SCRF=Check GenChk RB3LYP/6-31G(2df,p) Fr
 eq
 ----------------------------------------------------------------------

 Structure from the checkpoint file:  "/scratch/puck/g09_911efa51-fa90-400b-b384-9db1d97b0f1a/Gau-146129.chk"
 -----
 titel
 -----
 Charge =  0 Multiplicity = 1

                         Standard orientation:
 ---------------------------------------------------------------------
 Center     Atomic      Atomic             Coordinates (Angstroms)
 Number     Number       Type             X           Y           Z
 ---------------------------------------------------------------------
      1          8           0        3.200254    0.014118   -0.497546
      2          6           0        2.191462    0.313210    0.459080
      3          6           0        0.952638   -0.548165    0.267009
      4          6           0       -0.088927   -0.200915   -0.833049
      5          6           0       -1.153396   -1.041326   -0.045694
      6          6           0       -2.487616   -0.331306   -0.216031
      7          8           0       -2.072748    1.042525   -0.123873
      8          6           0       -0.677253    0.926096    0.071018
      9          6           0       -0.353146   -0.247436    1.046190
     10          1           0        2.837705    0.199712   -1.369705
     11          1           0        2.642028    0.096985    1.434391
     12          1           0        1.943515    1.385042    0.450712
     13          1           0        1.245300   -1.603812    0.275240
     14          1           0        0.041661   -0.179132   -1.917008
     15          1           0       -1.114156   -2.130428   -0.067309
     16          1           0       -2.960599   -0.517289   -1.188309
     17          1           0       -3.209315   -0.561308    0.577560
     18          1           0       -0.229716    1.913118    0.160405
     19          1           0       -0.519049   -0.276981    2.124230
 ---------------------------------------------------------------------

 SCF Done:  E(RB3LYP) =  -423.130167740     A.U. after    1 cycles

 The electronic state is 1-A.
 Alpha  occ. eigenvalues --  -19.13711 -19.13347 -10.23938 -10.22670 -10.22523
 Alpha  occ. eigenvalues --  -10.20380 -10.20211 -10.20157 -10.19543  -1.04650
 Alpha  occ. eigenvalues --   -1.01391  -0.90113  -0.74000  -0.71066  -0.63964
 Alpha  occ. eigenvalues --   -0.62677  -0.59137  -0.54874  -0.50815  -0.49819
 Alpha  occ. eigenvalues --   -0.48953  -0.46052  -0.42994  -0.41751  -0.39543
 Alpha  occ. eigenvalues --   -0.36970  -0.36641  -0.34267  -0.32234  -0.31467
 Alpha  occ. eigenvalues --   -0.31148  -0.30824  -0.26323  -0.24099
 Alpha virt. eigenvalues --    0.06893   0.10561   0.11057   0.12120   0.12505
 Alpha virt. eigenvalues --    0.13003   0.13892   0.14449   0.14977   0.15333
 Alpha virt. eigenvalues --    0.17288   0.18763   0.19966   0.20208   0.21293

 Mulliken charges:
               1
     1  O   -0.417644
     2  C   -0.108334
     3  C   -0.008907
     4  C   -0.111147
     5  C   -0.057113
     6  C   -0.111717
     7  O   -0.282545
     8  C    0.140807
     9  C   -0.113237
    10  H    0.282442
    11  H    0.110546
    12  H    0.087275
    13  H    0.074747
    14  H    0.068575
    15  H    0.075751
    16  H    0.103787
    17  H    0.104253
    18  H    0.088711
    19  H    0.073750
 Sum of Mulliken charges =   0.00000

 Dipole moment (field-independent basis, Debye):
    X=             -0.7160    Y=             -0.8890    Z=             -0.2737  Tot=              1.1738
 Quadrupole moment (field-independent basis, Debye-Ang):
   XX=            -62.9336   YY=            -53.5095   ZZ=            -49.5471
   XY=              5.4753   XZ=             -0.7424   YZ=             -0.1613

  Exact polarizability:  88.929   2.716  66.474   1.339   0.417  68.984
 Approx polarizability: 116.161   0.482 105.270   0.554   0.189 108.471

                      1                      2                      3
                      A                      A                      A
 Frequencies --     78.2158               156.4472               226.0260
 Red. masses --      3.6299                 3.6803                 2.2013
 Frc consts  --      0.0131                 0.0531                 0.0663
 IR Inten    --      3.5106                 0.1301                12.0507

                      4                      5                      6
                      A                      A                      A
 Frequencies --    295.0755               322.9226               374.8990
 Red. masses --      1.4945                 1.7125                 5.4207
 Frc consts  --      0.0767                 0.1052                 0.4489
 IR Inten    --     46.4277                52.3219                 8.0361

                      7                      8                      9
                      A                      A                      A
 Frequencies --    449.7432               515.8333               688.8750
 Red. masses --      3.5125                 2.8504                 3.8095
 Frc consts  --      0.4186                 0.4469                 1.0651
 IR Inten    --      0.2446                 2.1657                 1.7703

                     10                     11                     12
                      A                      A                      A
 Frequencies --    732.9901               767.7721               790.7724
 Red. masses --      4.5081                 3.2737                 2.3781
 Frc consts  --      1.4271                 1.1370                 0.8762
 IR Inten    --      4.4809                 0.2550                 1.0942

                     13                     14                     15
                      A                      A                      A
 Frequencies --    837.1038               906.5699               923.9914
 Red. masses --      2.1797                 2.6000                 2.1574
 Frc consts  --      0.8999                 1.2590                 1.0852
 IR Inten    --      9.3634                 5.0494                17.0929

                     16                     17                     18
                      A                      A                      A
 Frequencies --    961.9164               965.0688               977.7796
 Red. masses --      2.1865                 2.4986                 3.1117
 Frc consts  --      1.1920                 1.3711                 1.7528
 IR Inten    --     17.9889                38.5582                 3.6853

                     19                     20                     21
                      A                      A                      A
 Frequencies --    983.4879              1006.9889              1049.3505
 Red. masses --      1.0610                 2.2522                 1.5456
 Frc consts  --      0.6046                 1.3456                 1.0027
 IR Inten    --      0.1737                43.5043                10.6627

                     22                     23                     24
                      A                      A                      A
 Frequencies --   1063.4221              1086.2112              1100.2378
 Red. masses --      5.1522                 3.3517                 2.0665
 Frc consts  --      3.4329                 2.3300                 1.4739
 IR Inten    --     39.0506                78.1790                21.5804

                     25                     26                     27
                      A                      A                      A
 Frequencies --   1109.6225              1125.9330              1152.2105
 Red. masses --      2.1718                 2.6010                 1.3995
 Frc consts  --      1.5755                 1.9428                 1.0946
 IR Inten    --      5.7219                 2.6659                 0.7773

                     28                     29                     30
                      A                      A                      A
 Frequencies --   1171.5827              1193.0674              1207.8164
 Red. masses --      1.4199                 1.2579                 1.3126
 Frc consts  --      1.1483                 1.0549                 1.1282
 IR Inten    --      3.2041                16.3067                 9.7588

                     31                     32                     33
                      A                      A                      A
 Frequencies --   1220.8228              1250.9334              1268.5952
 Red. masses --      1.4862                 1.5825                 1.6659
 Frc consts  --      1.3050                 1.4590                 1.5796
 IR Inten    --      5.3265                 3.7285                 1.5366

                     34                     35                     36
                      A                      A                      A
 Frequencies --   1284.4557              1323.8261              1358.2699
 Red. masses --      1.6226                 1.5428                 1.3381
 Frc consts  --      1.5773                 1.5930                 1.4545
 IR Inten    --      6.0997                 1.5134                 2.5134

                     37                     38                     39
                      A                      A                      A
 Frequencies --   1388.7463              1406.8175              1436.0905
 Red. masses --      1.4754                 1.2069                 1.4595
 Frc consts  --      1.6765                 1.4073                 1.7734
 IR Inten    --     22.2501                39.4655                19.7255

                     40                     41                     42
                      A                      A                      A
 Frequencies --   1505.0297              1521.1757              2993.4138
 Red. masses --      1.0868                 1.0980                 1.0679
 Frc consts  --      1.4505                 1.4969                 5.6378
 IR Inten    --      0.9867                 0.3094                36.8325

                     43                     44                     45
                      A                      A                      A
 Frequencies --   3018.2933              3047.5952              3056.2052
 Red. masses --      1.0559                 1.0829                 1.1097
 Frc consts  --      5.6673                 5.9261                 6.1069
 IR Inten    --     70.0424                26.1139                31.5244

                     46                     47                     48
                      A                      A                      A
 Frequencies --   3066.2531              3089.2034              3101.5738
 Red. masses --      1.0954                 1.0897                 1.0897
 Frc consts  --      6.0677                 6.1269                 6.1760
 IR Inten    --     47.6354                56.1118                37.2646

                     49                     50                     51
                      A                      A                      A
 Frequencies --   3124.1959              3155.2348              3815.4621
 Red. masses --      1.0902                 1.0916                 1.0661
 Frc consts  --      6.2693                 6.4029                 9.1443
 IR Inten    --     36.1699                25.6601                11.5176

 - Thermochemistry -
 -------------------
 Temperature   298.150 Kelvin.  Pressure   1.00000 Atm.
 Atom     1 has atomic number  8 and mass  15.99491

 Molecular mass:   126.06808 amu.
 Principal axes and moments of inertia in atomic units:
                           1         2         3
     Eigenvalues --   376.302821727.562541789.91807
           X            0.99983   0.01795   0.00466
           Y           -0.01809   0.99932   0.03214
           Z           -0.00408  -0.03222   0.99947
 This molecule is an asymmetric top.
 Rotational symmetry number  1.
 Rotational temperatures (Kelvin)      0.23017     0.05014     0.04839
 Rotational constants (GHZ):           4.79598     1.04467     1.00828
 Zero-point vibrational energy     422605.5 (Joules/Mol)
                                  101.00514 (Kcal/Mol)
 Warning -- explicit consideration of   8 degrees of freedom as
           vibrations may cause significant error
 Vibrational temperatures:    112.53   225.09   325.20   424.55   464.61
          (Kelvin)            539.40   647.08   742.17   991.14  1054.61
                             1104.65  1137.74  1204.40  1304.35  1329.42
                             1383.98  1388.52  1406.80  1415.02  1448.83
                             1509.78  1530.03  1562.81  1582.99  1596.50
                             1619.96  1657.77  1685.64  1716.56  1737.78
                             1756.49  1799.81  1825.22  1848.04  1904.69
                             1954.24  1998.09  2024.09  2066.21  2165.40
                             2188.63  4306.85  4342.65  4384.80  4397.19
                             4411.65  4444.67  4462.47  4495.02  4539.67
                             5489.59

 Zero-point correction=                           0.160962 (Hartree/Particle)
 Thermal correction to Energy=                    0.168445
 Thermal correction to Enthalpy=                  0.169389
 Thermal correction to Gibbs Free Energy=         0.128802
 Sum of electronic and zero-point Energies=           -422.969206
 Sum of electronic and thermal Energies=              -422.961723
 Sum of electronic and thermal Enthalpies=            -422.960779
 Sum of electronic and thermal Free Energies=         -423.001365

                     E (Thermal)             CV                S
                      KCal/Mol        Cal/Mol-Kelvin    Cal/Mol-Kelvin
 Total                  105.701             29.589             85.422
 Electronic               0.000              0.000              0.000
 Translational            0.889              2.981             40.409
 Rotational               0.889              2.981             28.544
 Vibrational            103.923             23.627             16.469
 Vibration     1          0.600              1.964              3.935
 Vibration     2          0.620              1.895              2.592
 Vibration     3          0.650              1.801              1.910
 Vibration     4          0.689              1.683              1.445
 Vibration     5          0.708              1.630              1.295
 Vibration     6          0.746              1.524              1.060
 Vibration     7          0.809              1.361              0.797
 Vibration     8          0.871              1.215              0.620

 Optimization completed.
    -- Stationary point found.
 Normal termination of Gaussian 09 at Tue Jan 28 14:38:02 2020.
