 Gaussian 09, Revision D.01,
 Gaussian 09:  ES64L-G09RevD.01 24-Apr-2013

 -----------------------------
 # b3lyp 6-31G(2df,p) opt Freq
 -----------------------------

 -----
 titel
 -----
 Symbolic Z-matrix:
 Charge =  0 Multiplicity = 1

 SCF Done:  E(RB3LYP) =  -423.186057020     A.U. after   14 cycles
 Optimization completed.
    -- Stationary point found.
 Normal termination of Gaussian 09 at Mon Jan 27 17:27:31 2020.

 ----------------------------------------------------------------------
 #N Geom=AllCheck Guess=TCheck SCRF=Check GenChk RB3LYP/6-31G(2df,p) Fr
 eq
 ----------------------------------------------------------------------

 Structure from the checkpoint file:  "/scratch/puck/g09_5491fe7a-99c6-4256-943d-7e3308ad05e5/Gau-169131.chk"
 -----
 titel
 -----
 Charge =  0 Multiplicity = 1

                         Standard orientation:
 ---------------------------------------------------------------------
 Center     Atomic      Atomic             Coordinates (Angstroms)
 Number     Number       Type             X           Y           Z
 ---------------------------------------------------------------------
      1          6           0        2.281757   -0.947156   -0.877227
      2          6           0        1.321738   -0.108270   -0.084477
      3          6           0        1.417852    0.052044    1.412750
      4          6           0        0.204645   -0.621254    0.783600
      5          6           0       -1.002155    0.268695    0.504362
      6          6           0       -0.348656    1.473488   -0.234433
      7          8           0        0.859478    1.006546   -0.817748
      8          6           0       -1.982000   -0.448474   -0.400782
      9          8           0       -3.134806   -0.666367   -0.131609
     10          1           0        2.589606   -1.824877   -0.302880
     11          1           0        1.820327   -1.283924   -1.810842
     12          1           0        3.178793   -0.372541   -1.129088
     13          1           0        2.111990   -0.594674    1.938728
     14          1           0        1.306937    1.036386    1.854720
     15          1           0        0.045194   -1.681053    0.948822
     16          1           0       -1.537397    0.587569    1.402798
     17          1           0       -0.972795    1.882818   -1.035603
     18          1           0       -0.152915    2.281925    0.482161
     19          1           0       -1.546206   -0.767506   -1.376721
 ---------------------------------------------------------------------

 SCF Done:  E(RB3LYP) =  -423.186057020     A.U. after    1 cycles

 The electronic state is 1-A.
 Alpha  occ. eigenvalues --  -19.15161 -19.14084 -10.27094 -10.24908 -10.24391
 Alpha  occ. eigenvalues --  -10.20594 -10.20401 -10.19440 -10.18688  -1.05577
 Alpha  occ. eigenvalues --   -1.04711  -0.86203  -0.79324  -0.72092  -0.66791
 Alpha  occ. eigenvalues --   -0.60312  -0.58077  -0.56360  -0.51335  -0.48832
 Alpha  occ. eigenvalues --   -0.47597  -0.43936  -0.43226  -0.42865  -0.41445
 Alpha  occ. eigenvalues --   -0.40922  -0.39510  -0.38485  -0.35863  -0.33899
 Alpha  occ. eigenvalues --   -0.32886  -0.29745  -0.25127  -0.24026
 Alpha virt. eigenvalues --   -0.02437   0.08188   0.08791   0.10953   0.11183
 Alpha virt. eigenvalues --    0.12879   0.13849   0.14845   0.15067   0.16658
 Alpha virt. eigenvalues --    0.17385   0.17962   0.19289   0.19869   0.22131

 Mulliken charges:
               1
     1  C   -0.468505
     2  C    0.463289
     3  C   -0.373966
     4  C   -0.127684
     5  C   -0.105076
     6  C   -0.133833
     7  O   -0.289496
     8  C    0.156111
     9  O   -0.253084
    10  H    0.120716
    11  H    0.127027
    12  H    0.132571
    13  H    0.118753
    14  H    0.119352
    15  H    0.100658
    16  H    0.098648
    17  H    0.120933
    18  H    0.110848
    19  H    0.082738
 Sum of Mulliken charges =   0.00000

 Dipole moment (field-independent basis, Debye):
    X=              2.2717    Y=              0.0673    Z=              0.7420  Tot=              2.3908
 Quadrupole moment (field-independent basis, Debye-Ang):
   XX=            -63.4200   YY=            -51.3054   ZZ=            -53.0034
   XY=             -5.5285   XZ=              1.7499   YZ=              1.2671

  Exact polarizability:  89.381  -1.301  68.493   0.869   2.249  70.259
 Approx polarizability: 125.913   3.525 100.894  -1.772   0.611 106.110

                      1                      2                      3
                      A                      A                      A
 Frequencies --     67.3556                94.1878               182.7828
 Red. masses --      4.4443                 4.0592                 2.9343
 Frc consts  --      0.0119                 0.0212                 0.0578
 IR Inten    --      5.6326                 3.0285                 4.7813

                      4                      5                      6
                      A                      A                      A
 Frequencies --    211.2115               295.2213               303.6557
 Red. masses --      1.0493                 2.3023                 2.2920
 Frc consts  --      0.0276                 0.1182                 0.1245
 IR Inten    --      0.1945                 1.0567                 1.3061

                      7                      8                      9
                      A                      A                      A
 Frequencies --    340.9803               380.0875               452.3073
 Red. masses --      2.4217                 3.5319                 2.8170
 Frc consts  --      0.1659                 0.3006                 0.3396
 IR Inten    --      0.8635                 0.7119                 7.4723

                     10                     11                     12
                      A                      A                      A
 Frequencies --    459.6303               615.0902               720.1504
 Red. masses --      3.5268                 3.6810                 3.7026
 Frc consts  --      0.4390                 0.8205                 1.1314
 IR Inten    --      6.8807                 1.1970                 6.9606

                     13                     14                     15
                      A                      A                      A
 Frequencies --    757.0437               819.0878               866.3202
 Red. masses --      3.9194                 2.1575                 1.7016
 Frc consts  --      1.3235                 0.8528                 0.7524
 IR Inten    --      3.7842                 8.0484                 1.7050

                     16                     17                     18
                      A                      A                      A
 Frequencies --    895.7382               921.2645               939.2292
 Red. masses --      2.1906                 2.1646                 2.2720
 Frc consts  --      1.0355                 1.0824                 1.1809
 IR Inten    --     10.6105                22.6156                22.2509

                     19                     20                     21
                      A                      A                      A
 Frequencies --    943.2662               996.6739              1032.7119
 Red. masses --      1.5445                 1.9631                 1.5784
 Frc consts  --      0.8096                 1.1490                 0.9918
 IR Inten    --      3.4932                 5.0083                36.5914

                     22                     23                     24
                      A                      A                      A
 Frequencies --   1046.1364              1076.8450              1096.9857
 Red. masses --      1.3765                 3.0976                 2.5855
 Frc consts  --      0.8876                 2.1163                 1.8332
 IR Inten    --      2.0237                21.2555                26.7997

                     25                     26                     27
                      A                      A                      A
 Frequencies --   1115.0108              1123.5114              1150.3424
 Red. masses --      1.8924                 1.7042                 2.2666
 Frc consts  --      1.3862                 1.2674                 1.7671
 IR Inten    --      8.8499                16.2083                21.2539

                     28                     29                     30
                      A                      A                      A
 Frequencies --   1235.5940              1239.9284              1256.7824
 Red. masses --      1.2203                 2.1812                 1.4215
 Frc consts  --      1.0977                 1.9758                 1.3229
 IR Inten    --      1.3689                46.5936                 2.2489

                     31                     32                     33
                      A                      A                      A
 Frequencies --   1269.4072              1315.4660              1386.1142
 Red. masses --      1.6591                 1.5941                 1.3719
 Frc consts  --      1.5752                 1.6253                 1.5529
 IR Inten    --     19.9078                 1.4847                 6.7873

                     34                     35                     36
                      A                      A                      A
 Frequencies --   1393.2849              1428.2426              1429.9325
 Red. masses --      1.5506                 1.2089                 1.6773
 Frc consts  --      1.7734                 1.4530                 2.0206
 IR Inten    --      4.1286                 3.3807                 8.5166

                     37                     38                     39
                      A                      A                      A
 Frequencies --   1478.2558              1483.5383              1504.5668
 Red. masses --      1.0478                 1.3311                 1.1534
 Frc consts  --      1.3491                 1.7261                 1.5384
 IR Inten    --      1.9245                12.9815                 2.3316

                     40                     41                     42
                      A                      A                      A
 Frequencies --   1521.6783              1834.1796              2860.2144
 Red. masses --      1.0922                10.1292                 1.0819
 Frc consts  --      1.4900                20.0774                 5.2149
 IR Inten    --      2.5608               206.1809                82.6561

                     43                     44                     45
                      A                      A                      A
 Frequencies --   3012.1186              3039.7067              3072.6209
 Red. masses --      1.0672                 1.0354                 1.0963
 Frc consts  --      5.7049                 5.6366                 6.0982
 IR Inten    --     41.6809                23.1714                26.0314

                     46                     47                     48
                      A                      A                      A
 Frequencies --   3081.7182              3105.6541              3121.7625
 Red. masses --      1.0872                 1.1016                 1.1004
 Frc consts  --      6.0835                 6.2599                 6.3185
 IR Inten    --     19.4751                17.4517                13.9964

                     49                     50                     51
                      A                      A                      A
 Frequencies --   3132.5619              3171.0533              3218.1685
 Red. masses --      1.0550                 1.0913                 1.1164
 Frc consts  --      6.0995                 6.4653                 6.8120
 IR Inten    --     11.4025                 6.1207                 7.3293

 - Thermochemistry -
 -------------------
 Temperature   298.150 Kelvin.  Pressure   1.00000 Atm.
 Atom     1 has atomic number  6 and mass  12.00000

 Molecular mass:   126.06808 amu.
 Principal axes and moments of inertia in atomic units:
                           1         2         3
     Eigenvalues --   579.769881586.724081635.48304
           X            0.99937  -0.03432  -0.00947
           Y            0.03560   0.96406   0.26331
           Z            0.00009  -0.26348   0.96467
 This molecule is an asymmetric top.
 Rotational symmetry number  1.
 Warning -- assumption of classical behavior for rotation
           may cause significant error
 Rotational temperatures (Kelvin)      0.14939     0.05459     0.05296
 Rotational constants (GHZ):           3.11286     1.13740     1.10349
 Zero-point vibrational energy     415674.7 (Joules/Mol)
                                   99.34863 (Kcal/Mol)
 Warning -- explicit consideration of  11 degrees of freedom as
           vibrations may cause significant error
 Vibrational temperatures:     96.91   135.52   262.98   303.89   424.76
          (Kelvin)            436.89   490.59   546.86   650.77   661.30
                              884.98  1036.13  1089.22  1178.48  1246.44
                             1288.77  1325.49  1351.34  1357.15  1433.99
                             1485.84  1505.16  1549.34  1578.32  1604.25
                             1616.48  1655.08  1777.74  1783.98  1808.23
                             1826.39  1892.66  1994.31  2004.62  2054.92
                             2057.35  2126.88  2134.48  2164.73  2189.35
                             2638.97  4115.21  4333.76  4373.45  4420.81
                             4433.90  4468.34  4491.51  4507.05  4562.43
                             4630.22

 Zero-point correction=                           0.158322 (Hartree/Particle)
 Thermal correction to Energy=                    0.166906
 Thermal correction to Enthalpy=                  0.167850
 Thermal correction to Gibbs Free Energy=         0.124790
 Sum of electronic and zero-point Energies=           -423.027735
 Sum of electronic and thermal Energies=              -423.019151
 Sum of electronic and thermal Enthalpies=            -423.018207
 Sum of electronic and thermal Free Energies=         -423.061267

                     E (Thermal)             CV                S
                      KCal/Mol        Cal/Mol-Kelvin    Cal/Mol-Kelvin
 Total                  104.735             32.255             90.628
 Electronic               0.000              0.000              0.000
 Translational            0.889              2.981             40.409
 Rotational               0.889              2.981             28.799
 Vibrational            102.958             26.293             21.420
 Vibration     1          0.598              1.970              4.229
 Vibration     2          0.603              1.953              3.571
 Vibration     3          0.630              1.863              2.300
 Vibration     4          0.643              1.824              2.033
 Vibration     5          0.689              1.683              1.444
 Vibration     6          0.695              1.667              1.397
 Vibration     7          0.720              1.594              1.208
 Vibration     8          0.750              1.513              1.039
 Vibration     9          0.811              1.356              0.789
 Vibration    10          0.818              1.340              0.767
 Vibration    11          0.975              1.000              0.424

 Optimization completed.
    -- Stationary point found.
 Normal termination of Gaussian 09 at Mon Jan 27 18:13:19 2020.
