 Gaussian 09, Revision D.01,
 Gaussian 09:  ES64L-G09RevD.01 24-Apr-2013

 -----------------------------
 # b3lyp 6-31G(2df,p) opt Freq
 -----------------------------

 -----
 titel
 -----
 Symbolic Z-matrix:
 Charge =  0 Multiplicity = 1

 SCF Done:  E(RB3LYP) =  -423.204901873     A.U. after   14 cycles
 Optimization completed.
    -- Stationary point found.
 Normal termination of Gaussian 09 at Mon Jan 27 23:07:26 2020.

 ----------------------------------------------------------------------
 #N Geom=AllCheck Guess=TCheck SCRF=Check GenChk RB3LYP/6-31G(2df,p) Fr
 eq
 ----------------------------------------------------------------------

 Structure from the checkpoint file:  "/scratch/puck/g09_72bf582b-7efe-4aa2-8049-0e37e83d52b3/Gau-81806.chk"
 -----
 titel
 -----
 Charge =  0 Multiplicity = 1

                         Standard orientation:
 ---------------------------------------------------------------------
 Center     Atomic      Atomic             Coordinates (Angstroms)
 Number     Number       Type             X           Y           Z
 ---------------------------------------------------------------------
      1          6           0        2.668851    0.000000   -0.778959
      2          6           0        1.151737    0.000000   -0.658375
      3          6           0        0.584222    1.010761    0.367975
      4          6           0       -0.895792    1.301000    0.128116
      5          6           0       -1.648801    0.000000   -0.188973
      6          8           0       -2.757238    0.000000   -0.664574
      7          6           0       -0.895791   -1.301000    0.128117
      8          6           0        0.584222   -1.010761    0.367976
      9          8           0        0.671703    0.000000    1.412835
     10          1           0        3.133994    0.000000    0.211579
     11          1           0        3.020448   -0.884444   -1.320548
     12          1           0        3.020447    0.884444   -1.320547
     13          1           0        0.675439   -0.000001   -1.644854
     14          1           0        1.172511    1.902475    0.603365
     15          1           0       -1.335876    1.737171    1.032990
     16          1           0       -1.065600    2.009318   -0.689844
     17          1           0       -1.335876   -1.737171    1.032990
     18          1           0       -1.065599   -2.009318   -0.689844
     19          1           0        1.172511   -1.902474    0.603366
 ---------------------------------------------------------------------

 SCF Done:  E(RB3LYP) =  -423.204901873     A.U. after    1 cycles

 The electronic state is 1-A.
 Alpha  occ. eigenvalues --  -19.13997 -19.12920 -10.27287 -10.24393 -10.24393
 Alpha  occ. eigenvalues --  -10.20170 -10.19387 -10.19386 -10.18585  -1.05213
 Alpha  occ. eigenvalues --   -1.03926  -0.80142  -0.76412  -0.76247  -0.66156
 Alpha  occ. eigenvalues --   -0.63321  -0.57631  -0.51648  -0.49614  -0.47123
 Alpha  occ. eigenvalues --   -0.46911  -0.46165  -0.44244  -0.41789  -0.41278
 Alpha  occ. eigenvalues --   -0.39855  -0.38892  -0.37303  -0.37015  -0.34420
 Alpha  occ. eigenvalues --   -0.31177  -0.31046  -0.25752  -0.24152
 Alpha virt. eigenvalues --   -0.01863   0.09001   0.09167   0.11085   0.11679
 Alpha virt. eigenvalues --    0.11781   0.14315   0.15433   0.15771   0.16072
 Alpha virt. eigenvalues --    0.17131   0.17502   0.17802   0.18825   0.22462

 Mulliken charges:
               1
     1  C   -0.424237
     2  C   -0.000633
     3  C    0.078510
     4  C   -0.322020
     5  C    0.388112
     6  O   -0.309602
     7  C   -0.322020
     8  C    0.078510
     9  O   -0.303525
    10  H    0.135072
    11  H    0.118516
    12  H    0.118516
    13  H    0.076861
    14  H    0.080141
    15  H    0.138562
    16  H    0.125267
    17  H    0.138562
    18  H    0.125267
    19  H    0.080141
 Sum of Mulliken charges =   0.00000

 Dipole moment (field-independent basis, Debye):
    X=              2.4368    Y=              0.0000    Z=             -0.5734  Tot=              2.5033
 Quadrupole moment (field-independent basis, Debye-Ang):
   XX=            -62.0211   YY=            -48.4980   ZZ=            -55.7291
   XY=              0.0000   XZ=             -5.0018   YZ=              0.0000

  Exact polarizability:  84.875   0.000  75.605   0.591   0.000  63.331
 Approx polarizability: 114.416   0.000 109.519   7.245   0.000 103.207

                      1                      2                      3
                      A                      A                      A
 Frequencies --     63.3941               209.3024               237.9062
 Red. masses --      4.4940                 2.7525                 1.2760
 Frc consts  --      0.0106                 0.0710                 0.0426
 IR Inten    --      6.0099                 2.8147                 0.0449

                      4                      5                      6
                      A                      A                      A
 Frequencies --    249.9055               298.3383               387.9915
 Red. masses --      1.6981                 1.8919                 8.2811
 Frc consts  --      0.0625                 0.0992                 0.7345
 IR Inten    --      0.0001                 1.3472                 2.0766

                      7                      8                      9
                      A                      A                      A
 Frequencies --    396.3795               455.9555               498.5200
 Red. masses --      2.6341                 5.4195                 2.3861
 Frc consts  --      0.2438                 0.6638                 0.3494
 IR Inten    --      5.5605                12.6964                 1.0418

                     10                     11                     12
                      A                      A                      A
 Frequencies --    565.2325               693.1093               739.1472
 Red. masses --      4.3093                 3.6502                 4.8397
 Frc consts  --      0.8112                 1.0332                 1.5579
 IR Inten    --      0.7981                 2.6751                 2.4954

                     13                     14                     15
                      A                      A                      A
 Frequencies --    784.5607               798.3162               874.5084
 Red. masses --      1.8174                 2.3157                 2.1606
 Frc consts  --      0.6591                 0.8695                 0.9736
 IR Inten    --      4.9876                 1.2813                 0.6433

                     16                     17                     18
                      A                      A                      A
 Frequencies --    890.8130               922.6130               939.1950
 Red. masses --      4.0069                 3.2747                 1.9087
 Frc consts  --      1.8734                 1.6423                 0.9920
 IR Inten    --     27.9032                 9.7900                11.4003

                     19                     20                     21
                      A                      A                      A
 Frequencies --   1001.4636              1007.1285              1048.9481
 Red. masses --      2.3383                 1.8792                 1.2389
 Frc consts  --      1.3817                 1.1230                 0.8032
 IR Inten    --     27.6403                14.0025                13.0744

                     22                     23                     24
                      A                      A                      A
 Frequencies --   1057.5073              1094.5366              1133.9337
 Red. masses --      2.2165                 2.2403                 1.1193
 Frc consts  --      1.4605                 1.5813                 0.8480
 IR Inten    --      0.5304                 5.2837                12.4691

                     25                     26                     27
                      A                      A                      A
 Frequencies --   1138.6949              1154.4402              1209.1258
 Red. masses --      2.7958                 3.6475                 1.2602
 Frc consts  --      2.1359                 2.8641                 1.0855
 IR Inten    --      0.4119                57.9713                 0.1564

                     28                     29                     30
                      A                      A                      A
 Frequencies --   1249.6679              1253.4395              1283.6006
 Red. masses --      1.5979                 1.4826                 1.7468
 Frc consts  --      1.4702                 1.3724                 1.6957
 IR Inten    --      1.6865                 0.8908                 0.9092

                     31                     32                     33
                      A                      A                      A
 Frequencies --   1292.2537              1327.3631              1347.0605
 Red. masses --      1.7187                 1.4638                 1.5126
 Frc consts  --      1.6910                 1.5196                 1.6171
 IR Inten    --     12.2238                 3.0138                25.4048

                     34                     35                     36
                      A                      A                      A
 Frequencies --   1349.8187              1408.6224              1411.3873
 Red. masses --      1.4229                 1.6642                 1.2765
 Frc consts  --      1.5275                 1.9456                 1.4981
 IR Inten    --      2.7682                 2.3120                 0.8263

                     37                     38                     39
                      A                      A                      A
 Frequencies --   1435.8311              1440.5289              1497.1588
 Red. masses --      1.0850                 1.0898                 1.0488
 Frc consts  --      1.3180                 1.3324                 1.3851
 IR Inten    --     10.6871                 1.1400                 4.7316

                     40                     41                     42
                      A                      A                      A
 Frequencies --   1503.6322              1823.7784              3033.4634
 Red. masses --      1.0498                12.4855                 1.0358
 Frc consts  --      1.3984                24.4682                 5.6158
 IR Inten    --      3.3347               195.2143                24.7536

                     43                     44                     45
                      A                      A                      A
 Frequencies --   3040.3713              3041.2597              3046.7331
 Red. masses --      1.0609                 1.0630                 1.0833
 Frc consts  --      5.7779                 5.7931                 5.9245
 IR Inten    --      2.0246                13.8038                26.2738

                     46                     47                     48
                      A                      A                      A
 Frequencies --   3067.3977              3071.5041              3088.8590
 Red. masses --      1.0859                 1.0902                 1.1005
 Frc consts  --      6.0200                 6.0598                 6.1863
 IR Inten    --     69.3054                18.5878                 4.5627

                     49                     50                     51
                      A                      A                      A
 Frequencies --   3089.6030              3098.8945              3112.5882
 Red. masses --      1.1016                 1.1014                 1.1014
 Frc consts  --      6.1955                 6.2317                 6.2871
 IR Inten    --     12.3628                25.0538                22.6997

 - Thermochemistry -
 -------------------
 Temperature   298.150 Kelvin.  Pressure   1.00000 Atm.
 Atom     1 has atomic number  6 and mass  12.00000

 Molecular mass:   126.06808 amu.
 Principal axes and moments of inertia in atomic units:
                           1         2         3
     Eigenvalues --   548.547791403.068141484.70316
           X            0.99949   0.00000  -0.03185
           Y            0.00000   1.00000   0.00000
           Z            0.03185   0.00000   0.99949
 This molecule is an asymmetric top.
 Rotational symmetry number  1.
 Warning -- assumption of classical behavior for rotation
           may cause significant error
 Rotational temperatures (Kelvin)      0.15790     0.06173     0.05834
 Rotational constants (GHZ):           3.29003     1.28628     1.21556
 Zero-point vibrational energy     419684.6 (Joules/Mol)
                                  100.30702 (Kcal/Mol)
 Warning -- explicit consideration of  10 degrees of freedom as
           vibrations may cause significant error
 Vibrational temperatures:     91.21   301.14   342.29   359.56   429.24
          (Kelvin)            558.23   570.30   656.02   717.26   813.24
                              997.23  1063.47  1128.81  1148.60  1258.22
                             1281.68  1327.43  1351.29  1440.88  1449.03
                             1509.20  1521.52  1574.79  1631.48  1638.33
                             1660.98  1739.66  1797.99  1803.42  1846.81
                             1859.26  1909.78  1938.12  1942.09  2026.69
                             2030.67  2065.84  2072.60  2154.07  2163.39
                             2624.01  4364.47  4374.41  4375.69  4383.56
                             4413.30  4419.20  4444.17  4445.24  4458.61
                             4478.31

 Zero-point correction=                           0.159849 (Hartree/Particle)
 Thermal correction to Energy=                    0.167687
 Thermal correction to Enthalpy=                  0.168632
 Thermal correction to Gibbs Free Energy=         0.127447
 Sum of electronic and zero-point Energies=           -423.045052
 Sum of electronic and thermal Energies=              -423.037215
 Sum of electronic and thermal Enthalpies=            -423.036270
 Sum of electronic and thermal Free Energies=         -423.077454

                     E (Thermal)             CV                S
                      KCal/Mol        Cal/Mol-Kelvin    Cal/Mol-Kelvin
 Total                  105.225             30.777             86.679
 Electronic               0.000              0.000              0.000
 Translational            0.889              2.981             40.409
 Rotational               0.889              2.981             28.526
 Vibrational            103.448             24.816             17.745
 Vibration     1          0.597              1.972              4.349
 Vibration     2          0.642              1.827              2.050
 Vibration     3          0.656              1.783              1.818
 Vibration     4          0.663              1.763              1.731
 Vibration     5          0.691              1.677              1.426
 Vibration     6          0.756              1.496              1.008
 Vibration     7          0.763              1.478              0.976
 Vibration     8          0.814              1.348              0.778
 Vibration     9          0.854              1.253              0.662
 Vibration    10          0.921              1.106              0.513

 Optimization completed.
    -- Stationary point found.
 Normal termination of Gaussian 09 at Mon Jan 27 23:55:19 2020.
