 Gaussian 09, Revision D.01,
 Gaussian 09:  ES64L-G09RevD.01 24-Apr-2013

 -----------------------------
 # b3lyp 6-31G(2df,p) opt Freq
 -----------------------------

 -----
 titel
 -----
 Symbolic Z-matrix:
 Charge =  0 Multiplicity = 1

 SCF Done:  E(RB3LYP) =  -423.117834242     A.U. after   12 cycles
 Optimization completed.
    -- Stationary point found.
 Normal termination of Gaussian 09 at Tue Jan 28 10:08:51 2020.

 ----------------------------------------------------------------------
 #N Geom=AllCheck Guess=TCheck SCRF=Check GenChk RB3LYP/6-31G(2df,p) Fr
 eq
 ----------------------------------------------------------------------

 Structure from the checkpoint file:  "/scratch/puck/g09_9470995e-c120-45f6-a5ab-df663420bbb2/Gau-191504.chk"
 -----
 titel
 -----
 Charge =  0 Multiplicity = 1

                         Standard orientation:
 ---------------------------------------------------------------------
 Center     Atomic      Atomic             Coordinates (Angstroms)
 Number     Number       Type             X           Y           Z
 ---------------------------------------------------------------------
      1          6           0        2.630625   -0.087682   -0.633437
      2          6           0        1.768181   -0.067093    0.636994
      3          6           0        0.324512   -0.305922    0.345241
      4          8           0       -0.084400   -1.521814   -0.297655
      5          6           0       -1.449465   -1.141711    0.043206
      6          6           0       -1.755313    0.053437   -0.897059
      7          6           0       -0.710179    0.781242   -0.047438
      8          8           0       -0.451494    2.132863    0.033724
      9          6           0       -0.935896   -0.141569    1.140835
     10          1           0        2.513433   -1.036960   -1.163061
     11          1           0        2.343029    0.713844   -1.322625
     12          1           0        3.688940    0.042172   -0.389956
     13          1           0        2.126619   -0.827745    1.340852
     14          1           0        1.853230    0.901144    1.143741
     15          1           0       -2.123654   -1.985484    0.167911
     16          1           0       -1.573469   -0.106914   -1.964849
     17          1           0       -2.754924    0.461095   -0.725227
     18          1           0        0.136243    2.376417   -0.690568
     19          1           0       -1.157086    0.029836    2.185172
 ---------------------------------------------------------------------

 SCF Done:  E(RB3LYP) =  -423.117834242     A.U. after    1 cycles

 The electronic state is 1-A.
 Alpha  occ. eigenvalues --  -19.15653 -19.13079 -10.24316 -10.24048 -10.23596
 Alpha  occ. eigenvalues --  -10.18897 -10.18737 -10.18359 -10.17746  -1.06174
 Alpha  occ. eigenvalues --   -1.03439  -0.84815  -0.78359  -0.71618  -0.64612
 Alpha  occ. eigenvalues --   -0.62610  -0.57360  -0.54268  -0.50450  -0.48545
 Alpha  occ. eigenvalues --   -0.45667  -0.43722  -0.43165  -0.42347  -0.40075
 Alpha  occ. eigenvalues --   -0.38287  -0.37020  -0.35750  -0.34891  -0.33293
 Alpha  occ. eigenvalues --   -0.31028  -0.28067  -0.25542  -0.21462
 Alpha virt. eigenvalues --    0.05613   0.08386   0.10666   0.13007   0.13210
 Alpha virt. eigenvalues --    0.13974   0.15141   0.15694   0.16129   0.16356
 Alpha virt. eigenvalues --    0.17298   0.18391   0.19479   0.20707   0.21917

 Mulliken charges:
               1
     1  C   -0.375032
     2  C   -0.318241
     3  C    0.426007
     4  O   -0.331706
     5  C    0.063749
     6  C   -0.303661
     7  C    0.291813
     8  O   -0.456362
     9  C   -0.265886
    10  H    0.141314
    11  H    0.102921
    12  H    0.113311
    13  H    0.111522
    14  H    0.113992
    15  H    0.089472
    16  H    0.095087
    17  H    0.108069
    18  H    0.290023
    19  H    0.103608
 Sum of Mulliken charges =   0.00000

 Dipole moment (field-independent basis, Debye):
    X=              0.1989    Y=              0.7080    Z=             -0.1687  Tot=              0.7545
 Quadrupole moment (field-independent basis, Debye-Ang):
   XX=            -49.6196   YY=            -56.4321   ZZ=            -51.5272
   XY=              3.8735   XZ=             -0.0798   YZ=             -3.5975

  Exact polarizability:  84.655   2.569  70.342   0.754  -1.772  68.828
 Approx polarizability: 111.829   1.154 109.659  -1.155  -1.438 104.385

                      1                      2                      3
                      A                      A                      A
 Frequencies --     79.6130               139.9561               179.9406
 Red. masses --      2.6545                 2.8527                 1.4728
 Frc consts  --      0.0099                 0.0329                 0.0281
 IR Inten    --      0.1199                 0.3185                 0.2624

                      4                      5                      6
                      A                      A                      A
 Frequencies --    247.8499               284.3766               305.4201
 Red. masses --      1.6257                 2.2244                 1.3795
 Frc consts  --      0.0588                 0.1060                 0.0758
 IR Inten    --     10.5952                40.8583                63.1359

                      7                      8                      9
                      A                      A                      A
 Frequencies --    396.1068               424.3969               454.0297
 Red. masses --      3.3307                 3.1368                 2.1325
 Frc consts  --      0.3079                 0.3329                 0.2590
 IR Inten    --      4.8275                14.7720                 1.5130

                     10                     11                     12
                      A                      A                      A
 Frequencies --    517.2735               640.4923               663.8355
 Red. masses --      4.6828                 3.7974                 3.3571
 Frc consts  --      0.7382                 0.9178                 0.8716
 IR Inten    --      1.9666                 5.1649                 0.4635

                     13                     14                     15
                      A                      A                      A
 Frequencies --    732.7917               794.2531               801.3459
 Red. masses --      2.4986                 2.6276                 1.7784
 Frc consts  --      0.7905                 0.9766                 0.6729
 IR Inten    --      4.4907                 2.6054                11.3498

                     16                     17                     18
                      A                      A                      A
 Frequencies --    813.5162               898.9064               909.0034
 Red. masses --      1.8802                 1.8300                 2.0547
 Frc consts  --      0.7332                 0.8712                 1.0003
 IR Inten    --      5.2974                 9.4446                 2.0232

                     19                     20                     21
                      A                      A                      A
 Frequencies --    925.0827               966.0708               982.2929
 Red. masses --      3.6732                 1.8386                 2.9409
 Frc consts  --      1.8521                 1.0110                 1.6719
 IR Inten    --     48.1717                19.4097                11.7414

                     22                     23                     24
                      A                      A                      A
 Frequencies --   1012.8332              1034.3078              1066.3004
 Red. masses --      3.2548                 1.9494                 2.1208
 Frc consts  --      1.9672                 1.2287                 1.4208
 IR Inten    --      1.8158                11.2805                16.2072

                     25                     26                     27
                      A                      A                      A
 Frequencies --   1099.0358              1122.7642              1128.0856
 Red. masses --      1.9057                 1.5772                 1.6156
 Frc consts  --      1.3562                 1.1714                 1.2113
 IR Inten    --      4.4423                 3.8223                 0.2601

                     28                     29                     30
                      A                      A                      A
 Frequencies --   1158.8274              1224.9364              1235.0574
 Red. masses --      1.9106                 2.0344                 1.8141
 Frc consts  --      1.5117                 1.7985                 1.6304
 IR Inten    --     27.7065                 9.3555                 5.7202

                     31                     32                     33
                      A                      A                      A
 Frequencies --   1272.1143              1290.3876              1316.9076
 Red. masses --      1.4178                 1.6541                 1.4658
 Frc consts  --      1.3518                 1.6227                 1.4978
 IR Inten    --     23.1745               134.3771                 8.0726

                     34                     35                     36
                      A                      A                      A
 Frequencies --   1336.9181              1395.7414              1412.3176
 Red. masses --      1.4532                 2.3962                 1.2847
 Frc consts  --      1.5303                 2.7503                 1.5097
 IR Inten    --      5.5586                15.7726                 1.0359

                     37                     38                     39
                      A                      A                      A
 Frequencies --   1452.2349              1473.6880              1491.4865
 Red. masses --      3.2710                 1.0935                 1.2746
 Frc consts  --      4.0644                 1.3992                 1.6706
 IR Inten    --      8.1153                 1.9900                 5.7399

                     40                     41                     42
                      A                      A                      A
 Frequencies --   1497.3480              1507.0982              3032.4124
 Red. masses --      1.0487                 1.1126                 1.0600
 Frc consts  --      1.3853                 1.4890                 5.7429
 IR Inten    --      5.7722                 4.5525                18.8184

                     43                     44                     45
                      A                      A                      A
 Frequencies --   3038.3888              3044.7416              3071.2519
 Red. masses --      1.0380                 1.0575                 1.0994
 Frc consts  --      5.6461                 5.7759                 6.1101
 IR Inten    --     26.9278                43.5271                 6.4656

                     46                     47                     48
                      A                      A                      A
 Frequencies --   3104.9939              3112.7793              3123.3972
 Red. masses --      1.1005                 1.1071                 1.1018
 Frc consts  --      6.2510                 6.3201                 6.3332
 IR Inten    --     44.3211                20.3132                20.9601

                     49                     50                     51
                      A                      A                      A
 Frequencies --   3150.8581              3211.2093              3788.0740
 Red. masses --      1.0930                 1.0983                 1.0661
 Frc consts  --      6.3935                 6.6728                 9.0130
 IR Inten    --     34.9830                 5.6441                21.0724

 - Thermochemistry -
 -------------------
 Temperature   298.150 Kelvin.  Pressure   1.00000 Atm.
 Atom     1 has atomic number  6 and mass  12.00000

 Molecular mass:   126.06808 amu.
 Principal axes and moments of inertia in atomic units:
                           1         2         3
     Eigenvalues --   718.717261097.998851431.24078
           X            0.99971   0.02378  -0.00242
           Y           -0.02382   0.99952  -0.01995
           Z            0.00194   0.02000   0.99980
 This molecule is an asymmetric top.
 Rotational symmetry number  1.
 Warning -- assumption of classical behavior for rotation
           may cause significant error
 Rotational temperatures (Kelvin)      0.12051     0.07888     0.06052
 Rotational constants (GHZ):           2.51106     1.64366     1.26096
 Zero-point vibrational energy     414883.2 (Joules/Mol)
                                   99.15946 (Kcal/Mol)
 Warning -- explicit consideration of  10 degrees of freedom as
           vibrations may cause significant error
 Vibrational temperatures:    114.55   201.37   258.89   356.60   409.15
          (Kelvin)            439.43   569.91   610.61   653.25   744.24
                              921.52   955.11  1054.32  1142.75  1152.96
                             1170.47  1293.32  1307.85  1330.99  1389.96
                             1413.30  1457.24  1488.14  1534.17  1581.27
                             1615.41  1623.06  1667.29  1762.41  1776.97
                             1830.29  1856.58  1894.73  1923.52  2008.16
                             2032.01  2089.44  2120.31  2145.91  2154.35
                             2168.38  4362.96  4371.56  4380.70  4418.84
                             4467.39  4478.59  4493.87  4533.38  4620.21
                             5450.19

 Zero-point correction=                           0.158021 (Hartree/Particle)
 Thermal correction to Energy=                    0.166433
 Thermal correction to Enthalpy=                  0.167378
 Thermal correction to Gibbs Free Energy=         0.125173
 Sum of electronic and zero-point Energies=           -422.959814
 Sum of electronic and thermal Energies=              -422.951401
 Sum of electronic and thermal Enthalpies=            -422.950457
 Sum of electronic and thermal Free Energies=         -422.992661

                     E (Thermal)             CV                S
                      KCal/Mol        Cal/Mol-Kelvin    Cal/Mol-Kelvin
 Total                  104.439             32.730             88.827
 Electronic               0.000              0.000              0.000
 Translational            0.889              2.981             40.409
 Rotational               0.889              2.981             28.515
 Vibrational            102.661             26.768             19.904
 Vibration     1          0.600              1.963              3.900
 Vibration     2          0.615              1.913              2.804
 Vibration     3          0.629              1.867              2.329
 Vibration     4          0.661              1.766              1.746
 Vibration     5          0.683              1.703              1.507
 Vibration     6          0.696              1.663              1.387
 Vibration     7          0.763              1.478              0.977
 Vibration     8          0.786              1.417              0.877
 Vibration     9          0.812              1.352              0.784
 Vibration    10          0.872              1.212              0.616

 Optimization completed.
    -- Stationary point found.
 Normal termination of Gaussian 09 at Tue Jan 28 10:44:36 2020.
