 Gaussian 09, Revision D.01,
 Gaussian 09:  ES64L-G09RevD.01 24-Apr-2013

 -----------------------------
 # b3lyp 6-31G(2df,p) opt Freq
 -----------------------------

 -----
 titel
 -----
 Symbolic Z-matrix:
 Charge =  0 Multiplicity = 1

 SCF Done:  E(RB3LYP) =  -423.115128809     A.U. after   13 cycles
 Optimization completed.
    -- Stationary point found.
 Normal termination of Gaussian 09 at Mon Jan 27 12:07:10 2020.

 ----------------------------------------------------------------------
 #N Geom=AllCheck Guess=TCheck SCRF=Check GenChk RB3LYP/6-31G(2df,p) Fr
 eq
 ----------------------------------------------------------------------

 Structure from the checkpoint file:  "/scratch/puck/g09_475b15bb-2e64-42ea-9275-b646dcfb1283/Gau-18711.chk"
 -----
 titel
 -----
 Charge =  0 Multiplicity = 1

                         Standard orientation:
 ---------------------------------------------------------------------
 Center     Atomic      Atomic             Coordinates (Angstroms)
 Number     Number       Type             X           Y           Z
 ---------------------------------------------------------------------
      1          6           0       -2.506914   -1.040996    0.400470
      2          8           0       -2.933124    0.247670   -0.046832
      3          6           0       -1.588912   -0.154756   -0.327286
      4          6           0       -0.502159    0.604205    0.354012
      5          6           0        0.287996    1.645975   -0.415822
      6          6           0        0.933460    0.359219   -0.015186
      7          6           0        2.124948    0.128442    0.908851
      8          8           0        2.633010   -0.900159    0.031052
      9          6           0        1.536667   -0.735867   -0.893796
     10          1           0       -2.402082   -1.149551    1.479554
     11          1           0       -2.962642   -1.890145   -0.107313
     12          1           0       -1.407078   -0.374009   -1.381770
     13          1           0       -0.704269    0.821013    1.400185
     14          1           0        0.044082    1.788252   -1.465002
     15          1           0        0.577872    2.554142    0.102923
     16          1           0        2.824632    0.969282    1.005668
     17          1           0        1.891433   -0.262679    1.908128
     18          1           0        1.880365   -0.416610   -1.886624
     19          1           0        0.948090   -1.657110   -0.996969
 ---------------------------------------------------------------------

 SCF Done:  E(RB3LYP) =  -423.115128809     A.U. after    1 cycles

 The electronic state is 1-A.
 Alpha  occ. eigenvalues --  -19.15135 -19.13483 -10.24505 -10.23563 -10.23508
 Alpha  occ. eigenvalues --  -10.23423 -10.20873 -10.20357 -10.19597  -1.07162
 Alpha  occ. eigenvalues --   -1.03991  -0.87236  -0.70350  -0.69606  -0.67798
 Alpha  occ. eigenvalues --   -0.64702  -0.59013  -0.54740  -0.51962  -0.50086
 Alpha  occ. eigenvalues --   -0.48579  -0.47682  -0.44034  -0.41944  -0.40781
 Alpha  occ. eigenvalues --   -0.39702  -0.37399  -0.36956  -0.32990  -0.32387
 Alpha  occ. eigenvalues --   -0.30431  -0.27502  -0.26554  -0.24649
 Alpha virt. eigenvalues --    0.06444   0.08000   0.09009   0.10032   0.10996
 Alpha virt. eigenvalues --    0.11654   0.12399   0.12949   0.15177   0.16559
 Alpha virt. eigenvalues --    0.16886   0.17670   0.18744   0.20419   0.21364

 Mulliken charges:
               1
     1  C   -0.188609
     2  O   -0.236524
     3  C    0.090762
     4  C   -0.097614
     5  C   -0.363835
     6  C    0.279691
     7  C   -0.135470
     8  O   -0.274894
     9  C   -0.137547
    10  H    0.113628
    11  H    0.116031
    12  H    0.090086
    13  H    0.093002
    14  H    0.119467
    15  H    0.119975
    16  H    0.103715
    17  H    0.102027
    18  H    0.103370
    19  H    0.102738
 Sum of Mulliken charges =   0.00000

 Dipole moment (field-independent basis, Debye):
    X=              0.0432    Y=              0.0316    Z=              0.1489  Tot=              0.1582
 Quadrupole moment (field-independent basis, Debye-Ang):
   XX=            -65.6558   YY=            -52.4592   ZZ=            -49.1383
   XY=              8.0738   XZ=             -0.2431   YZ=              0.7509

  Exact polarizability:  84.340   6.780  73.019  -0.861  -0.207  71.421
 Approx polarizability: 111.472   3.796 107.486  -2.336  -1.722 105.673

                      1                      2                      3
                      A                      A                      A
 Frequencies --     57.0204               101.1583               129.7060
 Red. masses --      4.6065                 3.6122                 3.3949
 Frc consts  --      0.0088                 0.0218                 0.0337
 IR Inten    --      4.9355                 2.7461                 3.7331

                      4                      5                      6
                      A                      A                      A
 Frequencies --    151.9065               308.2216               316.7991
 Red. masses --      2.5349                 3.4651                 2.3600
 Frc consts  --      0.0345                 0.1939                 0.1396
 IR Inten    --      1.2065                 4.5647                 0.7686

                      7                      8                      9
                      A                      A                      A
 Frequencies --    346.5943               411.3737               469.1297
 Red. masses --      2.7953                 2.8228                 2.8911
 Frc consts  --      0.1978                 0.2815                 0.3749
 IR Inten    --      1.6279                 0.0484                 1.4110

                     10                     11                     12
                      A                      A                      A
 Frequencies --    609.2709               795.5138               850.7551
 Red. masses --      3.7016                 1.7207                 6.8468
 Frc consts  --      0.8096                 0.6416                 2.9198
 IR Inten    --      6.8962                 8.1220                24.9941

                     13                     14                     15
                      A                      A                      A
 Frequencies --    859.1376               871.4064               890.5291
 Red. masses --      3.5362                 2.0960                 1.5008
 Frc consts  --      1.5378                 0.9377                 0.7013
 IR Inten    --      3.1043                 4.5971                 2.3362

                     16                     17                     18
                      A                      A                      A
 Frequencies --    916.5102               941.6106               979.9816
 Red. masses --      1.4297                 3.3565                 3.7749
 Frc consts  --      0.7076                 1.7534                 2.1360
 IR Inten    --     15.1755                47.5258                 4.8868

                     19                     20                     21
                      A                      A                      A
 Frequencies --    994.4022              1033.8025              1051.3184
 Red. masses --      1.4840                11.1943                 2.2036
 Frc consts  --      0.8646                 7.0489                 1.4350
 IR Inten    --      2.4017                87.5464                 1.9088

                     22                     23                     24
                      A                      A                      A
 Frequencies --   1056.2698              1090.1984              1101.4433
 Red. masses --      1.2442                 1.7571                 1.2923
 Frc consts  --      0.8179                 1.2304                 0.9237
 IR Inten    --      1.8158                 1.6334                 1.5613

                     25                     26                     27
                      A                      A                      A
 Frequencies --   1132.1849              1152.8643              1154.8580
 Red. masses --      1.8081                 1.1112                 1.3444
 Frc consts  --      1.3655                 0.8701                 1.0564
 IR Inten    --      0.0896                 0.1645                 0.9798

                     28                     29                     30
                      A                      A                      A
 Frequencies --   1161.7761              1170.8432              1195.4916
 Red. masses --      1.3196                 1.3310                 2.1691
 Frc consts  --      1.0494                 1.0750                 1.8265
 IR Inten    --      0.9727                 2.1938                 5.3112

                     31                     32                     33
                      A                      A                      A
 Frequencies --   1227.1843              1291.4221              1300.6515
 Red. masses --      2.1906                 1.7165                 1.3643
 Frc consts  --      1.9437                 1.6867                 1.3599
 IR Inten    --      2.2583                13.9759                 1.7254

                     34                     35                     36
                      A                      A                      A
 Frequencies --   1312.7113              1352.1201              1413.6980
 Red. masses --      1.4063                 1.5079                 2.0141
 Frc consts  --      1.4278                 1.6242                 2.3716
 IR Inten    --      1.7471                 2.4659                16.3997

                     37                     38                     39
                      A                      A                      A
 Frequencies --   1464.4014              1504.3702              1511.1022
 Red. masses --      1.2901                 1.9385                 1.0830
 Frc consts  --      1.6301                 2.5848                 1.4570
 IR Inten    --     11.0702                 1.3515                 2.1916

                     40                     41                     42
                      A                      A                      A
 Frequencies --   1533.7891              1535.3142              2995.3019
 Red. masses --      1.5525                 1.1212                 1.0519
 Frc consts  --      2.1519                 1.5572                 5.5606
 IR Inten    --      5.9608                 1.1898               127.2733

                     43                     44                     45
                      A                      A                      A
 Frequencies --   3006.4654              3040.7886              3041.9815
 Red. masses --      1.0571                 1.1089                 1.1129
 Frc consts  --      5.6296                 6.0409                 6.0676
 IR Inten    --      6.0243                 2.8463                85.7404

                     46                     47                     48
                      A                      A                      A
 Frequencies --   3078.9913              3085.2675              3119.4105
 Red. masses --      1.0524                 1.0847                 1.0544
 Frc consts  --      5.8785                 6.0836                 6.0449
 IR Inten    --     28.7940                15.8476                11.6449

                     49                     50                     51
                      A                      A                      A
 Frequencies --   3140.3549              3165.8958              3205.8015
 Red. masses --      1.0886                 1.1193                 1.1161
 Frc consts  --      6.3253                 6.6097                 6.7581
 IR Inten    --      7.7047                27.7476                 7.5791

 - Thermochemistry -
 -------------------
 Temperature   298.150 Kelvin.  Pressure   1.00000 Atm.
 Atom     1 has atomic number  6 and mass  12.00000

 Molecular mass:   126.06808 amu.
 Principal axes and moments of inertia in atomic units:
                           1         2         3
     Eigenvalues --   484.055091888.912882059.43568
           X            0.99970   0.02457  -0.00040
           Y           -0.02456   0.99959   0.01487
           Z            0.00077  -0.01486   0.99989
 This molecule is an asymmetric top.
 Rotational symmetry number  1.
 Warning -- assumption of classical behavior for rotation
           may cause significant error
 Rotational temperatures (Kelvin)      0.17893     0.04585     0.04206
 Rotational constants (GHZ):           3.72838     0.95544     0.87633
 Zero-point vibrational energy     416474.5 (Joules/Mol)
                                   99.53980 (Kcal/Mol)
 Warning -- explicit consideration of  10 degrees of freedom as
           vibrations may cause significant error
 Vibrational temperatures:     82.04   145.54   186.62   218.56   443.46
          (Kelvin)            455.80   498.67   591.87   674.97   876.60
                             1144.57  1224.05  1236.11  1253.76  1281.27
                             1318.65  1354.77  1409.97  1430.72  1487.41
                             1512.61  1519.73  1568.55  1584.73  1628.96
                             1658.71  1661.58  1671.53  1684.58  1720.04
                             1765.64  1858.07  1871.35  1888.70  1945.40
                             2033.99  2106.94  2164.45  2174.14  2206.78
                             2208.97  4309.57  4325.63  4375.01  4376.73
                             4429.98  4439.01  4488.13  4518.26  4555.01
                             4612.43

 Zero-point correction=                           0.158627 (Hartree/Particle)
 Thermal correction to Energy=                    0.167054
 Thermal correction to Enthalpy=                  0.167998
 Thermal correction to Gibbs Free Energy=         0.124689
 Sum of electronic and zero-point Energies=           -422.956502
 Sum of electronic and thermal Energies=              -422.948075
 Sum of electronic and thermal Enthalpies=            -422.947131
 Sum of electronic and thermal Free Energies=         -422.990440

                     E (Thermal)             CV                S
                      KCal/Mol        Cal/Mol-Kelvin    Cal/Mol-Kelvin
 Total                  104.828             31.078             91.153
 Electronic               0.000              0.000              0.000
 Translational            0.889              2.981             40.409
 Rotational               0.889              2.981             29.022
 Vibrational            103.051             25.116             21.722
 Vibration     1          0.596              1.975              4.558
 Vibration     2          0.604              1.948              3.432
 Vibration     3          0.612              1.924              2.950
 Vibration     4          0.619              1.901              2.648
 Vibration     5          0.698              1.658              1.372
 Vibration     6          0.704              1.642              1.327
 Vibration     7          0.725              1.582              1.182
 Vibration     8          0.775              1.446              0.922
 Vibration     9          0.826              1.319              0.740
 Vibration    10          0.968              1.012              0.434

 Normal termination of Gaussian 09 at Mon Jan 27 12:53:28 2020.
