 Gaussian 09, Revision D.01,
 Gaussian 09:  ES64L-G09RevD.01 24-Apr-2013

 -----------------------------
 # b3lyp 6-31G(2df,p) opt Freq
 -----------------------------

 -----
 titel
 -----
 Symbolic Z-matrix:
 Charge =  0 Multiplicity = 1

 SCF Done:  E(RB3LYP) =  -423.180355189     A.U. after   13 cycles
 Optimization completed.
    -- Stationary point found.
 Normal termination of Gaussian 09 at Mon Jan 27 22:14:45 2020.

 ----------------------------------------------------------------------
 #N Geom=AllCheck Guess=TCheck SCRF=Check GenChk RB3LYP/6-31G(2df,p) Fr
 eq
 ----------------------------------------------------------------------

 Structure from the checkpoint file:  "/scratch/puck/g09_8d47d6e9-aa51-4782-ba6f-f023c51a5851/Gau-29106.chk"
 -----
 titel
 -----
 Charge =  0 Multiplicity = 1

                         Standard orientation:
 ---------------------------------------------------------------------
 Center     Atomic      Atomic             Coordinates (Angstroms)
 Number     Number       Type             X           Y           Z
 ---------------------------------------------------------------------
      1          6           0       -3.035965    0.031156   -0.193798
      2          6           0       -1.623343   -0.015596    0.347289
      3          6           0       -0.555880    0.793715   -0.344843
      4          6           0       -0.560216   -0.725629   -0.454347
      5          6           0        0.744703   -1.067619    0.264537
      6          8           0        1.821864   -0.743490   -0.618711
      7          6           0        1.904695    0.693515   -0.559563
      8          6           0        0.750355    1.039822    0.413294
      9          8           0        0.831944   -0.096467    1.291551
     10          1           0       -3.590245   -0.874742    0.074055
     11          1           0       -3.583902    0.889733    0.209153
     12          1           0       -3.043731    0.114278   -1.285810
     13          1           0       -1.544978   -0.095167    1.427325
     14          1           0       -0.805054    1.427703   -1.187873
     15          1           0       -0.799896   -1.240538   -1.376419
     16          1           0        0.886368   -2.072555    0.660812
     17          1           0        2.884127    0.985962   -0.164753
     18          1           0        1.766989    1.125515   -1.556520
     19          1           0        0.853770    1.963280    0.981900
 ---------------------------------------------------------------------

 SCF Done:  E(RB3LYP) =  -423.180355189     A.U. after    1 cycles

 The electronic state is 1-A.
 Alpha  occ. eigenvalues --  -19.14858 -19.13655 -10.27590 -10.24179 -10.22840
 Alpha  occ. eigenvalues --  -10.19415 -10.19243 -10.18767 -10.18106  -1.09455
 Alpha  occ. eigenvalues --   -0.98725  -0.86506  -0.76502  -0.72219  -0.63387
 Alpha  occ. eigenvalues --   -0.62900  -0.57184  -0.56135  -0.53519  -0.50316
 Alpha  occ. eigenvalues --   -0.46702  -0.44139  -0.42995  -0.41135  -0.40072
 Alpha  occ. eigenvalues --   -0.39199  -0.37979  -0.36869  -0.34294  -0.33726
 Alpha  occ. eigenvalues --   -0.29278  -0.28110  -0.27045  -0.24610
 Alpha virt. eigenvalues --    0.09405   0.10918   0.11624   0.12202   0.12543
 Alpha virt. eigenvalues --    0.13151   0.14407   0.15546   0.16027   0.17125
 Alpha virt. eigenvalues --    0.17525   0.17942   0.18713   0.20390   0.22064

 Mulliken charges:
               1
     1  C   -0.423433
     2  C   -0.038410
     3  C   -0.054014
     4  C   -0.080726
     5  C    0.170829
     6  O   -0.274066
     7  C   -0.077391
     8  C   -0.000627
     9  O   -0.252178
    10  H    0.121006
    11  H    0.119732
    12  H    0.113972
    13  H    0.100257
    14  H    0.090334
    15  H    0.095385
    16  H    0.092366
    17  H    0.105889
    18  H    0.101606
    19  H    0.089471
 Sum of Mulliken charges =   0.00000

 Dipole moment (field-independent basis, Debye):
    X=             -1.2579    Y=              1.1603    Z=             -0.6869  Tot=              1.8441
 Quadrupole moment (field-independent basis, Debye-Ang):
   XX=            -54.4314   YY=            -49.9795   ZZ=            -54.9202
   XY=              3.1256   XZ=              0.5067   YZ=             -1.1502

  Exact polarizability:  87.041   3.144  70.999  -1.165  -1.246  63.404
 Approx polarizability: 109.520   2.045 112.109  -3.139  -1.079 101.406

                      1                      2                      3
                      A                      A                      A
 Frequencies --    188.2884               201.4987               240.5976
 Red. masses --      3.0444                 1.1829                 2.3569
 Frc consts  --      0.0636                 0.0283                 0.0804
 IR Inten    --      0.1306                 0.2521                 0.3784

                      4                      5                      6
                      A                      A                      A
 Frequencies --    265.9675               381.8982               409.7263
 Red. masses --      2.4232                 2.5495                 3.4504
 Frc consts  --      0.1010                 0.2191                 0.3413
 IR Inten    --      2.7294                 0.7699                 0.0711

                      7                      8                      9
                      A                      A                      A
 Frequencies --    446.2612               629.0385               673.6411
 Red. masses --      4.9873                 5.0136                 6.7533
 Frc consts  --      0.5852                 1.1688                 1.8056
 IR Inten    --      3.8273                 8.0233                 5.7310

                     10                     11                     12
                      A                      A                      A
 Frequencies --    798.3941               820.0921               829.2231
 Red. masses --      4.0103                 3.0933                 1.9161
 Frc consts  --      1.5061                 1.2257                 0.7763
 IR Inten    --      2.6213                 2.1131                 8.3822

                     13                     14                     15
                      A                      A                      A
 Frequencies --    841.3002               897.8266               906.9425
 Red. masses --      3.1205                 2.4338                 2.4729
 Frc consts  --      1.3013                 1.1559                 1.1985
 IR Inten    --      2.1821                46.6260                25.9211

                     16                     17                     18
                      A                      A                      A
 Frequencies --    914.6818               951.7614               976.6611
 Red. masses --      2.8468                 1.8563                 5.0434
 Frc consts  --      1.4033                 0.9907                 2.8344
 IR Inten    --     38.1910                 6.2183                45.0169

                     19                     20                     21
                      A                      A                      A
 Frequencies --    982.1609              1005.1545              1022.3957
 Red. masses --      1.9936                 2.0840                 2.8027
 Frc consts  --      1.1331                 1.2405                 1.7261
 IR Inten    --     11.9683                16.0684                 6.0342

                     22                     23                     24
                      A                      A                      A
 Frequencies --   1065.9850              1072.7087              1086.7695
 Red. masses --      1.6395                 1.8226                 1.9039
 Frc consts  --      1.0977                 1.2357                 1.3248
 IR Inten    --     16.0099                 8.9780                46.5490

                     25                     26                     27
                      A                      A                      A
 Frequencies --   1114.8048              1133.5231              1152.1420
 Red. masses --      2.2083                 2.3466                 1.4656
 Frc consts  --      1.6170                 1.7765                 1.1462
 IR Inten    --     34.4251                 5.1968                 0.5832

                     28                     29                     30
                      A                      A                      A
 Frequencies --   1190.7777              1205.7295              1252.9947
 Red. masses --      1.1072                 1.9046                 1.3535
 Frc consts  --      0.9250                 1.6314                 1.2520
 IR Inten    --      1.9122                 1.8275                 0.7993

                     31                     32                     33
                      A                      A                      A
 Frequencies --   1269.3510              1270.8499              1300.1897
 Red. masses --      1.3159                 1.2763                 1.5242
 Frc consts  --      1.2493                 1.2145                 1.5181
 IR Inten    --      0.4920                 0.9728                 4.6468

                     34                     35                     36
                      A                      A                      A
 Frequencies --   1315.3030              1338.8753              1367.9063
 Red. masses --      1.6109                 1.5456                 1.4063
 Frc consts  --      1.6420                 1.6324                 1.5503
 IR Inten    --     11.0652                20.6402                 3.7388

                     37                     38                     39
                      A                      A                      A
 Frequencies --   1416.0640              1436.3145              1494.4332
 Red. masses --      1.2387                 2.5907                 1.0447
 Frc consts  --      1.4635                 3.1490                 1.3747
 IR Inten    --      3.1614                 3.7901                 1.8547

                     40                     41                     42
                      A                      A                      A
 Frequencies --   1501.7929              1517.2508              3028.5886
 Red. masses --      1.0727                 1.0943                 1.0353
 Frc consts  --      1.4255                 1.4843                 5.5952
 IR Inten    --      4.7742                 0.7616                45.5431

                     43                     44                     45
                      A                      A                      A
 Frequencies --   3031.2757              3077.8705              3093.5600
 Red. masses --      1.0557                 1.1105                 1.1014
 Frc consts  --      5.7151                 6.1981                 6.2104
 IR Inten    --     51.8359                33.5945                23.1923

                     46                     47                     48
                      A                      A                      A
 Frequencies --   3095.3358              3129.5719              3135.0969
 Red. masses --      1.1005                 1.0882                 1.0930
 Frc consts  --      6.2124                 6.2796                 6.3297
 IR Inten    --     20.8639                45.0937                20.4566

                     49                     50                     51
                      A                      A                      A
 Frequencies --   3155.5877              3179.0129              3194.2708
 Red. masses --      1.0882                 1.0893                 1.0928
 Frc consts  --      6.3841                 6.4858                 6.5695
 IR Inten    --     11.1091                10.9205                 7.4160

 - Thermochemistry -
 -------------------
 Temperature   298.150 Kelvin.  Pressure   1.00000 Atm.
 Atom     1 has atomic number  6 and mass  12.00000

 Molecular mass:   126.06808 amu.
 Principal axes and moments of inertia in atomic units:
                           1         2         3
     Eigenvalues --   453.740661351.901671405.41691
           X            0.99986   0.01666   0.00240
           Y           -0.01633   0.99469  -0.10157
           Z           -0.00408   0.10151   0.99483
 This molecule is an asymmetric top.
 Rotational symmetry number  1.
 Warning -- assumption of classical behavior for rotation
           may cause significant error
 Rotational temperatures (Kelvin)      0.19089     0.06407     0.06163
 Rotational constants (GHZ):           3.97747     1.33496     1.28413
 Zero-point vibrational energy     424718.9 (Joules/Mol)
                                  101.51024 (Kcal/Mol)
 Warning -- explicit consideration of   7 degrees of freedom as
           vibrations may cause significant error
 Vibrational temperatures:    270.90   289.91   346.17   382.67   549.47
          (Kelvin)            589.50   642.07   905.04   969.22  1148.71
                             1179.93  1193.07  1210.44  1291.77  1304.89
                             1316.02  1369.37  1405.20  1413.11  1446.19
                             1471.00  1533.71  1543.39  1563.62  1603.95
                             1630.88  1657.67  1713.26  1734.77  1802.78
                             1826.31  1828.47  1870.68  1892.43  1926.34
                             1968.11  2037.40  2066.53  2150.15  2160.74
                             2182.98  4357.46  4361.32  4428.36  4450.94
                             4453.49  4502.75  4510.70  4540.18  4573.88
                             4595.84

 Zero-point correction=                           0.161767 (Hartree/Particle)
 Thermal correction to Energy=                    0.168794
 Thermal correction to Enthalpy=                  0.169738
 Thermal correction to Gibbs Free Energy=         0.130624
 Sum of electronic and zero-point Energies=           -423.018588
 Sum of electronic and thermal Energies=              -423.011561
 Sum of electronic and thermal Enthalpies=            -423.010617
 Sum of electronic and thermal Free Energies=         -423.049731

                     E (Thermal)             CV                S
                      KCal/Mol        Cal/Mol-Kelvin    Cal/Mol-Kelvin
 Total                  105.920             28.770             82.323
 Electronic               0.000              0.000              0.000
 Translational            0.889              2.981             40.409
 Rotational               0.889              2.981             28.246
 Vibrational            104.142             22.808             13.668
 Vibration     1          0.633              1.856              2.245
 Vibration     2          0.638              1.838              2.119
 Vibration     3          0.658              1.778              1.798
 Vibration     4          0.672              1.735              1.622
 Vibration     5          0.751              1.509              1.032
 Vibration     6          0.774              1.449              0.928
 Vibration     7          0.806              1.369              0.807

 Normal termination of Gaussian 09 at Tue Jan 28 00:28:18 2020.
