 Gaussian 09, Revision D.01,
 Gaussian 09:  ES64L-G09RevD.01 24-Apr-2013

 -----------------------------
 # b3lyp 6-31G(2df,p) opt Freq
 -----------------------------

 -----
 titel
 -----
 Symbolic Z-matrix:
 Charge =  0 Multiplicity = 1

 SCF Done:  E(RB3LYP) =  -423.100773437     A.U. after   14 cycles
 Optimization completed.
    -- Stationary point found.
 Normal termination of Gaussian 09 at Tue Jan 28 10:13:01 2020.

 ----------------------------------------------------------------------
 #N Geom=AllCheck Guess=TCheck SCRF=Check GenChk RB3LYP/6-31G(2df,p) Fr
 eq
 ----------------------------------------------------------------------

 Structure from the checkpoint file:  "/scratch/puck/g09_2690cc18-6f87-43a1-a4a6-1ca12a8ce586/Gau-64885.chk"
 -----
 titel
 -----
 Charge =  0 Multiplicity = 1

                         Standard orientation:
 ---------------------------------------------------------------------
 Center     Atomic      Atomic             Coordinates (Angstroms)
 Number     Number       Type             X           Y           Z
 ---------------------------------------------------------------------
      1          6           0       -2.619377    0.395410   -0.062587
      2          6           0       -1.628434   -0.604230   -0.674445
      3          6           0       -0.269901   -0.506292   -0.053535
      4          8           0       -0.119447   -0.775576    1.384937
      5          6           0        1.234601   -0.467505    0.943278
      6          6           0        1.092585   -1.169197   -0.436690
      7          6           0        1.578691    0.079553   -1.213835
      8          6           0        0.790203    0.670460   -0.041823
      9          8           0        0.599679    2.009851    0.196617
     10          1           0       -3.610890    0.290102   -0.511686
     11          1           0       -2.712535    0.231547    1.014710
     12          1           0       -2.281754    1.424265   -0.222354
     13          1           0       -1.999505   -1.629576   -0.555172
     14          1           0       -1.524816   -0.430059   -1.752790
     15          1           0        2.047338   -0.509670    1.667912
     16          1           0        1.259989   -2.223562   -0.642096
     17          1           0        2.656474    0.261677   -1.216409
     18          1           0        1.159204    0.230149   -2.212099
     19          1           0        0.094422    2.091726    1.015378
 ---------------------------------------------------------------------

 SCF Done:  E(RB3LYP) =  -423.100773437     A.U. after    1 cycles

 The electronic state is 1-A.
 Alpha  occ. eigenvalues --  -19.15629 -19.12671 -10.24669 -10.24175 -10.23964
 Alpha  occ. eigenvalues --  -10.20003 -10.19062 -10.19009 -10.17738  -1.06472
 Alpha  occ. eigenvalues --   -1.03127  -0.86292  -0.77967  -0.66431  -0.65494
 Alpha  occ. eigenvalues --   -0.63227  -0.60090  -0.55003  -0.49164  -0.48040
 Alpha  occ. eigenvalues --   -0.45916  -0.45568  -0.43490  -0.40125  -0.38676
 Alpha  occ. eigenvalues --   -0.37563  -0.37152  -0.35640  -0.34929  -0.34236
 Alpha  occ. eigenvalues --   -0.30047  -0.29946  -0.25146  -0.23230
 Alpha virt. eigenvalues --    0.06937   0.08755   0.10138   0.11932   0.12876
 Alpha virt. eigenvalues --    0.13749   0.13883   0.15317   0.16127   0.17153
 Alpha virt. eigenvalues --    0.17861   0.18003   0.18974   0.19899   0.20589

 Mulliken charges:
               1
     1  C   -0.389547
     2  C   -0.331061
     3  C    0.407769
     4  O   -0.373701
     5  C   -0.000551
     6  C   -0.151508
     7  C   -0.321317
     8  C    0.342865
     9  O   -0.466129
    10  H    0.114199
    11  H    0.135901
    12  H    0.123769
    13  H    0.113945
    14  H    0.110942
    15  H    0.092583
    16  H    0.089043
    17  H    0.104143
    18  H    0.104534
    19  H    0.294122
 Sum of Mulliken charges =   0.00000

 Dipole moment (field-independent basis, Debye):
    X=             -0.0117    Y=             -0.2471    Z=             -0.6577  Tot=              0.7027
 Quadrupole moment (field-independent basis, Debye-Ang):
   XX=            -50.4940   YY=            -55.2772   ZZ=            -53.3303
   XY=             -2.3266   XZ=              1.8189   YZ=              4.2231

  Exact polarizability:  83.519  -1.454  70.126  -0.240   1.156  70.920
 Approx polarizability: 112.107   0.426 107.836  -1.307  -0.305 110.872

                      1                      2                      3
                      A                      A                      A
 Frequencies --     84.3263               134.4198               194.3192
 Red. masses --      2.6377                 3.3755                 1.3996
 Frc consts  --      0.0111                 0.0359                 0.0311
 IR Inten    --      0.1062                 0.2223                 0.2456

                      4                      5                      6
                      A                      A                      A
 Frequencies --    262.2984               281.2860               296.1474
 Red. masses --      2.0916                 2.8146                 2.5922
 Frc consts  --      0.0848                 0.1312                 0.1339
 IR Inten    --      5.7374                 9.5516                 4.5110

                      7                      8                      9
                      A                      A                      A
 Frequencies --    370.4084               434.8253               480.8279
 Red. masses --      1.1872                 2.8566                 2.4124
 Frc consts  --      0.0960                 0.3182                 0.3286
 IR Inten    --     85.1780                11.7767                12.0629

                     10                     11                     12
                      A                      A                      A
 Frequencies --    540.9966               645.6984               707.8620
 Red. masses --      4.2287                 3.3314                 3.2603
 Frc consts  --      0.7292                 0.8184                 0.9625
 IR Inten    --      2.3414                 1.2582                 7.3383

                     13                     14                     15
                      A                      A                      A
 Frequencies --    723.0730               776.1651               801.3725
 Red. masses --      2.9111                 2.8312                 2.6166
 Frc consts  --      0.8968                 1.0049                 0.9901
 IR Inten    --      4.9916                 6.7883                14.7926

                     16                     17                     18
                      A                      A                      A
 Frequencies --    839.5139               864.0220               906.3660
 Red. masses --      2.2887                 2.2945                 2.2615
 Frc consts  --      0.9504                 1.0092                 1.0946
 IR Inten    --     28.4959                13.2802                11.7777

                     19                     20                     21
                      A                      A                      A
 Frequencies --    930.2731               969.7626               985.5143
 Red. masses --      2.0443                 2.7030                 2.1045
 Frc consts  --      1.0423                 1.4977                 1.2043
 IR Inten    --      5.0814                16.7657                 0.0247

                     22                     23                     24
                      A                      A                      A
 Frequencies --   1007.3109              1017.7393              1074.2043
 Red. masses --      2.0860                 1.4840                 1.5910
 Frc consts  --      1.2471                 0.9056                 1.0816
 IR Inten    --     27.5248                 4.9989                 2.8076

                     25                     26                     27
                      A                      A                      A
 Frequencies --   1110.6258              1121.1266              1133.9307
 Red. masses --      1.8149                 1.4788                 1.8061
 Frc consts  --      1.3190                 1.0951                 1.3683
 IR Inten    --      2.6554                 1.1156                 2.5150

                     28                     29                     30
                      A                      A                      A
 Frequencies --   1155.8300              1188.5058              1203.9567
 Red. masses --      1.9382                 1.7934                 1.9109
 Frc consts  --      1.5256                 1.4926                 1.6319
 IR Inten    --      3.1655                10.4593                17.4844

                     31                     32                     33
                      A                      A                      A
 Frequencies --   1255.7898              1287.1118              1296.3063
 Red. masses --      1.6754                 1.8379                 1.4910
 Frc consts  --      1.5567                 1.7939                 1.4762
 IR Inten    --     45.0546                88.7634                 8.1870

                     34                     35                     36
                      A                      A                      A
 Frequencies --   1356.0404              1392.5243              1402.1056
 Red. masses --      1.7745                 2.7431                 1.6321
 Frc consts  --      1.9225                 3.1340                 1.8904
 IR Inten    --     83.3659                31.3095                 3.2782

                     37                     38                     39
                      A                      A                      A
 Frequencies --   1414.4514              1469.5109              1497.5429
 Red. masses --      1.8633                 1.0833                 1.0392
 Frc consts  --      2.1963                 1.3783                 1.3732
 IR Inten    --      5.1871                 2.3095                 4.8148

                     40                     41                     42
                      A                      A                      A
 Frequencies --   1511.9183              1520.1114              3027.2598
 Red. masses --      1.0685                 1.2025                 1.0592
 Frc consts  --      1.4391                 1.6371                 5.7194
 IR Inten    --      4.4005                 9.7238                18.3536

                     43                     44                     45
                      A                      A                      A
 Frequencies --   3042.1827              3057.1200              3062.8541
 Red. masses --      1.0348                 1.0560                 1.1009
 Frc consts  --      5.6424                 5.8147                 6.0851
 IR Inten    --     23.0539                35.1180                14.8194

                     46                     47                     48
                      A                      A                      A
 Frequencies --   3113.3019              3114.8059              3120.2861
 Red. masses --      1.1022                 1.1099                 1.1023
 Frc consts  --      6.2942                 6.3445                 6.3231
 IR Inten    --     35.1111                18.8887                23.7804

                     49                     50                     51
                      A                      A                      A
 Frequencies --   3124.4110              3156.6484              3781.8947
 Red. masses --      1.0912                 1.0947                 1.0651
 Frc consts  --      6.2761                 6.4266                 8.9758
 IR Inten    --     41.5789                23.2519                26.4173

 - Thermochemistry -
 -------------------
 Temperature   298.150 Kelvin.  Pressure   1.00000 Atm.
 Atom     1 has atomic number  6 and mass  12.00000

 Molecular mass:   126.06808 amu.
 Principal axes and moments of inertia in atomic units:
                           1         2         3
     Eigenvalues --   734.284661142.803291287.24417
           X            0.99948  -0.03213   0.00079
           Y            0.03196   0.99620   0.08105
           Z           -0.00339  -0.08099   0.99671
 This molecule is an asymmetric top.
 Rotational symmetry number  1.
 Warning -- assumption of classical behavior for rotation
           may cause significant error
 Rotational temperatures (Kelvin)      0.11796     0.07579     0.06729
 Rotational constants (GHZ):           2.45782     1.57922     1.40202
 Zero-point vibrational energy     414188.4 (Joules/Mol)
                                   98.99339 (Kcal/Mol)
 Warning -- explicit consideration of  10 degrees of freedom as
           vibrations may cause significant error
 Vibrational temperatures:    121.33   193.40   279.58   377.39   404.71
          (Kelvin)            426.09   532.93   625.62   691.80   778.37
                              929.01  1018.45  1040.34  1116.73  1152.99
                             1207.87  1243.13  1304.06  1338.45  1395.27
                             1417.93  1449.29  1464.30  1545.54  1597.94
                             1613.05  1631.47  1662.98  1709.99  1732.22
                             1806.80  1851.86  1865.09  1951.04  2003.53
                             2017.31  2035.08  2114.30  2154.63  2175.31
                             2187.10  4355.55  4377.02  4398.51  4406.76
                             4479.34  4481.51  4489.39  4495.32  4541.71
                             5441.30

 Zero-point correction=                           0.157756 (Hartree/Particle)
 Thermal correction to Energy=                    0.166115
 Thermal correction to Enthalpy=                  0.167059
 Thermal correction to Gibbs Free Energy=         0.125014
 Sum of electronic and zero-point Energies=           -422.943017
 Sum of electronic and thermal Energies=              -422.934658
 Sum of electronic and thermal Enthalpies=            -422.933714
 Sum of electronic and thermal Free Energies=         -422.975760

                     E (Thermal)             CV                S
                      KCal/Mol        Cal/Mol-Kelvin    Cal/Mol-Kelvin
 Total                  104.239             32.650             88.492
 Electronic               0.000              0.000              0.000
 Translational            0.889              2.981             40.409
 Rotational               0.889              2.981             28.470
 Vibrational            102.461             26.689             19.613
 Vibration     1          0.601              1.960              3.788
 Vibration     2          0.613              1.919              2.882
 Vibration     3          0.635              1.848              2.186
 Vibration     4          0.670              1.742              1.646
 Vibration     5          0.681              1.708              1.526
 Vibration     6          0.690              1.681              1.439
 Vibration     7          0.742              1.533              1.078
 Vibration     8          0.795              1.394              0.843
 Vibration     9          0.837              1.293              0.708
 Vibration    10          0.896              1.159              0.563

 Normal termination of Gaussian 09 at Tue Jan 28 12:12:58 2020.
