 Gaussian 09, Revision D.01,
 Gaussian 09:  ES64L-G09RevD.01 24-Apr-2013

 -----------------------------
 # b3lyp 6-31G(2df,p) opt Freq
 -----------------------------

 -----
 titel
 -----
 Symbolic Z-matrix:
 Charge =  0 Multiplicity = 1

 SCF Done:  E(RB3LYP) =  -423.172366180     A.U. after   14 cycles
 Optimization completed.
    -- Stationary point found.
 Normal termination of Gaussian 09 at Mon Jan 27 15:28:58 2020.

 ----------------------------------------------------------------------
 #N Geom=AllCheck Guess=TCheck SCRF=Check GenChk RB3LYP/6-31G(2df,p) Fr
 eq
 ----------------------------------------------------------------------

 Structure from the checkpoint file:  "/scratch/puck/g09_d9429e02-61c3-4242-a4e3-d85819b9b969/Gau-67195.chk"
 -----
 titel
 -----
 Charge =  0 Multiplicity = 1

                         Standard orientation:
 ---------------------------------------------------------------------
 Center     Atomic      Atomic             Coordinates (Angstroms)
 Number     Number       Type             X           Y           Z
 ---------------------------------------------------------------------
      1          6           0        2.381571   -0.300139   -0.855006
      2          6           0        1.458412   -0.212931    0.359836
      3          8           0        1.779213    0.891819    1.200430
      4          6           0       -0.004298   -0.181821   -0.045764
      5          6           0       -0.623915    1.041596   -0.727569
      6          6           0       -2.089846    0.940704   -0.357662
      7          6           0       -2.339165   -0.097235    0.444537
      8          6           0       -1.085048   -0.869693    0.683696
      9          8           0       -0.518783   -1.426621   -0.533233
     10          1           0        2.134061   -1.177837   -1.458449
     11          1           0        2.276415    0.586796   -1.492978
     12          1           0        3.424959   -0.371766   -0.535861
     13          1           0        1.602603   -1.105676    0.978581
     14          1           0        2.001705    1.639375    0.636388
     15          1           0       -0.180058    1.971636   -0.349371
     16          1           0       -0.471229    1.024803   -1.813145
     17          1           0       -2.831467    1.632351   -0.741296
     18          1           0       -3.303186   -0.377798    0.849591
     19          1           0       -0.923501   -1.466350    1.576558
 ---------------------------------------------------------------------

 SCF Done:  E(RB3LYP) =  -423.172366180     A.U. after    1 cycles

 The electronic state is 1-A.
 Alpha  occ. eigenvalues --  -19.14345 -19.13924 -10.23692 -10.23250 -10.23116
 Alpha  occ. eigenvalues --  -10.19276 -10.19028 -10.18379 -10.18093  -1.06429
 Alpha  occ. eigenvalues --   -1.02051  -0.81829  -0.76406  -0.71070  -0.66965
 Alpha  occ. eigenvalues --   -0.62758  -0.56389  -0.54758  -0.52581  -0.46850
 Alpha  occ. eigenvalues --   -0.46359  -0.44638  -0.43473  -0.40819  -0.40259
 Alpha  occ. eigenvalues --   -0.38709  -0.37587  -0.36474  -0.36249  -0.33114
 Alpha  occ. eigenvalues --   -0.30153  -0.28296  -0.25270  -0.24377
 Alpha virt. eigenvalues --    0.00188   0.06792   0.10121   0.11812   0.12123
 Alpha virt. eigenvalues --    0.12388   0.14823   0.15553   0.16229   0.16843
 Alpha virt. eigenvalues --    0.17709   0.18447   0.19107   0.21325   0.21670

 Mulliken charges:
               1
     1  C   -0.423293
     2  C    0.025354
     3  O   -0.426648
     4  C    0.422953
     5  C   -0.342228
     6  C   -0.076891
     7  C   -0.073526
     8  C   -0.078830
     9  O   -0.310182
    10  H    0.143063
    11  H    0.108977
    12  H    0.123816
    13  H    0.094590
    14  H    0.281552
    15  H    0.105445
    16  H    0.122589
    17  H    0.102030
    18  H    0.103093
    19  H    0.098134
 Sum of Mulliken charges =   0.00000

 Dipole moment (field-independent basis, Debye):
    X=              0.1326    Y=              1.5160    Z=             -0.5397  Tot=              1.6147
 Quadrupole moment (field-independent basis, Debye-Ang):
   XX=            -49.6975   YY=            -52.1725   ZZ=            -55.4021
   XY=             -0.1749   XZ=             -3.8637   YZ=             -5.0574

  Exact polarizability:  86.629  -0.208  73.434  -5.186  -9.711  65.168
 Approx polarizability: 109.982   4.407 122.340  -8.111 -16.006 105.376

                      1                      2                      3
                      A                      A                      A
 Frequencies --     57.4550               137.6146               197.3755
 Red. masses --      3.4382                 3.9298                 2.7931
 Frc consts  --      0.0067                 0.0438                 0.0641
 IR Inten    --      1.9990                 4.7002                10.0410

                      4                      5                      6
                      A                      A                      A
 Frequencies --    232.1691               261.3800               286.1148
 Red. masses --      1.0753                 1.1765                 2.1401
 Frc consts  --      0.0342                 0.0474                 0.1032
 IR Inten    --     94.6905                 8.2794                 0.6513

                      7                      8                      9
                      A                      A                      A
 Frequencies --    320.8219               372.4622               476.4414
 Red. masses --      3.3533                 4.3207                 2.7942
 Frc consts  --      0.2034                 0.3532                 0.3737
 IR Inten    --      0.8944                 7.6919                13.3592

                     10                     11                     12
                      A                      A                      A
 Frequencies --    498.1379               541.2920               626.6328
 Red. masses --      2.6886                 3.6681                 3.0740
 Frc consts  --      0.3931                 0.6332                 0.7112
 IR Inten    --      8.4331                 3.2986                 1.6952

                     13                     14                     15
                      A                      A                      A
 Frequencies --    719.8559               738.8555               810.5242
 Red. masses --      2.8342                 2.0684                 3.7327
 Frc consts  --      0.8653                 0.6653                 1.4448
 IR Inten    --      6.7091                11.9727                19.2301

                     16                     17                     18
                      A                      A                      A
 Frequencies --    878.8829               890.2999               911.7936
 Red. masses --      4.2939                 2.7300                 2.8539
 Frc consts  --      1.9542                 1.2749                 1.3979
 IR Inten    --     12.7818                 6.9787                30.6035

                     19                     20                     21
                      A                      A                      A
 Frequencies --    943.1651               952.5719               980.6127
 Red. masses --      1.8977                 1.2907                 1.9645
 Frc consts  --      0.9946                 0.6900                 1.1130
 IR Inten    --      8.9814                 0.7641                 4.9579

                     22                     23                     24
                      A                      A                      A
 Frequencies --   1007.6824              1013.5920              1051.7984
 Red. masses --      2.0212                 2.1323                 1.7313
 Frc consts  --      1.2092                 1.2907                 1.1285
 IR Inten    --      1.0893                21.1759                33.7127

                     25                     26                     27
                      A                      A                      A
 Frequencies --   1082.2368              1118.0523              1137.5226
 Red. masses --      1.4869                 3.0801                 1.1625
 Frc consts  --      1.0261                 2.2685                 0.8863
 IR Inten    --     32.5359                51.7964                 0.0945

                     28                     29                     30
                      A                      A                      A
 Frequencies --   1185.1186              1236.1803              1254.4314
 Red. masses --      1.2068                 2.2047                 1.5872
 Frc consts  --      0.9986                 1.9850                 1.4715
 IR Inten    --      3.7910                 7.2285                 4.2721

                     31                     32                     33
                      A                      A                      A
 Frequencies --   1296.6883              1320.0110              1346.0484
 Red. masses --      1.4000                 2.0532                 1.4459
 Frc consts  --      1.3869                 2.1078                 1.5435
 IR Inten    --      4.0939                15.1480                11.0751

                     34                     35                     36
                      A                      A                      A
 Frequencies --   1375.3418              1396.5185              1404.3896
 Red. masses --      1.6352                 1.1883                 1.3097
 Frc consts  --      1.8224                 1.3654                 1.5219
 IR Inten    --      6.0507                13.6429                43.6665

                     37                     38                     39
                      A                      A                      A
 Frequencies --   1441.6439              1456.8237              1492.0675
 Red. masses --      1.9754                 1.4520                 1.0477
 Frc consts  --      2.4189                 1.8156                 1.3742
 IR Inten    --      4.4473                 3.0740                 7.0292

                     40                     41                     42
                      A                      A                      A
 Frequencies --   1495.6827              1663.4701              3023.7237
 Red. masses --      1.0861                 6.0472                 1.0500
 Frc consts  --      1.4315                 9.8591                 5.6560
 IR Inten    --      1.6260                 4.3170                 2.7102

                     43                     44                     45
                      A                      A                      A
 Frequencies --   3026.3753              3049.5847              3064.4611
 Red. masses --      1.0530                 1.0828                 1.0994
 Frc consts  --      5.6826                 5.9329                 6.0827
 IR Inten    --     32.3835                18.4727                12.4985

                     46                     47                     48
                      A                      A                      A
 Frequencies --   3099.7740              3126.5236              3160.8819
 Red. masses --      1.0948                 1.1025                 1.0907
 Frc consts  --      6.1980                 6.3497                 6.4207
 IR Inten    --     28.7987                15.0636                21.1025

                     49                     50                     51
                      A                      A                      A
 Frequencies --   3191.5411              3221.6490              3816.2962
 Red. masses --      1.0869                 1.1032                 1.0662
 Frc consts  --      6.5232                 6.7461                 9.1489
 IR Inten    --      9.2460                17.9807                16.4115

 - Thermochemistry -
 -------------------
 Temperature   298.150 Kelvin.  Pressure   1.00000 Atm.
 Atom     1 has atomic number  6 and mass  12.00000

 Molecular mass:   126.06808 amu.
 Principal axes and moments of inertia in atomic units:
                           1         2         3
     Eigenvalues --   580.996631428.118551538.13873
           X            0.99954  -0.02028  -0.02243
           Y            0.01607   0.98459  -0.17413
           Z            0.02561   0.17369   0.98447
 This molecule is an asymmetric top.
 Rotational symmetry number  1.
 Warning -- assumption of classical behavior for rotation
           may cause significant error
 Rotational temperatures (Kelvin)      0.14908     0.06065     0.05631
 Rotational constants (GHZ):           3.10629     1.26372     1.17333
 Zero-point vibrational energy     415047.8 (Joules/Mol)
                                   99.19880 (Kcal/Mol)
 Warning -- explicit consideration of  11 degrees of freedom as
           vibrations may cause significant error
 Vibrational temperatures:     82.66   198.00   283.98   334.04   376.07
          (Kelvin)            411.65   461.59   535.89   685.49   716.71
                              778.80   901.58  1035.71  1063.05  1166.16
                             1264.51  1280.94  1311.87  1357.00  1370.54
                             1410.88  1449.83  1458.33  1513.30  1557.10
                             1608.63  1636.64  1705.12  1778.59  1804.84
                             1865.64  1899.20  1936.66  1978.81  2009.28
                             2020.60  2074.20  2096.04  2146.75  2151.95
                             2393.36  4350.46  4354.27  4387.67  4409.07
                             4459.88  4498.36  4547.80  4591.91  4635.23
                             5490.79

 Zero-point correction=                           0.158083 (Hartree/Particle)
 Thermal correction to Energy=                    0.166797
 Thermal correction to Enthalpy=                  0.167742
 Thermal correction to Gibbs Free Energy=         0.124712
 Sum of electronic and zero-point Energies=           -423.014283
 Sum of electronic and thermal Energies=              -423.005569
 Sum of electronic and thermal Enthalpies=            -423.004625
 Sum of electronic and thermal Free Energies=         -423.047654

                     E (Thermal)             CV                S
                      KCal/Mol        Cal/Mol-Kelvin    Cal/Mol-Kelvin
 Total                  104.667             33.318             90.564
 Electronic               0.000              0.000              0.000
 Translational            0.889              2.981             40.409
 Rotational               0.889              2.981             28.636
 Vibrational            102.890             27.357             21.519
 Vibration     1          0.596              1.975              4.543
 Vibration     2          0.614              1.916              2.837
 Vibration     3          0.637              1.844              2.157
 Vibration     4          0.653              1.792              1.862
 Vibration     5          0.669              1.743              1.653
 Vibration     6          0.684              1.699              1.497
 Vibration     7          0.706              1.634              1.306
 Vibration     8          0.744              1.529              1.070
 Vibration     9          0.833              1.302              0.720
 Vibration    10          0.854              1.254              0.663
 Vibration    11          0.896              1.159              0.563

 Optimization completed.
    -- Stationary point found.
 Normal termination of Gaussian 09 at Mon Jan 27 16:20:29 2020.
