 Gaussian 09, Revision D.01,
 Gaussian 09:  ES64L-G09RevD.01 24-Apr-2013

 -----------------------------
 # b3lyp 6-31G(2df,p) opt Freq
 -----------------------------

 -----
 titel
 -----
 Symbolic Z-matrix:
 Charge =  0 Multiplicity = 1

 SCF Done:  E(RB3LYP) =  -423.150208517     A.U. after   13 cycles
 Optimization completed.
    -- Stationary point found.
 Normal termination of Gaussian 09 at Mon Jan 27 18:07:45 2020.

 ----------------------------------------------------------------------
 #N Geom=AllCheck Guess=TCheck SCRF=Check GenChk RB3LYP/6-31G(2df,p) Fr
 eq
 ----------------------------------------------------------------------

 Structure from the checkpoint file:  "/scratch/puck/g09_11478db0-0e64-4280-88b8-f8974cb68773/Gau-168547.chk"
 -----
 titel
 -----
 Charge =  0 Multiplicity = 1

                         Standard orientation:
 ---------------------------------------------------------------------
 Center     Atomic      Atomic             Coordinates (Angstroms)
 Number     Number       Type             X           Y           Z
 ---------------------------------------------------------------------
      1          6           0       -0.383742    2.159195    0.244835
      2          6           0        0.121002    0.768888   -0.027147
      3          8           0        1.467829    0.638071    0.414597
      4          6           0        1.786887   -0.726490    0.114409
      5          6           0        0.487824   -1.187205   -0.523548
      6          6           0       -0.057427    0.001262   -1.381085
      7          6           0       -1.503407   -0.376267   -0.980249
      8          6           0       -0.670153   -0.528378    0.315411
      9          8           0       -1.080117   -0.846117    1.594765
     10          1           0       -0.357665    2.361057    1.319500
     11          1           0        0.252170    2.896127   -0.254379
     12          1           0       -1.409879    2.290241   -0.106223
     13          1           0        2.652252   -0.772970   -0.558474
     14          1           0        2.025749   -1.271160    1.036962
     15          1           0        0.390066   -2.210500   -0.887853
     16          1           0        0.303745    0.307744   -2.360098
     17          1           0       -2.256964    0.414064   -1.005866
     18          1           0       -1.890933   -1.301279   -1.416043
     19          1           0       -1.496148   -1.714992    1.581823
 ---------------------------------------------------------------------

 SCF Done:  E(RB3LYP) =  -423.150208517     A.U. after    1 cycles

 The electronic state is 1-A.
 Alpha  occ. eigenvalues --  -19.14943 -19.12824 -10.24198 -10.23578 -10.21934
 Alpha  occ. eigenvalues --  -10.19615 -10.19300 -10.18689 -10.17327  -1.04744
 Alpha  occ. eigenvalues --   -1.02524  -0.89110  -0.75653  -0.69228  -0.65123
 Alpha  occ. eigenvalues --   -0.62814  -0.58481  -0.53713  -0.52310  -0.47630
 Alpha  occ. eigenvalues --   -0.45694  -0.44499  -0.42855  -0.40793  -0.39524
 Alpha  occ. eigenvalues --   -0.37514  -0.37093  -0.33437  -0.33260  -0.33110
 Alpha  occ. eigenvalues --   -0.31547  -0.29871  -0.26400  -0.23039
 Alpha virt. eigenvalues --    0.07486   0.10528   0.12274   0.12636   0.13630
 Alpha virt. eigenvalues --    0.14008   0.14556   0.15427   0.16173   0.16993
 Alpha virt. eigenvalues --    0.17347   0.19461   0.20569   0.21820   0.22219

 Mulliken charges:
               1
     1  C   -0.497489
     2  C    0.451886
     3  O   -0.321341
     4  C   -0.113378
     5  C   -0.132742
     6  C   -0.129824
     7  C   -0.329280
     8  C    0.343523
     9  O   -0.478869
    10  H    0.138356
    11  H    0.127815
    12  H    0.121711
    13  H    0.097886
    14  H    0.103112
    15  H    0.067394
    16  H    0.080136
    17  H    0.098110
    18  H    0.089420
    19  H    0.283573
 Sum of Mulliken charges =   0.00000

 Dipole moment (field-independent basis, Debye):
    X=             -1.1353    Y=             -1.7914    Z=             -1.3165  Tot=              2.4962
 Quadrupole moment (field-independent basis, Debye-Ang):
   XX=            -53.0971   YY=            -48.2337   ZZ=            -55.0799
   XY=             -0.3861   XZ=             -1.1801   YZ=             -1.8939

  Exact polarizability:  77.727  -2.400  77.430   1.251   0.031  69.410
 Approx polarizability: 111.581  -0.753 110.718   0.633  -0.241 107.616

                      1                      2                      3
                      A                      A                      A
 Frequencies --    182.3636               199.0147               228.3694
 Red. masses --      1.1212                 2.4596                 1.9277
 Frc consts  --      0.0220                 0.0574                 0.0592
 IR Inten    --      0.5517                 4.1062                17.7375

                      4                      5                      6
                      A                      A                      A
 Frequencies --    258.4776               270.2613               325.9534
 Red. masses --      1.7794                 2.5670                 2.6125
 Frc consts  --      0.0700                 0.1105                 0.1635
 IR Inten    --     43.2623                38.7687                 1.2216

                      7                      8                      9
                      A                      A                      A
 Frequencies --    415.9590               458.9299               498.7465
 Red. masses --      2.5625                 2.5937                 2.9165
 Frc consts  --      0.2612                 0.3219                 0.4274
 IR Inten    --      1.9887                 5.4427                 2.4269

                     10                     11                     12
                      A                      A                      A
 Frequencies --    650.5610               669.9997               708.1926
 Red. masses --      3.6787                 4.4094                 4.5237
 Frc consts  --      0.9173                 1.1662                 1.3367
 IR Inten    --      1.6567                 8.6746                 5.0547

                     13                     14                     15
                      A                      A                      A
 Frequencies --    733.0886               767.2815               840.0372
 Red. masses --      3.2891                 4.2707                 3.0039
 Frc consts  --      1.0414                 1.4814                 1.2489
 IR Inten    --      2.1954                 7.7860                 5.5600

                     16                     17                     18
                      A                      A                      A
 Frequencies --    902.5747               926.4428               947.9293
 Red. masses --      2.2880                 2.4036                 2.3956
 Frc consts  --      1.0982                 1.2155                 1.2683
 IR Inten    --     19.4106                 5.0780                 5.4013

                     19                     20                     21
                      A                      A                      A
 Frequencies --    968.2808               981.0298              1018.7456
 Red. masses --      1.4802                 1.5138                 1.6424
 Frc consts  --      0.8177                 0.8584                 1.0043
 IR Inten    --      4.4682                 5.6282                14.6444

                     22                     23                     24
                      A                      A                      A
 Frequencies --   1025.5251              1041.7523              1080.6877
 Red. masses --      2.3316                 1.9541                 1.4499
 Frc consts  --      1.4448                 1.2495                 0.9977
 IR Inten    --     35.5768                19.1621                32.3729

                     25                     26                     27
                      A                      A                      A
 Frequencies --   1100.9023              1129.7733              1153.4252
 Red. masses --      1.7833                 1.6374                 1.7846
 Frc consts  --      1.2734                 1.2313                 1.3988
 IR Inten    --     17.2332                 1.0675                 6.2637

                     28                     29                     30
                      A                      A                      A
 Frequencies --   1182.6982              1188.8860              1206.5902
 Red. masses --      1.4314                 2.4173                 1.7381
 Frc consts  --      1.1797                 2.0131                 1.4908
 IR Inten    --     17.1676                56.5980                 4.0702

                     31                     32                     33
                      A                      A                      A
 Frequencies --   1227.9569              1276.1510              1294.8928
 Red. masses --      1.4934                 1.9593                 2.8721
 Frc consts  --      1.3267                 1.8800                 2.8374
 IR Inten    --      5.6726                50.3235               121.1502

                     34                     35                     36
                      A                      A                      A
 Frequencies --   1322.9962              1363.1191              1401.2371
 Red. masses --      2.7189                 1.4919                 1.7730
 Frc consts  --      2.8038                 1.6333                 2.0511
 IR Inten    --     37.5804                 3.4776                15.1914

                     37                     38                     39
                      A                      A                      A
 Frequencies --   1425.2733              1478.6997              1498.8293
 Red. masses --      1.7448                 1.0475                 1.0903
 Frc consts  --      2.0883                 1.3494                 1.4431
 IR Inten    --     16.4897                 5.4255                 4.3113

                     40                     41                     42
                      A                      A                      A
 Frequencies --   1519.2703              1526.3372              3014.1672
 Red. masses --      1.1009                 1.1768                 1.0558
 Frc consts  --      1.4972                 1.6153                 5.6513
 IR Inten    --      0.5373                 8.2663                74.0700

                     43                     44                     45
                      A                      A                      A
 Frequencies --   3048.7870              3050.7255              3056.8576
 Red. masses --      1.0364                 1.1095                 1.0547
 Frc consts  --      5.6756                 6.0838                 5.8067
 IR Inten    --     19.4343                35.8589                38.9529

                     46                     47                     48
                      A                      A                      A
 Frequencies --   3114.7374              3115.9521              3116.7304
 Red. masses --      1.0906                 1.1016                 1.1067
 Frc consts  --      6.2341                 6.3016                 6.3338
 IR Inten    --     15.1861                18.7361                48.3489

                     49                     50                     51
                      A                      A                      A
 Frequencies --   3130.1379              3146.1404              3804.2641
 Red. masses --      1.1006                 1.0932                 1.0658
 Frc consts  --      6.3535                 6.3753                 9.0884
 IR Inten    --     17.1306                26.0247                26.2607

 - Thermochemistry -
 -------------------
 Temperature   298.150 Kelvin.  Pressure   1.00000 Atm.
 Atom     1 has atomic number  6 and mass  12.00000

 Molecular mass:   126.06808 amu.
 Principal axes and moments of inertia in atomic units:
                           1         2         3
     Eigenvalues --   848.23685 904.474851050.77907
           X            0.94994  -0.31099   0.03003
           Y            0.31036   0.95031   0.02411
           Z           -0.03604  -0.01358   0.99926
 This molecule is an asymmetric top.
 Rotational symmetry number  1.
 Warning -- assumption of classical behavior for rotation
           may cause significant error
 Rotational temperatures (Kelvin)      0.10211     0.09576     0.08243
 Rotational constants (GHZ):           2.12764     1.99535     1.71753
 Zero-point vibrational energy     418667.5 (Joules/Mol)
                                  100.06394 (Kcal/Mol)
 Warning -- explicit consideration of   9 degrees of freedom as
           vibrations may cause significant error
 Vibrational temperatures:    262.38   286.34   328.57   371.89   388.85
          (Kelvin)            468.97   598.47   660.30   717.58   936.01
                              963.98  1018.93  1054.75  1103.95  1208.62
                             1298.60  1332.94  1363.86  1393.14  1411.48
                             1465.75  1475.50  1498.85  1554.87  1583.95
                             1625.49  1659.52  1701.64  1710.54  1736.01
                             1766.75  1836.09  1863.06  1903.49  1961.22
                             2016.07  2050.65  2127.52  2156.48  2185.89
                             2196.06  4336.71  4386.52  4389.31  4398.13
                             4481.41  4483.15  4484.27  4503.56  4526.59
                             5473.48

 Zero-point correction=                           0.159462 (Hartree/Particle)
 Thermal correction to Energy=                    0.167250
 Thermal correction to Enthalpy=                  0.168194
 Thermal correction to Gibbs Free Energy=         0.127845
 Sum of electronic and zero-point Energies=           -422.990746
 Sum of electronic and thermal Energies=              -422.982958
 Sum of electronic and thermal Enthalpies=            -422.982014
 Sum of electronic and thermal Free Energies=         -423.022363

                     E (Thermal)             CV                S
                      KCal/Mol        Cal/Mol-Kelvin    Cal/Mol-Kelvin
 Total                  104.951             31.486             84.922
 Electronic               0.000              0.000              0.000
 Translational            0.889              2.981             40.409
 Rotational               0.889              2.981             28.180
 Vibrational            103.174             25.524             16.334
 Vibration     1          0.630              1.864              2.304
 Vibration     2          0.637              1.841              2.142
 Vibration     3          0.651              1.798              1.892
 Vibration     4          0.667              1.748              1.672
 Vibration     5          0.674              1.728              1.595
 Vibration     6          0.710              1.624              1.280
 Vibration     7          0.779              1.436              0.906
 Vibration     8          0.817              1.341              0.769
 Vibration     9          0.854              1.253              0.661

 Optimization completed.
    -- Stationary point found.
 Normal termination of Gaussian 09 at Mon Jan 27 18:57:49 2020.
