 Gaussian 09, Revision D.01,
 Gaussian 09:  ES64L-G09RevD.01 24-Apr-2013

 -----------------------------
 # b3lyp 6-31G(2df,p) opt Freq
 -----------------------------

 -----
 titel
 -----
 Symbolic Z-matrix:
 Charge =  0 Multiplicity = 1

 SCF Done:  E(RB3LYP) =  -423.187064276     A.U. after   14 cycles
 Optimization completed.
    -- Stationary point found.
 Normal termination of Gaussian 09 at Mon Jan 27 11:19:16 2020.

 ----------------------------------------------------------------------
 #N Geom=AllCheck Guess=TCheck SCRF=Check GenChk RB3LYP/6-31G(2df,p) Fr
 eq
 ----------------------------------------------------------------------

 Structure from the checkpoint file:  "/scratch/puck/g09_4c8c6619-89d3-4b41-9a6d-8d8806bda2be/Gau-162687.chk"
 -----
 titel
 -----
 Charge =  0 Multiplicity = 1

                         Standard orientation:
 ---------------------------------------------------------------------
 Center     Atomic      Atomic             Coordinates (Angstroms)
 Number     Number       Type             X           Y           Z
 ---------------------------------------------------------------------
      1          6           0        1.765363    0.000000   -0.739241
      2          6           0        1.303787    1.288485   -0.016737
      3          6           0       -0.137114    1.133894    0.499364
      4          8           0       -0.179053    0.000000    1.371773
      5          6           0       -0.137114   -1.133894    0.499363
      6          6           0        1.303788   -1.288485   -0.016737
      7          6           0       -1.077674   -0.731972   -0.634446
      8          8           0       -2.223062    0.000000   -0.193735
      9          6           0       -1.077674    0.731972   -0.634445
     10          1           0        1.368936    0.000000   -1.760530
     11          1           0        2.855405    0.000000   -0.838778
     12          1           0        1.939847    1.486028    0.852768
     13          1           0        1.393688    2.152841   -0.685584
     14          1           0       -0.471188    2.002034    1.073878
     15          1           0       -0.471189   -2.002035    1.073877
     16          1           0        1.939847   -1.486026    0.852769
     17          1           0        1.393689   -2.152841   -0.685583
     18          1           0       -1.196146   -1.342660   -1.524922
     19          1           0       -1.196145    1.342661   -1.524921
 ---------------------------------------------------------------------

 SCF Done:  E(RB3LYP) =  -423.187064276     A.U. after    1 cycles

 The electronic state is 1-A.
 Alpha  occ. eigenvalues --  -19.15059 -19.13578 -10.23486 -10.23452 -10.23338
 Alpha  occ. eigenvalues --  -10.23337 -10.18901 -10.18637 -10.18636  -1.08589
 Alpha  occ. eigenvalues --   -1.02350  -0.80096  -0.77402  -0.70694  -0.65265
 Alpha  occ. eigenvalues --   -0.62381  -0.58997  -0.55660  -0.52388  -0.48915
 Alpha  occ. eigenvalues --   -0.45593  -0.45037  -0.43995  -0.41339  -0.40680
 Alpha  occ. eigenvalues --   -0.37975  -0.37827  -0.34870  -0.33888  -0.33536
 Alpha  occ. eigenvalues --   -0.32647  -0.30350  -0.25664  -0.24704
 Alpha virt. eigenvalues --    0.07921   0.09709   0.10506   0.11685   0.13183
 Alpha virt. eigenvalues --    0.13881   0.14326   0.15810   0.16193   0.17056
 Alpha virt. eigenvalues --    0.17084   0.17755   0.19910   0.20548   0.21598

 Mulliken charges:
               1
     1  C   -0.211472
     2  C   -0.208874
     3  C    0.042025
     4  O   -0.258254
     5  C    0.042025
     6  C   -0.208874
     7  C    0.034323
     8  O   -0.251750
     9  C    0.034323
    10  H    0.102897
    11  H    0.099563
    12  H    0.110240
    13  H    0.094856
    14  H    0.086642
    15  H    0.086642
    16  H    0.110240
    17  H    0.094856
    18  H    0.100296
    19  H    0.100296
 Sum of Mulliken charges =   0.00000

 Dipole moment (field-independent basis, Debye):
    X=              2.0763    Y=              0.0000    Z=             -1.9142  Tot=              2.8241
 Quadrupole moment (field-independent basis, Debye-Ang):
   XX=            -58.1904   YY=            -48.2978   ZZ=            -54.1483
   XY=              0.0000   XZ=              1.4463   YZ=              0.0000

  Exact polarizability:  73.749   0.000  78.455   0.889   0.000  64.952
 Approx polarizability: 105.234   0.000 115.697  -0.202   0.000 101.745

                      1                      2                      3
                      A                      A                      A
 Frequencies --    234.2437               235.5580               314.2821
 Red. masses --      2.5173                 2.4548                 2.3798
 Frc consts  --      0.0814                 0.0803                 0.1385
 IR Inten    --      0.7482                 1.4527                 0.4382

                      4                      5                      6
                      A                      A                      A
 Frequencies --    341.2883               440.1125               457.9097
 Red. masses --      3.0386                 4.7031                 5.6058
 Frc consts  --      0.2085                 0.5367                 0.6925
 IR Inten    --      0.6741                 9.4439                 2.2847

                      7                      8                      9
                      A                      A                      A
 Frequencies --    520.1213               623.0499               749.5576
 Red. masses --      4.8094                 2.0025                 3.2744
 Frc consts  --      0.7666                 0.4580                 1.0839
 IR Inten    --      0.3574                 4.7997                15.0956

                     10                     11                     12
                      A                      A                      A
 Frequencies --    785.2685               825.9306               829.2891
 Red. masses --      4.3213                 3.5274                 2.5319
 Frc consts  --      1.5700                 1.4177                 1.0259
 IR Inten    --      0.4497                 5.3297                 1.4231

                     13                     14                     15
                      A                      A                      A
 Frequencies --    870.2257               879.4682               887.7682
 Red. masses --      1.8656                 3.3887                 2.9190
 Frc consts  --      0.8324                 1.5443                 1.3554
 IR Inten    --     30.3282                 1.4865                11.0849

                     16                     17                     18
                      A                      A                      A
 Frequencies --    890.3830               928.8612               955.7036
 Red. masses --      2.0438                 2.6538                 2.1249
 Frc consts  --      0.9547                 1.3490                 1.1435
 IR Inten    --      3.9886                31.8938                 4.2407

                     19                     20                     21
                      A                      A                      A
 Frequencies --    989.3874              1005.1184              1048.5980
 Red. masses --      1.6937                 1.9665                 2.4772
 Frc consts  --      0.9768                 1.1705                 1.6048
 IR Inten    --     10.2286                 2.9071                44.4127

                     22                     23                     24
                      A                      A                      A
 Frequencies --   1076.6890              1080.2308              1092.5360
 Red. masses --      2.8070                 2.4778                 1.2799
 Frc consts  --      1.9172                 1.7035                 0.9001
 IR Inten    --      5.0225                11.6164                 5.6647

                     25                     26                     27
                      A                      A                      A
 Frequencies --   1115.0541              1175.8939              1204.7092
 Red. masses --      2.2536                 1.2403                 1.5321
 Frc consts  --      1.6509                 1.0104                 1.3101
 IR Inten    --      7.1176                 3.1662                 5.6206

                     28                     29                     30
                      A                      A                      A
 Frequencies --   1237.8747              1270.1031              1279.3266
 Red. masses --      1.3895                 1.2124                 1.2428
 Frc consts  --      1.2544                 1.1523                 1.1984
 IR Inten    --      3.5853                 2.6570                 0.0027

                     31                     32                     33
                      A                      A                      A
 Frequencies --   1313.2128              1314.4420              1333.6885
 Red. masses --      1.3745                 1.8067                 1.3542
 Frc consts  --      1.3966                 1.8392                 1.4192
 IR Inten    --      1.6419                 9.0905                 0.0534

                     34                     35                     36
                      A                      A                      A
 Frequencies --   1360.5962              1363.8621              1377.4797
 Red. masses --      1.3755                 1.6037                 1.4867
 Frc consts  --      1.5003                 1.7576                 1.6620
 IR Inten    --      0.0175                 6.2456                 1.8524

                     37                     38                     39
                      A                      A                      A
 Frequencies --   1384.9150              1432.1515              1473.8884
 Red. masses --      1.4041                 3.0722                 1.0893
 Frc consts  --      1.5868                 3.7126                 1.3942
 IR Inten    --      1.8773                 5.6975                 1.6689

                     40                     41                     42
                      A                      A                      A
 Frequencies --   1480.6052              1504.2088              3031.6547
 Red. masses --      1.0858                 1.0905                 1.0616
 Frc consts  --      1.4024                 1.4538                 5.7486
 IR Inten    --      3.1463                 3.9673                 4.9184

                     43                     44                     45
                      A                      A                      A
 Frequencies --   3033.3395              3042.9440              3067.9333
 Red. masses --      1.0599                 1.0645                 1.0985
 Frc consts  --      5.7461                 5.8076                 6.0920
 IR Inten    --     44.3067                24.6981                26.9414

                     46                     47                     48
                      A                      A                      A
 Frequencies --   3075.7747              3079.2829              3081.2030
 Red. masses --      1.0970                 1.0914                 1.0898
 Frc consts  --      6.1143                 6.0973                 6.0958
 IR Inten    --     41.6388                26.9450                15.9948

                     49                     50                     51
                      A                      A                      A
 Frequencies --   3090.3487              3152.7549              3165.5771
 Red. masses --      1.1027                 1.0868                 1.0969
 Frc consts  --      6.2045                 6.3647                 6.4764
 IR Inten    --     62.0566                16.1792                18.5675

 - Thermochemistry -
 -------------------
 Temperature   298.150 Kelvin.  Pressure   1.00000 Atm.
 Atom     1 has atomic number  6 and mass  12.00000

 Molecular mass:   126.06808 amu.
 Principal axes and moments of inertia in atomic units:
                           1         2         3
     Eigenvalues --   625.46626 987.970471141.47084
           X            0.99998   0.00000  -0.00658
           Y            0.00000   1.00000   0.00000
           Z            0.00658   0.00000   0.99998
 This molecule is an asymmetric top.
 Rotational symmetry number  1.
 Warning -- assumption of classical behavior for rotation
           may cause significant error
 Rotational temperatures (Kelvin)      0.13848     0.08767     0.07588
 Rotational constants (GHZ):           2.88543     1.82672     1.58107
 Zero-point vibrational energy     427691.3 (Joules/Mol)
                                  102.22068 (Kcal/Mol)
 Warning -- explicit consideration of   7 degrees of freedom as
           vibrations may cause significant error
 Vibrational temperatures:    337.02   338.92   452.18   491.04   633.22
          (Kelvin)            658.83   748.34   896.43  1078.44  1129.82
                             1188.33  1193.16  1252.06  1265.36  1277.30
                             1281.06  1336.42  1375.04  1423.51  1446.14
                             1508.70  1549.11  1554.21  1571.91  1604.31
                             1691.85  1733.31  1781.02  1827.39  1840.66
                             1889.42  1891.19  1918.88  1957.59  1962.29
                             1981.88  1992.58  2060.54  2120.59  2130.26
                             2164.22  4361.87  4364.29  4378.11  4414.07
                             4425.35  4430.40  4433.16  4446.32  4536.11
                             4554.55

 Zero-point correction=                           0.162899 (Hartree/Particle)
 Thermal correction to Energy=                    0.169419
 Thermal correction to Enthalpy=                  0.170363
 Thermal correction to Gibbs Free Energy=         0.132400
 Sum of electronic and zero-point Energies=           -423.024165
 Sum of electronic and thermal Energies=              -423.017645
 Sum of electronic and thermal Enthalpies=            -423.016701
 Sum of electronic and thermal Free Energies=         -423.054664

                     E (Thermal)             CV                S
                      KCal/Mol        Cal/Mol-Kelvin    Cal/Mol-Kelvin
 Total                  106.312             27.686             79.901
 Electronic               0.000              0.000              0.000
 Translational            0.889              2.981             40.409
 Rotational               0.889              2.981             28.047
 Vibrational            104.535             21.725             11.446
 Vibration     1          0.654              1.788              1.846
 Vibration     2          0.655              1.786              1.836
 Vibration     3          0.702              1.646              1.340
 Vibration     4          0.721              1.593              1.206
 Vibration     5          0.800              1.383              0.826
 Vibration     6          0.816              1.343              0.772
 Vibration     7          0.875              1.205              0.610

 Optimization completed.
    -- Stationary point found.
 Normal termination of Gaussian 09 at Mon Jan 27 12:10:34 2020.
