 Gaussian 09, Revision D.01,
 Gaussian 09:  ES64L-G09RevD.01 24-Apr-2013

 -----------------------------
 # b3lyp 6-31G(2df,p) opt Freq
 -----------------------------

 -----
 titel
 -----
 Symbolic Z-matrix:
 Charge =  0 Multiplicity = 1

 SCF Done:  E(RB3LYP) =  -423.123510145     A.U. after   14 cycles
 Optimization completed.
    -- Stationary point found.
 Normal termination of Gaussian 09 at Tue Jan 28 14:14:54 2020.

 ----------------------------------------------------------------------
 #N Geom=AllCheck Guess=TCheck SCRF=Check GenChk RB3LYP/6-31G(2df,p) Fr
 eq
 ----------------------------------------------------------------------

 Structure from the checkpoint file:  "/scratch/puck/g09_39f50981-cfba-4f84-8047-2a757ae2b773/Gau-98569.chk"
 -----
 titel
 -----
 Charge =  0 Multiplicity = 1

                         Standard orientation:
 ---------------------------------------------------------------------
 Center     Atomic      Atomic             Coordinates (Angstroms)
 Number     Number       Type             X           Y           Z
 ---------------------------------------------------------------------
      1          8           0       -3.562764   -0.094662    0.078439
      2          6           0       -2.316108    0.518384   -0.211450
      3          6           0       -1.242032   -0.562906   -0.153778
      4          6           0        0.140328   -0.042540   -0.518079
      5          6           0        1.349350   -0.987121   -0.186531
      6          8           0        1.228935   -0.561616    1.211361
      7          6           0        0.934650    0.735346    0.597005
      8          6           0        2.253830    1.044986   -0.130394
      9          6           0        2.540270   -0.142371   -0.669498
     10          1           0       -4.242363    0.585489    0.069942
     11          1           0       -2.324583    0.984223   -1.211314
     12          1           0       -2.086496    1.315284    0.514704
     13          1           0       -1.222613   -1.001794    0.847423
     14          1           0       -1.527631   -1.359096   -0.852992
     15          1           0        0.156968    0.413367   -1.512788
     16          1           0        1.334181   -2.066232   -0.336870
     17          1           0        0.490437    1.466771    1.271457
     18          1           0        2.769658    1.992407   -0.178389
     19          1           0        3.361348   -0.462852   -1.293225
 ---------------------------------------------------------------------

 SCF Done:  E(RB3LYP) =  -423.123510145     A.U. after    1 cycles

 The electronic state is 1-A.
 Alpha  occ. eigenvalues --  -19.13209 -19.12758 -10.24053 -10.24020 -10.22689
 Alpha  occ. eigenvalues --  -10.19756 -10.18617 -10.18529 -10.17571  -1.04500
 Alpha  occ. eigenvalues --   -1.01314  -0.80658  -0.77363  -0.69178  -0.68513
 Alpha  occ. eigenvalues --   -0.60467  -0.54436  -0.54160  -0.52787  -0.49737
 Alpha  occ. eigenvalues --   -0.48660  -0.44987  -0.41797  -0.40344  -0.39258
 Alpha  occ. eigenvalues --   -0.38150  -0.36339  -0.35502  -0.33410  -0.32113
 Alpha  occ. eigenvalues --   -0.30479  -0.26629  -0.25149  -0.23572
 Alpha virt. eigenvalues --    0.00053   0.07784   0.09862   0.10229   0.12043
 Alpha virt. eigenvalues --    0.12942   0.14339   0.15237   0.15613   0.16202
 Alpha virt. eigenvalues --    0.17355   0.18677   0.20521   0.21176   0.21726

 Mulliken charges:
               1
     1  O   -0.418537
     2  C   -0.073318
     3  C   -0.209653
     4  C    0.015394
     5  C   -0.000806
     6  O   -0.284814
     7  C    0.007533
     8  C   -0.082071
     9  C   -0.083159
    10  H    0.285135
    11  H    0.081666
    12  H    0.084840
    13  H    0.125187
    14  H    0.103707
    15  H    0.069700
    16  H    0.079518
    17  H    0.078838
    18  H    0.109913
    19  H    0.110929
 Sum of Mulliken charges =   0.00000

 Dipole moment (field-independent basis, Debye):
    X=             -0.1749    Y=              1.9673    Z=             -1.8294  Tot=              2.6921
 Quadrupole moment (field-independent basis, Debye-Ang):
   XX=            -50.8861   YY=            -49.6954   ZZ=            -55.6131
   XY=             -4.9950   XZ=             -2.7231   YZ=              2.8388

  Exact polarizability:  89.893   0.235  74.702  -4.978   4.568  61.620
 Approx polarizability: 110.613  -2.070 123.293  -6.943   9.454 101.316

                      1                      2                      3
                      A                      A                      A
 Frequencies --     81.5051                86.1477               124.0388
 Red. masses --      3.3250                 2.4950                 4.0007
 Frc consts  --      0.0130                 0.0109                 0.0363
 IR Inten    --      5.0007                 3.0540                 0.1471

                      4                      5                      6
                      A                      A                      A
 Frequencies --    261.9986               278.6300               330.3042
 Red. masses --      1.1073                 2.6560                 5.8226
 Frc consts  --      0.0448                 0.1215                 0.3743
 IR Inten    --     94.4364                10.3960                 6.0434

                      7                      8                      9
                      A                      A                      A
 Frequencies --    346.6633               527.9513               553.0170
 Red. masses --      3.2375                 2.9201                 2.4829
 Frc consts  --      0.2292                 0.4796                 0.4474
 IR Inten    --      6.5796                 3.0086                10.1111

                     10                     11                     12
                      A                      A                      A
 Frequencies --    640.6211               703.7810               746.4986
 Red. masses --      3.4274                 1.9447                 3.3776
 Frc consts  --      0.8287                 0.5675                 1.1090
 IR Inten    --      0.5245                34.3194                 4.2798

                     13                     14                     15
                      A                      A                      A
 Frequencies --    782.5840               853.9539               858.8544
 Red. masses --      1.7805                 1.9194                 3.4299
 Frc consts  --      0.6425                 0.8247                 1.4906
 IR Inten    --      4.3982                26.8864                18.2576

                     16                     17                     18
                      A                      A                      A
 Frequencies --    871.7223               893.2827               908.6159
 Red. masses --      2.0082                 3.3977                 1.4718
 Frc consts  --      0.8991                 1.5974                 0.7159
 IR Inten    --      2.5558                 6.0558                 0.8087

                     19                     20                     21
                      A                      A                      A
 Frequencies --    917.5872               953.4962              1003.5288
 Red. masses --      2.9648                 4.5423                 1.5713
 Frc consts  --      1.4708                 2.4331                 0.9323
 IR Inten    --     12.8671                14.3029                 0.8209

                     22                     23                     24
                      A                      A                      A
 Frequencies --   1021.4657              1075.9529              1081.0242
 Red. masses --      2.4847                 2.0889                 3.8657
 Frc consts  --      1.5274                 1.4248                 2.6616
 IR Inten    --     21.9414                43.3198                45.6713

                     25                     26                     27
                      A                      A                      A
 Frequencies --   1107.8779              1154.8663              1157.9362
 Red. masses --      1.9229                 1.3327                 2.2715
 Frc consts  --      1.3905                 1.0472                 1.7945
 IR Inten    --      2.3900                 3.1789                 1.4594

                     28                     29                     30
                      A                      A                      A
 Frequencies --   1184.1488              1218.3737              1234.0853
 Red. masses --      1.2814                 1.2629                 1.2363
 Frc consts  --      1.0586                 1.1045                 1.1093
 IR Inten    --      1.5988                 2.8502                 6.2945

                     31                     32                     33
                      A                      A                      A
 Frequencies --   1246.0613              1252.8142              1299.3048
 Red. masses --      1.3887                 1.3261                 1.4715
 Frc consts  --      1.2704                 1.2263                 1.4637
 IR Inten    --      5.0584                26.8129                 3.9704

                     34                     35                     36
                      A                      A                      A
 Frequencies --   1299.5502              1311.4820              1326.7724
 Red. masses --      1.5717                 1.1396                 1.3603
 Frc consts  --      1.5639                 1.1549                 1.4109
 IR Inten    --     11.8887                 5.4930                14.0833

                     37                     38                     39
                      A                      A                      A
 Frequencies --   1392.7107              1461.1419              1493.2495
 Red. masses --      1.5702                 1.4484                 1.0891
 Frc consts  --      1.7944                 1.8219                 1.4308
 IR Inten    --     11.3778                 7.8696                 2.4127

                     40                     41                     42
                      A                      A                      A
 Frequencies --   1528.0185              1613.6061              2955.3080
 Red. masses --      1.0871                 5.7538                 1.0555
 Frc consts  --      1.4955                 8.8268                 5.4312
 IR Inten    --      2.8518                 0.4977                54.3354

                     43                     44                     45
                      A                      A                      A
 Frequencies --   2981.1616              3034.5408              3061.3247
 Red. masses --      1.1039                 1.0661                 1.0847
 Frc consts  --      5.7802                 5.7841                 5.9895
 IR Inten    --     50.8705                26.9949                30.0308

                     46                     47                     48
                      A                      A                      A
 Frequencies --   3104.6087              3127.9403              3131.4202
 Red. masses --      1.0963                 1.0890                 1.0937
 Frc consts  --      6.2255                 6.2775                 6.3185
 IR Inten    --     20.6178                63.9264                 5.5606

                     49                     50                     51
                      A                      A                      A
 Frequencies --   3232.7625              3259.9990              3830.5969
 Red. masses --      1.0866                 1.1118                 1.0664
 Frc consts  --      6.6905                 6.9614                 9.2191
 IR Inten    --      2.9341                 6.7869                19.5792

 - Thermochemistry -
 -------------------
 Temperature   298.150 Kelvin.  Pressure   1.00000 Atm.
 Atom     1 has atomic number  8 and mass  15.99491

 Molecular mass:   126.06808 amu.
 Principal axes and moments of inertia in atomic units:
                           1         2         3
     Eigenvalues --   383.224852072.984332124.02570
           X            0.99997  -0.00381  -0.00693
           Y            0.00474   0.99025   0.13925
           Z            0.00633  -0.13928   0.99023
 This molecule is an asymmetric top.
 Rotational symmetry number  1.
 Rotational temperatures (Kelvin)      0.22601     0.04178     0.04078
 Rotational constants (GHZ):           4.70935     0.87060     0.84968
 Zero-point vibrational energy     418124.1 (Joules/Mol)
                                   99.93405 (Kcal/Mol)
 Warning -- explicit consideration of   9 degrees of freedom as
           vibrations may cause significant error
 Vibrational temperatures:    117.27   123.95   178.46   376.96   400.89
          (Kelvin)            475.23   498.77   759.60   795.67   921.71
                             1012.58  1074.04  1125.96  1228.65  1235.70
                             1254.21  1285.23  1307.29  1320.20  1371.87
                             1443.85  1469.66  1548.05  1555.35  1593.99
                             1661.59  1666.01  1703.72  1752.97  1775.57
                             1792.80  1802.52  1869.41  1869.76  1886.93
                             1908.93  2003.80  2102.25  2148.45  2198.48
                             2321.62  4252.02  4289.22  4366.02  4404.56
                             4466.83  4500.40  4505.41  4651.22  4690.41
                             5511.37

 Zero-point correction=                           0.159255 (Hartree/Particle)
 Thermal correction to Energy=                    0.167519
 Thermal correction to Enthalpy=                  0.168463
 Thermal correction to Gibbs Free Energy=         0.125835
 Sum of electronic and zero-point Energies=           -422.964255
 Sum of electronic and thermal Energies=              -422.955991
 Sum of electronic and thermal Enthalpies=            -422.955047
 Sum of electronic and thermal Free Energies=         -422.997675

                     E (Thermal)             CV                S
                      KCal/Mol        Cal/Mol-Kelvin    Cal/Mol-Kelvin
 Total                  105.120             31.522             89.719
 Electronic               0.000              0.000              0.000
 Translational            0.889              2.981             40.409
 Rotational               0.889              2.981             28.913
 Vibrational            103.342             25.560             20.397
 Vibration     1          0.600              1.962              3.854
 Vibration     2          0.601              1.959              3.746
 Vibration     3          0.610              1.929              3.036
 Vibration     4          0.669              1.742              1.648
 Vibration     5          0.679              1.713              1.542
 Vibration     6          0.713              1.615              1.259
 Vibration     7          0.725              1.582              1.181
 Vibration     8          0.883              1.188              0.592
 Vibration     9          0.908              1.133              0.538

 Optimization completed.
    -- Stationary point found.
 Normal termination of Gaussian 09 at Tue Jan 28 15:00:00 2020.
