 Gaussian 09, Revision D.01,
 Gaussian 09:  ES64L-G09RevD.01 24-Apr-2013

 -----------------------------
 # b3lyp 6-31G(2df,p) opt Freq
 -----------------------------

 -----
 titel
 -----
 Symbolic Z-matrix:
 Charge =  0 Multiplicity = 1

 SCF Done:  E(RB3LYP) =  -423.194830184     A.U. after   14 cycles
 Optimization completed.
    -- Stationary point found.
 Normal termination of Gaussian 09 at Tue Jan 28 08:10:17 2020.

 ----------------------------------------------------------------------
 #N Geom=AllCheck Guess=TCheck SCRF=Check GenChk RB3LYP/6-31G(2df,p) Fr
 eq
 ----------------------------------------------------------------------

 Structure from the checkpoint file:  "/scratch/puck/g09_fa811487-d3be-4e08-b052-d4a7e8ef958b/Gau-74114.chk"
 -----
 titel
 -----
 Charge =  0 Multiplicity = 1

                         Standard orientation:
 ---------------------------------------------------------------------
 Center     Atomic      Atomic             Coordinates (Angstroms)
 Number     Number       Type             X           Y           Z
 ---------------------------------------------------------------------
      1          6           0       -2.582325   -1.157554    0.231708
      2          6           0       -1.359377   -0.605857   -0.501099
      3          8           0       -1.507223    0.784980   -0.820168
      4          6           0       -0.934272    1.572798    0.219511
      5          6           0        0.174825    0.720355    0.807496
      6          6           0        1.102503    0.082735   -0.221254
      7          6           0        2.446268   -0.329799    0.235660
      8          8           0        3.445901   -0.299915   -0.438084
      9          6           0       -0.094748   -0.672804    0.344871
     10          1           0       -2.479706   -2.235172    0.397703
     11          1           0       -2.714402   -0.674336    1.205156
     12          1           0       -3.482109   -0.984986   -0.364512
     13          1           0       -1.243876   -1.120326   -1.462320
     14          1           0       -0.590782    2.509114   -0.231883
     15          1           0       -1.671754    1.816507    1.000282
     16          1           0        0.555932    0.941234    1.797778
     17          1           0        1.044388    0.433172   -1.246756
     18          1           0        2.476381   -0.687697    1.293975
     19          1           0        0.079256   -1.537277    0.975233
 ---------------------------------------------------------------------

 SCF Done:  E(RB3LYP) =  -423.194830184     A.U. after    1 cycles

 The electronic state is 1-A.
 Alpha  occ. eigenvalues --  -19.14656 -19.13229 -10.26957 -10.24596 -10.24106
 Alpha  occ. eigenvalues --  -10.21535 -10.21367 -10.20658 -10.18453  -1.04667
 Alpha  occ. eigenvalues --   -1.04022  -0.88323  -0.77722  -0.71156  -0.67358
 Alpha  occ. eigenvalues --   -0.59863  -0.58785  -0.58107  -0.51385  -0.50021
 Alpha  occ. eigenvalues --   -0.47240  -0.44287  -0.43099  -0.42271  -0.41755
 Alpha  occ. eigenvalues --   -0.40694  -0.39159  -0.38699  -0.36079  -0.33313
 Alpha  occ. eigenvalues --   -0.30958  -0.29643  -0.26279  -0.24912
 Alpha virt. eigenvalues --   -0.01951   0.07926   0.09949   0.11005   0.11705
 Alpha virt. eigenvalues --    0.12435   0.13109   0.14888   0.15459   0.15816
 Alpha virt. eigenvalues --    0.16777   0.17423   0.18544   0.19210   0.20082

 Mulliken charges:
               1
     1  C   -0.402758
     2  C    0.108609
     3  O   -0.267741
     4  C   -0.107980
     5  C   -0.080861
     6  C   -0.126655
     7  C    0.156477
     8  O   -0.268798
     9  C   -0.072300
    10  H    0.117516
    11  H    0.119093
    12  H    0.130246
    13  H    0.093720
    14  H    0.118708
    15  H    0.100075
    16  H    0.101899
    17  H    0.119040
    18  H    0.061374
    19  H    0.100337
 Sum of Mulliken charges =   0.00000

 Dipole moment (field-independent basis, Debye):
    X=             -2.5628    Y=             -0.3745    Z=              2.2343  Tot=              3.4205
 Quadrupole moment (field-independent basis, Debye-Ang):
   XX=            -67.1110   YY=            -50.4088   ZZ=            -52.7620
   XY=              2.5383   XZ=              2.1384   YZ=              1.2389

  Exact polarizability:  95.092   0.184  71.236  -3.134   0.588  66.730
 Approx polarizability: 127.798  -0.997 105.009 -10.092   0.984 107.221

                      1                      2                      3
                      A                      A                      A
 Frequencies --     91.1678               138.1740               168.6504
 Red. masses --      5.0948                 4.5554                 3.0485
 Frc consts  --      0.0249                 0.0512                 0.0511
 IR Inten    --      4.3615                 3.7104                 2.0471

                      4                      5                      6
                      A                      A                      A
 Frequencies --    224.7848               247.1322               287.5276
 Red. masses --      1.0609                 2.2080                 2.2639
 Frc consts  --      0.0316                 0.0795                 0.1103
 IR Inten    --      0.3162                 1.8211                 3.9338

                      7                      8                      9
                      A                      A                      A
 Frequencies --    338.6804               368.8417               450.2045
 Red. masses --      3.9784                 2.7675                 3.5819
 Frc consts  --      0.2689                 0.2218                 0.4277
 IR Inten    --      1.6057                 4.2039                11.3839

                     10                     11                     12
                      A                      A                      A
 Frequencies --    526.3814               704.3492               733.5924
 Red. masses --      4.1431                 3.6942                 3.3822
 Frc consts  --      0.6764                 1.0798                 1.0724
 IR Inten    --     15.8760                 0.6489                 1.1292

                     13                     14                     15
                      A                      A                      A
 Frequencies --    819.4828               844.0030               867.2804
 Red. masses --      3.3302                 3.0431                 1.6355
 Frc consts  --      1.3176                 1.2772                 0.7248
 IR Inten    --      1.0680                 5.8358                13.6792

                     16                     17                     18
                      A                      A                      A
 Frequencies --    918.5332               952.6766               977.8041
 Red. masses --      2.7317                 1.7758                 2.0986
 Frc consts  --      1.3579                 0.9496                 1.1822
 IR Inten    --     11.7399                 5.1064                 9.2992

                     19                     20                     21
                      A                      A                      A
 Frequencies --   1010.2384              1022.8330              1054.3265
 Red. masses --      2.0119                 1.6753                 1.7987
 Frc consts  --      1.2098                 1.0326                 1.1781
 IR Inten    --     19.2059                 9.4060                 3.0725

                     22                     23                     24
                      A                      A                      A
 Frequencies --   1074.7812              1099.1349              1104.4120
 Red. masses --      2.0917                 2.0512                 1.2726
 Frc consts  --      1.4236                 1.4600                 0.9145
 IR Inten    --     25.4771                76.9618                27.0214

                     25                     26                     27
                      A                      A                      A
 Frequencies --   1127.6908              1136.9744              1151.3507
 Red. masses --      2.0076                 2.2025                 1.8454
 Frc consts  --      1.5042                 1.6775                 1.4413
 IR Inten    --     10.2940                37.8995                25.5473

                     28                     29                     30
                      A                      A                      A
 Frequencies --   1198.1484              1226.7044              1249.0282
 Red. masses --      1.8495                 1.2283                 1.3923
 Frc consts  --      1.5643                 1.0890                 1.2797
 IR Inten    --     19.9124                14.6634                 4.6016

                     31                     32                     33
                      A                      A                      A
 Frequencies --   1300.9436              1333.4297              1369.3325
 Red. masses --      1.3800                 1.6393                 1.7738
 Frc consts  --      1.3761                 1.7173                 1.9597
 IR Inten    --      1.0564                 6.4980                 4.6946

                     34                     35                     36
                      A                      A                      A
 Frequencies --   1374.6210              1403.1175              1416.9782
 Red. masses --      1.3220                 1.2671                 1.5474
 Frc consts  --      1.4718                 1.4698                 1.8306
 IR Inten    --     11.8623                 9.1635                 1.1719

                     37                     38                     39
                      A                      A                      A
 Frequencies --   1448.2501              1488.9948              1493.6846
 Red. masses --      1.5101                 1.0548                 1.0522
 Frc consts  --      1.8662                 1.3778                 1.3831
 IR Inten    --      8.4320                 2.9750                 1.6329

                     40                     41                     42
                      A                      A                      A
 Frequencies --   1522.8067              1823.0579              2831.4665
 Red. masses --      1.0877                10.1871                 1.0806
 Frc consts  --      1.4861                19.9481                 5.1044
 IR Inten    --      0.0720               293.4940               103.5478

                     43                     44                     45
                      A                      A                      A
 Frequencies --   2982.3464              3037.5476              3039.9009
 Red. masses --      1.0702                 1.0363                 1.0844
 Frc consts  --      5.6082                 5.6336                 5.9043
 IR Inten    --     67.0135                14.9398                26.2722

                     46                     47                     48
                      A                      A                      A
 Frequencies --   3072.8514              3107.3856              3122.5820
 Red. masses --      1.0932                 1.1011                 1.1019
 Frc consts  --      6.0817                 6.2642                 6.3302
 IR Inten    --     31.9938                26.0753                19.3097

                     49                     50                     51
                      A                      A                      A
 Frequencies --   3173.5565              3177.9473              3186.5444
 Red. masses --      1.0899                 1.0882                 1.0929
 Frc consts  --      6.4675                 6.4750                 6.5385
 IR Inten    --      1.5403                 7.7033                 7.6337

 - Thermochemistry -
 -------------------
 Temperature   298.150 Kelvin.  Pressure   1.00000 Atm.
 Atom     1 has atomic number  6 and mass  12.00000

 Molecular mass:   126.06808 amu.
 Principal axes and moments of inertia in atomic units:
                           1         2         3
     Eigenvalues --   487.938671801.690541997.33097
           X            0.99983   0.01865   0.00022
           Y           -0.01865   0.99982   0.00456
           Z           -0.00013  -0.00456   0.99999
 This molecule is an asymmetric top.
 Rotational symmetry number  1.
 Warning -- assumption of classical behavior for rotation
           may cause significant error
 Rotational temperatures (Kelvin)      0.17751     0.04807     0.04336
 Rotational constants (GHZ):           3.69871     1.00169     0.90358
 Zero-point vibrational energy     417629.7 (Joules/Mol)
                                   99.81589 (Kcal/Mol)
 Warning -- explicit consideration of  10 degrees of freedom as
           vibrations may cause significant error
 Vibrational temperatures:    131.17   198.80   242.65   323.41   355.57
          (Kelvin)            413.69   487.28   530.68   647.74   757.34
                             1013.40  1055.47  1179.05  1214.33  1247.82
                             1321.56  1370.69  1406.84  1453.51  1471.63
                             1516.94  1546.37  1581.41  1589.00  1622.49
                             1635.85  1656.53  1723.87  1764.95  1797.07
                             1871.77  1918.51  1970.16  1977.77  2018.77
                             2038.71  2083.71  2142.33  2149.08  2190.98
                             2622.97  4073.84  4290.93  4370.35  4373.73
                             4421.14  4470.83  4492.69  4566.03  4572.35
                             4584.72

 Zero-point correction=                           0.159067 (Hartree/Particle)
 Thermal correction to Energy=                    0.167466
 Thermal correction to Enthalpy=                  0.168410
 Thermal correction to Gibbs Free Energy=         0.125903
 Sum of electronic and zero-point Energies=           -423.035763
 Sum of electronic and thermal Energies=              -423.027364
 Sum of electronic and thermal Enthalpies=            -423.026420
 Sum of electronic and thermal Free Energies=         -423.068927

                     E (Thermal)             CV                S
                      KCal/Mol        Cal/Mol-Kelvin    Cal/Mol-Kelvin
 Total                  105.086             31.581             89.463
 Electronic               0.000              0.000              0.000
 Translational            0.889              2.981             40.409
 Rotational               0.889              2.981             28.953
 Vibrational            103.309             25.619             20.102
 Vibration     1          0.602              1.955              3.635
 Vibration     2          0.614              1.915              2.829
 Vibration     3          0.625              1.881              2.450
 Vibration     4          0.649              1.803              1.920
 Vibration     5          0.661              1.768              1.751
 Vibration     6          0.685              1.697              1.488
 Vibration     7          0.719              1.598              1.218
 Vibration     8          0.741              1.536              1.085
 Vibration     9          0.809              1.360              0.795
 Vibration    10          0.881              1.192              0.595

 Normal termination of Gaussian 09 at Tue Jan 28 08:56:06 2020.
