 Gaussian 09, Revision D.01,
 Gaussian 09:  ES64L-G09RevD.01 24-Apr-2013

 -----------------------------
 # b3lyp 6-31G(2df,p) opt Freq
 -----------------------------

 -----
 titel
 -----
 Symbolic Z-matrix:
 Charge =  0 Multiplicity = 1

 SCF Done:  E(RB3LYP) =  -423.180936623     A.U. after   13 cycles
 Optimization completed.
    -- Stationary point found.
 Normal termination of Gaussian 09 at Mon Jan 27 11:18:47 2020.

 ----------------------------------------------------------------------
 #N Geom=AllCheck Guess=TCheck SCRF=Check GenChk RB3LYP/6-31G(2df,p) Fr
 eq
 ----------------------------------------------------------------------

 Structure from the checkpoint file:  "/scratch/puck/g09_97258f8f-db6d-45da-9d20-44b06d4e68ed/Gau-150493.chk"
 -----
 titel
 -----
 Charge =  0 Multiplicity = 1

                         Standard orientation:
 ---------------------------------------------------------------------
 Center     Atomic      Atomic             Coordinates (Angstroms)
 Number     Number       Type             X           Y           Z
 ---------------------------------------------------------------------
      1          6           0        0.645913   -0.928866    1.172830
      2          6           0        1.287911    0.404373    0.820550
      3          6           0        0.491146    1.419524    0.005763
      4          6           0       -1.027446    1.437168   -0.142599
      5          8           0       -1.715702    0.335541    0.418286
      6          6           0       -1.480790   -0.899338   -0.226423
      7          6           0       -0.016084   -1.353460   -0.157646
      8          8           0        0.759197   -0.741945   -1.200697
      9          6           0        1.372777    0.409855   -0.682052
     10          1           0        1.429685   -1.636629    1.461558
     11          1           0       -0.085241   -0.870522    1.981345
     12          1           0        2.099062    0.764765    1.442385
     13          1           0        0.911773    2.422521    0.037583
     14          1           0       -1.423393    2.312448    0.381531
     15          1           0       -1.287497    1.541956   -1.209535
     16          1           0       -2.113800   -1.626065    0.294429
     17          1           0       -1.787636   -0.861434   -1.283343
     18          1           0        0.023989   -2.433545   -0.333704
     19          1           0        2.244531    0.702196   -1.255504
 ---------------------------------------------------------------------

 SCF Done:  E(RB3LYP) =  -423.180936623     A.U. after    1 cycles

 The electronic state is 1-A.
 Alpha  occ. eigenvalues --  -19.13994 -19.13869 -10.23068 -10.22909 -10.22822
 Alpha  occ. eigenvalues --  -10.22283 -10.19097 -10.18824 -10.18557  -1.04851
 Alpha  occ. eigenvalues --   -1.02490  -0.84858  -0.77770  -0.70865  -0.68874
 Alpha  occ. eigenvalues --   -0.59442  -0.56387  -0.55000  -0.53055  -0.48339
 Alpha  occ. eigenvalues --   -0.47733  -0.46021  -0.42868  -0.42748  -0.40409
 Alpha  occ. eigenvalues --   -0.38830  -0.36914  -0.36223  -0.34589  -0.32518
 Alpha  occ. eigenvalues --   -0.29898  -0.27388  -0.25323  -0.23036
 Alpha virt. eigenvalues --    0.07770   0.10297   0.11867   0.12841   0.13182
 Alpha virt. eigenvalues --    0.14272   0.15193   0.15356   0.16984   0.17582
 Alpha virt. eigenvalues --    0.17847   0.18612   0.19383   0.20291   0.22828

 Mulliken charges:
               1
     1  C   -0.240224
     2  C   -0.107402
     3  C   -0.084931
     4  C   -0.110454
     5  O   -0.237320
     6  C   -0.086304
     7  C    0.057685
     8  O   -0.264837
     9  C    0.087486
    10  H    0.101822
    11  H    0.119966
    12  H    0.088570
    13  H    0.087784
    14  H    0.110309
    15  H    0.095487
    16  H    0.103543
    17  H    0.098586
    18  H    0.084696
    19  H    0.095538
 Sum of Mulliken charges =   0.00000

 Dipole moment (field-independent basis, Debye):
    X=              0.7105    Y=              0.2555    Z=              0.5190  Tot=              0.9162
 Quadrupole moment (field-independent basis, Debye-Ang):
   XX=            -53.6582   YY=            -48.7950   ZZ=            -55.3288
   XY=              2.6398   XZ=              2.5839   YZ=             -1.9932

  Exact polarizability:  73.904   2.421  79.713   2.167  -2.155  66.268
 Approx polarizability: 103.000   1.849 113.083  -0.883  -0.973 105.637

                      1                      2                      3
                      A                      A                      A
 Frequencies --    154.6379               277.1647               296.3900
 Red. masses --      2.5446                 4.0426                 3.3470
 Frc consts  --      0.0359                 0.1830                 0.1732
 IR Inten    --      2.9014                 6.1096                 1.2861

                      4                      5                      6
                      A                      A                      A
 Frequencies --    375.5112               396.9617               490.4195
 Red. masses --      3.7670                 1.9435                 2.7745
 Frc consts  --      0.3130                 0.1804                 0.3932
 IR Inten    --      0.6742                 1.2118                 1.5629

                      7                      8                      9
                      A                      A                      A
 Frequencies --    560.9185               670.9058               712.2787
 Red. masses --      3.7729                 4.7117                 3.4482
 Frc consts  --      0.6994                 1.2495                 1.0307
 IR Inten    --      6.1722                 6.2484                12.8788

                     10                     11                     12
                      A                      A                      A
 Frequencies --    749.6041               774.0710               797.1860
 Red. masses --      3.1396                 2.4295                 3.0241
 Frc consts  --      1.0394                 0.8577                 1.1323
 IR Inten    --      3.8647                18.2111                 3.2765

                     13                     14                     15
                      A                      A                      A
 Frequencies --    814.6486               890.2020               913.9265
 Red. masses --      3.1610                 2.1476                 2.2956
 Frc consts  --      1.2360                 1.0027                 1.1297
 IR Inten    --      2.8577                 6.9294                20.6875

                     16                     17                     18
                      A                      A                      A
 Frequencies --    924.0494               990.9200              1018.6985
 Red. masses --      2.7744                 1.9529                 1.8774
 Frc consts  --      1.3958                 1.1298                 1.1479
 IR Inten    --     19.0094                15.9151                 4.8419

                     19                     20                     21
                      A                      A                      A
 Frequencies --   1027.1299              1035.1596              1051.0391
 Red. masses --      2.3054                 1.8981                 2.0229
 Frc consts  --      1.4330                 1.1984                 1.3166
 IR Inten    --      7.0787                 4.2903                 7.9696

                     22                     23                     24
                      A                      A                      A
 Frequencies --   1072.1262              1101.6518              1109.4891
 Red. masses --      2.1941                 1.5608                 1.5882
 Frc consts  --      1.4860                 1.1160                 1.1519
 IR Inten    --      6.0100                 7.0067                 3.9980

                     25                     26                     27
                      A                      A                      A
 Frequencies --   1132.3301              1174.9043              1192.7754
 Red. masses --      2.8031                 3.1177                 1.5020
 Frc consts  --      2.1175                 2.5356                 1.2590
 IR Inten    --      1.7598               129.4633                 5.6763

                     28                     29                     30
                      A                      A                      A
 Frequencies --   1204.9005              1270.2643              1285.6923
 Red. masses --      1.2831                 1.4750                 1.3613
 Frc consts  --      1.0975                 1.4023                 1.3258
 IR Inten    --      2.7111                30.1626                 9.3010

                     31                     32                     33
                      A                      A                      A
 Frequencies --   1312.0645              1328.9196              1342.8370
 Red. masses --      1.4042                 1.3088                 1.3444
 Frc consts  --      1.4242                 1.3619                 1.4283
 IR Inten    --      6.7591                 2.2648                 2.2730

                     34                     35                     36
                      A                      A                      A
 Frequencies --   1355.2271              1376.9319              1385.0614
 Red. masses --      1.4176                 1.4815                 1.4033
 Frc consts  --      1.5341                 1.6549                 1.5861
 IR Inten    --      1.7358                 1.6684                 6.1849

                     37                     38                     39
                      A                      A                      A
 Frequencies --   1411.0274              1441.5056              1478.0967
 Red. masses --      1.4863                 1.8405                 1.0850
 Frc consts  --      1.7435                 2.2533                 1.3966
 IR Inten    --     14.3519                 8.5116                 1.8729

                     40                     41                     42
                      A                      A                      A
 Frequencies --   1489.4519              1495.0690              2963.8327
 Red. masses --      1.1030                 1.1095                 1.0704
 Frc consts  --      1.4417                 1.4611                 5.5397
 IR Inten    --      1.9613                 5.6768                58.2616

                     43                     44                     45
                      A                      A                      A
 Frequencies --   2989.4000              3047.5949              3059.4476
 Red. masses --      1.0659                 1.0754                 1.0783
 Frc consts  --      5.6121                 5.8850                 5.9469
 IR Inten    --     50.9745                20.4161                35.5201

                     46                     47                     48
                      A                      A                      A
 Frequencies --   3072.7917              3076.1257              3115.3615
 Red. masses --      1.0919                 1.0945                 1.0998
 Frc consts  --      6.0744                 6.1020                 6.2889
 IR Inten    --     47.3531                35.0571                12.9516

                     49                     50                     51
                      A                      A                      A
 Frequencies --   3128.8820              3172.4747              3184.6564
 Red. masses --      1.0871                 1.0889                 1.0945
 Frc consts  --      6.2707                 6.4573                 6.5404
 IR Inten    --     16.7259                13.2413                26.6677

 - Thermochemistry -
 -------------------
 Temperature   298.150 Kelvin.  Pressure   1.00000 Atm.
 Atom     1 has atomic number  6 and mass  12.00000

 Molecular mass:   126.06808 amu.
 Principal axes and moments of inertia in atomic units:
                           1         2         3
     Eigenvalues --   725.65525 857.331251082.67054
           X            0.99562   0.08101   0.04670
           Y           -0.07865   0.99563  -0.05030
           Z           -0.05057   0.04641   0.99764
 This molecule is an asymmetric top.
 Rotational symmetry number  1.
 Warning -- assumption of classical behavior for rotation
           may cause significant error
 Rotational temperatures (Kelvin)      0.11936     0.10103     0.08000
 Rotational constants (GHZ):           2.48705     2.10507     1.66693
 Zero-point vibrational energy     428817.7 (Joules/Mol)
                                  102.48988 (Kcal/Mol)
 Warning -- explicit consideration of   7 degrees of freedom as
           vibrations may cause significant error
 Vibrational temperatures:    222.49   398.78   426.44   540.28   571.14
          (Kelvin)            705.60   807.04   965.28  1024.81  1078.51
                             1113.71  1146.97  1172.10  1280.80  1314.93
                             1329.50  1425.71  1465.68  1477.81  1489.36
                             1512.21  1542.55  1585.03  1596.31  1629.17
                             1690.42  1716.14  1733.58  1827.62  1849.82
                             1887.77  1912.02  1932.04  1949.87  1981.10
                             1992.79  2030.15  2074.00  2126.65  2142.99
                             2151.07  4264.29  4301.07  4384.80  4401.86
                             4421.06  4425.85  4482.30  4501.76  4564.48
                             4582.00

 Zero-point correction=                           0.163328 (Hartree/Particle)
 Thermal correction to Energy=                    0.169881
 Thermal correction to Enthalpy=                  0.170825
 Thermal correction to Gibbs Free Energy=         0.132702
 Sum of electronic and zero-point Energies=           -423.017609
 Sum of electronic and thermal Energies=              -423.011056
 Sum of electronic and thermal Enthalpies=            -423.010112
 Sum of electronic and thermal Free Energies=         -423.048235

                     E (Thermal)             CV                S
                      KCal/Mol        Cal/Mol-Kelvin    Cal/Mol-Kelvin
 Total                  106.602             27.512             80.237
 Electronic               0.000              0.000              0.000
 Translational            0.889              2.981             40.409
 Rotational               0.889              2.981             28.001
 Vibrational            104.824             21.551             11.827
 Vibration     1          0.620              1.898              2.614
 Vibration     2          0.678              1.716              1.551
 Vibration     3          0.690              1.680              1.437
 Vibration     4          0.746              1.522              1.057
 Vibration     5          0.763              1.477              0.974
 Vibration     6          0.846              1.271              0.683
 Vibration     7          0.917              1.116              0.522

 Optimization completed.
    -- Stationary point found.
 Normal termination of Gaussian 09 at Mon Jan 27 12:09:05 2020.
