 Gaussian 09, Revision D.01,
 Gaussian 09:  ES64L-G09RevD.01 24-Apr-2013

 -----------------------------
 # b3lyp 6-31G(2df,p) opt Freq
 -----------------------------

 -----
 titel
 -----
 Symbolic Z-matrix:
 Charge =  0 Multiplicity = 1

 SCF Done:  E(RB3LYP) =  -423.168829109     A.U. after   14 cycles
 Optimization completed.
    -- Stationary point found.
 Normal termination of Gaussian 09 at Tue Jan 28 03:16:17 2020.

 ----------------------------------------------------------------------
 #N Geom=AllCheck Guess=TCheck SCRF=Check GenChk RB3LYP/6-31G(2df,p) Fr
 eq
 ----------------------------------------------------------------------

 Structure from the checkpoint file:  "/scratch/puck/g09_1fb67649-3aa9-48dd-8b44-40e2901d2fc7/Gau-46352.chk"
 -----
 titel
 -----
 Charge =  0 Multiplicity = 1

                         Standard orientation:
 ---------------------------------------------------------------------
 Center     Atomic      Atomic             Coordinates (Angstroms)
 Number     Number       Type             X           Y           Z
 ---------------------------------------------------------------------
      1          6           0       -1.918868    1.390499    0.758890
      2          6           0       -1.084966    0.672995   -0.281694
      3          8           0       -1.767538   -0.465270   -0.895590
      4          6           0       -0.656232   -1.309517   -0.636970
      5          6           0       -0.407832   -1.478273    0.808787
      6          6           0        0.102002   -0.209817    0.130654
      7          6           0        1.552825    0.082895    0.063594
      8          6           0        1.957222    1.483696   -0.362162
      9          8           0        2.380888   -0.767854    0.322070
     10          1           0       -1.372418    2.257063    1.146597
     11          1           0       -2.850252    1.749719    0.310424
     12          1           0       -2.170905    0.734982    1.596135
     13          1           0       -0.794683    1.366061   -1.081393
     14          1           0       -0.306886   -1.963527   -1.427681
     15          1           0       -1.238659   -1.426278    1.505158
     16          1           0        0.405619   -2.145054    1.073612
     17          1           0        3.039670    1.586192   -0.281217
     18          1           0        1.653142    1.670773   -1.398347
     19          1           0        1.463667    2.240180    0.258278
 ---------------------------------------------------------------------

 SCF Done:  E(RB3LYP) =  -423.168829109     A.U. after    1 cycles

 The electronic state is 1-A.
 Alpha  occ. eigenvalues --  -19.14907 -19.12257 -10.27134 -10.25681 -10.25264
 Alpha  occ. eigenvalues --  -10.20806 -10.19906 -10.19162 -10.18766  -1.06473
 Alpha  occ. eigenvalues --   -1.03373  -0.84616  -0.77207  -0.74721  -0.66627
 Alpha  occ. eigenvalues --   -0.61172  -0.59342  -0.54640  -0.50255  -0.48421
 Alpha  occ. eigenvalues --   -0.45247  -0.44505  -0.43620  -0.42625  -0.41719
 Alpha  occ. eigenvalues --   -0.40204  -0.38876  -0.37489  -0.36519  -0.35298
 Alpha  occ. eigenvalues --   -0.33479  -0.27658  -0.25261  -0.24258
 Alpha virt. eigenvalues --   -0.01880   0.06905   0.08288   0.10376   0.11980
 Alpha virt. eigenvalues --    0.12464   0.13977   0.14165   0.15709   0.15911
 Alpha virt. eigenvalues --    0.17874   0.18437   0.19526   0.20732   0.21298

 Mulliken charges:
               1
     1  C   -0.409981
     2  C    0.076858
     3  O   -0.298043
     4  C    0.082164
     5  C   -0.349522
     6  C    0.141914
     7  C    0.292912
     8  C   -0.498186
     9  O   -0.324036
    10  H    0.121992
    11  H    0.133996
    12  H    0.126367
    13  H    0.085251
    14  H    0.122104
    15  H    0.121097
    16  H    0.150222
    17  H    0.144414
    18  H    0.144373
    19  H    0.136104
 Sum of Mulliken charges =   0.00000

 Dipole moment (field-independent basis, Debye):
    X=             -0.9617    Y=              1.9108    Z=              0.0158  Tot=              2.1392
 Quadrupole moment (field-independent basis, Debye-Ang):
   XX=            -62.0101   YY=            -50.0240   ZZ=            -52.4451
   XY=              2.5421   XZ=             -4.1543   YZ=              0.2030

  Exact polarizability:  84.781  -0.367  81.638  -0.521  -2.492  63.398
 Approx polarizability: 123.888  -2.674 119.401   7.032  -3.697  99.374

                      1                      2                      3
                      A                      A                      A
 Frequencies --     58.9359               126.6413               140.7163
 Red. masses --      3.6927                 2.6242                 1.1904
 Frc consts  --      0.0076                 0.0248                 0.0139
 IR Inten    --      3.3298                 1.9597                 0.1304

                      4                      5                      6
                      A                      A                      A
 Frequencies --    191.4598               219.0018               229.3909
 Red. masses --      2.3333                 2.5471                 1.3152
 Frc consts  --      0.0504                 0.0720                 0.0408
 IR Inten    --      4.5006                 1.1822                 2.3109

                      7                      8                      9
                      A                      A                      A
 Frequencies --    300.9874               379.3944               444.8395
 Red. masses --      3.3852                 3.0295                 2.8751
 Frc consts  --      0.1807                 0.2569                 0.3352
 IR Inten    --      4.5276                 3.8871                 2.1178

                     10                     11                     12
                      A                      A                      A
 Frequencies --    492.7204               535.0319               594.0931
 Red. masses --      3.3939                 2.9269                 2.6555
 Frc consts  --      0.4855                 0.4936                 0.5522
 IR Inten    --      7.1703                 1.6350                 4.1747

                     13                     14                     15
                      A                      A                      A
 Frequencies --    634.3104               703.0393               802.7313
 Red. masses --      3.0890                 3.5187                 4.4107
 Frc consts  --      0.7323                 1.0247                 1.6745
 IR Inten    --      5.4541                 2.8756                40.4845

                     16                     17                     18
                      A                      A                      A
 Frequencies --    856.3028               876.0829               911.8662
 Red. masses --      2.3865                 2.0428                 1.7364
 Frc consts  --      1.0310                 0.9238                 0.8507
 IR Inten    --     20.0390                16.0129                 8.0532

                     19                     20                     21
                      A                      A                      A
 Frequencies --    953.6378               979.3900              1019.4227
 Red. masses --      1.9406                 1.6458                 1.6563
 Frc consts  --      1.0398                 0.9301                 1.0141
 IR Inten    --     31.4247                14.5688                11.2793

                     22                     23                     24
                      A                      A                      A
 Frequencies --   1044.1659              1056.1849              1086.6512
 Red. masses --      1.6824                 1.7128                 1.7375
 Frc consts  --      1.0807                 1.1258                 1.2088
 IR Inten    --     14.5376                35.8651                16.9122

                     25                     26                     27
                      A                      A                      A
 Frequencies --   1093.0388              1107.2873              1130.4520
 Red. masses --      1.8112                 2.5127                 2.3832
 Frc consts  --      1.2749                 1.8152                 1.7944
 IR Inten    --     21.0719                26.5960                 9.9885

                     28                     29                     30
                      A                      A                      A
 Frequencies --   1164.8906              1233.9018              1281.0614
 Red. masses --      2.5309                 1.6799                 1.8426
 Frc consts  --      2.0235                 1.5069                 1.7816
 IR Inten    --     41.9310                 1.4486                34.3963

                     31                     32                     33
                      A                      A                      A
 Frequencies --   1310.0580              1372.7345              1383.0607
 Red. masses --      2.1005                 1.3895                 1.4946
 Frc consts  --      2.1240                 1.5428                 1.6845
 IR Inten    --     34.9768                13.1291                36.9076

                     34                     35                     36
                      A                      A                      A
 Frequencies --   1396.1043              1414.9320              1462.5636
 Red. masses --      1.4558                 1.5940                 1.0954
 Frc consts  --      1.6718                 1.8802                 1.3805
 IR Inten    --     38.7304                48.3952                23.4203

                     37                     38                     39
                      A                      A                      A
 Frequencies --   1464.3092              1476.1678              1483.6399
 Red. masses --      1.3735                 1.0499                 1.0648
 Frc consts  --      1.7352                 1.3479                 1.3809
 IR Inten    --     16.0232                 9.2795                 5.8998

                     40                     41                     42
                      A                      A                      A
 Frequencies --   1493.1863              1776.3804              3023.1060
 Red. masses --      1.0538                10.8275                 1.0810
 Frc consts  --      1.3843                20.1304                 5.8208
 IR Inten    --      2.2737               166.6919                30.5322

                     43                     44                     45
                      A                      A                      A
 Frequencies --   3035.6555              3039.6599              3095.2767
 Red. masses --      1.0396                 1.0371                 1.0984
 Frc consts  --      5.6444                 5.6457                 6.2000
 IR Inten    --      6.7811                14.0366                 8.1343

                     46                     47                     48
                      A                      A                      A
 Frequencies --   3108.5130              3123.6182              3130.2588
 Red. masses --      1.1003                 1.0963                 1.0589
 Frc consts  --      6.2641                 6.3025                 6.1134
 IR Inten    --     15.9406                13.4348                16.8509

                     49                     50                     51
                      A                      A                      A
 Frequencies --   3154.0358              3186.4212              3230.9386
 Red. masses --      1.1012                 1.0941                 1.1161
 Frc consts  --      6.4540                 6.5448                 6.8645
 IR Inten    --      9.6200                13.2758                 1.9220

 - Thermochemistry -
 -------------------
 Temperature   298.150 Kelvin.  Pressure   1.00000 Atm.
 Atom     1 has atomic number  6 and mass  12.00000

 Molecular mass:   126.06808 amu.
 Principal axes and moments of inertia in atomic units:
                           1         2         3
     Eigenvalues --   700.105591293.699811641.29707
           X            0.99941   0.00834  -0.03343
           Y           -0.00868   0.99991  -0.01010
           Z            0.03334   0.01038   0.99939
 This molecule is an asymmetric top.
 Rotational symmetry number  1.
 Warning -- assumption of classical behavior for rotation
           may cause significant error
 Rotational temperatures (Kelvin)      0.12372     0.06695     0.05277
 Rotational constants (GHZ):           2.57781     1.39502     1.09958
 Zero-point vibrational energy     411564.7 (Joules/Mol)
                                   98.36633 (Kcal/Mol)
 Warning -- explicit consideration of  12 degrees of freedom as
           vibrations may cause significant error
 Vibrational temperatures:     84.80   182.21   202.46   275.47   315.09
          (Kelvin)            330.04   433.05   545.86   640.02   708.91
                              769.79   854.77   912.63  1011.52  1154.95
                             1232.03  1260.49  1311.97  1372.07  1409.12
                             1466.72  1502.32  1519.61  1563.45  1572.64
                             1593.14  1626.47  1676.02  1775.31  1843.16
                             1884.88  1975.06  1989.91  2008.68  2035.77
                             2104.30  2106.81  2123.87  2134.62  2148.36
                             2555.81  4349.57  4367.63  4373.39  4453.41
                             4472.45  4494.18  4503.74  4537.95  4584.54
                             4648.59

 Zero-point correction=                           0.156757 (Hartree/Particle)
 Thermal correction to Energy=                    0.165880
 Thermal correction to Enthalpy=                  0.166824
 Thermal correction to Gibbs Free Energy=         0.122705
 Sum of electronic and zero-point Energies=           -423.012072
 Sum of electronic and thermal Energies=              -423.002949
 Sum of electronic and thermal Enthalpies=            -423.002005
 Sum of electronic and thermal Free Energies=         -423.046125

                     E (Thermal)             CV                S
                      KCal/Mol        Cal/Mol-Kelvin    Cal/Mol-Kelvin
 Total                  104.091             33.816             92.858
 Electronic               0.000              0.000              0.000
 Translational            0.889              2.981             40.409
 Rotational               0.889              2.981             28.788
 Vibrational            102.314             27.855             23.662
 Vibration     1          0.596              1.974              4.493
 Vibration     2          0.611              1.926              2.996
 Vibration     3          0.615              1.913              2.794
 Vibration     4          0.634              1.852              2.214
 Vibration     5          0.647              1.812              1.967
 Vibration     6          0.652              1.796              1.884
 Vibration     7          0.693              1.672              1.411
 Vibration     8          0.749              1.514              1.042
 Vibration     9          0.804              1.372              0.812
 Vibration    10          0.848              1.266              0.677
 Vibration    11          0.890              1.173              0.576
 Vibration    12          0.952              1.044              0.460

 Normal termination of Gaussian 09 at Tue Jan 28 05:12:57 2020.
