 Gaussian 09, Revision D.01,
 Gaussian 09:  ES64L-G09RevD.01 24-Apr-2013

 -----------------------------
 # b3lyp 6-31G(2df,p) opt Freq
 -----------------------------

 -----
 titel
 -----
 Symbolic Z-matrix:
 Charge =  0 Multiplicity = 1

 SCF Done:  E(RB3LYP) =  -423.204212782     A.U. after   14 cycles
 Optimization completed.
    -- Stationary point found.
 Normal termination of Gaussian 09 at Mon Jan 27 22:02:57 2020.

 ----------------------------------------------------------------------
 #N Geom=AllCheck Guess=TCheck SCRF=Check GenChk RB3LYP/6-31G(2df,p) Fr
 eq
 ----------------------------------------------------------------------

 Structure from the checkpoint file:  "/scratch/puck/g09_d618b643-cdc4-4dae-8ce8-e4f90330fd59/Gau-180969.chk"
 -----
 titel
 -----
 Charge =  0 Multiplicity = 1

                         Standard orientation:
 ---------------------------------------------------------------------
 Center     Atomic      Atomic             Coordinates (Angstroms)
 Number     Number       Type             X           Y           Z
 ---------------------------------------------------------------------
      1          6           0       -2.526307   -1.541751   -0.031678
      2          6           0       -1.469630   -0.473619   -0.013405
      3          6           0       -1.747966    0.827947    0.072147
      4          6           0       -0.692013    1.897809    0.046964
      5          8           0        0.586947    1.414143   -0.327715
      6          6           0        0.915942    0.195318    0.308140
      7          6           0       -0.032331   -0.933108   -0.103159
      8          6           0        2.373384   -0.086701   -0.018689
      9          8           0        2.871026   -1.181462    0.016151
     10          1           0       -2.453919   -2.150458   -0.942276
     11          1           0       -2.406056   -2.232440    0.812714
     12          1           0       -3.532489   -1.116598    0.013563
     13          1           0       -2.775622    1.171972    0.162890
     14          1           0       -0.945612    2.672147   -0.686683
     15          1           0       -0.634343    2.399872    1.030759
     16          1           0        0.863515    0.320473    1.407881
     17          1           0        0.202125   -1.264461   -1.123688
     18          1           0        0.140767   -1.802451    0.541135
     19          1           0        2.951375    0.825131   -0.285707
 ---------------------------------------------------------------------

 SCF Done:  E(RB3LYP) =  -423.204212782     A.U. after    1 cycles

 The electronic state is 1-A.
 Alpha  occ. eigenvalues --  -19.15081 -19.14526 -10.27224 -10.24439 -10.23839
 Alpha  occ. eigenvalues --  -10.19634 -10.19176 -10.18540 -10.18186  -1.05643
 Alpha  occ. eigenvalues --   -1.04358  -0.82061  -0.78183  -0.71540  -0.67079
 Alpha  occ. eigenvalues --   -0.63905  -0.57266  -0.52918  -0.50168  -0.48602
 Alpha  occ. eigenvalues --   -0.47086  -0.44604  -0.43819  -0.42746  -0.42220
 Alpha  occ. eigenvalues --   -0.39260  -0.38823  -0.38247  -0.36904  -0.35207
 Alpha  occ. eigenvalues --   -0.32263  -0.26517  -0.25478  -0.24305
 Alpha virt. eigenvalues --   -0.02787   0.01976   0.09297   0.10576   0.12062
 Alpha virt. eigenvalues --    0.12641   0.13628   0.14736   0.15613   0.16541
 Alpha virt. eigenvalues --    0.17338   0.17608   0.18599   0.22559   0.23516

 Mulliken charges:
               1
     1  C   -0.477779
     2  C    0.298403
     3  C   -0.159326
     4  C   -0.121957
     5  O   -0.267343
     6  C    0.019716
     7  C   -0.294693
     8  C    0.139454
     9  O   -0.248088
    10  H    0.128010
    11  H    0.125723
    12  H    0.121685
    13  H    0.085884
    14  H    0.121031
    15  H    0.098568
    16  H    0.093796
    17  H    0.121047
    18  H    0.120540
    19  H    0.095328
 Sum of Mulliken charges =   0.00000

 Dipole moment (field-independent basis, Debye):
    X=             -2.3936    Y=              1.0244    Z=              0.6664  Tot=              2.6875
 Quadrupole moment (field-independent basis, Debye-Ang):
   XX=            -57.2706   YY=            -53.6972   ZZ=            -52.8198
   XY=              3.8657   XZ=              0.6246   YZ=              0.9861

  Exact polarizability:  87.566  -2.289  93.090  -1.067   1.164  55.292
 Approx polarizability: 110.235 -11.329 146.059  -2.628   1.262  88.038

                      1                      2                      3
                      A                      A                      A
 Frequencies --     63.6037               112.3169               163.7508
 Red. masses --      3.4588                 2.2318                 2.7690
 Frc consts  --      0.0082                 0.0166                 0.0437
 IR Inten    --      7.4738                 0.3710                 1.8386

                      4                      5                      6
                      A                      A                      A
 Frequencies --    173.4324               199.3797               265.7429
 Red. masses --      2.8860                 1.4462                 1.8102
 Frc consts  --      0.0511                 0.0339                 0.0753
 IR Inten    --      4.2259                 3.5963                 4.1299

                      7                      8                      9
                      A                      A                      A
 Frequencies --    333.2401               393.9521               437.5274
 Red. masses --      2.8431                 4.5143                 3.3781
 Frc consts  --      0.1860                 0.4128                 0.3810
 IR Inten    --      1.7475                 0.4044                 2.2421

                     10                     11                     12
                      A                      A                      A
 Frequencies --    446.3977               500.7110               609.6033
 Red. masses --      2.4045                 3.4093                 4.8294
 Frc consts  --      0.2823                 0.5036                 1.0574
 IR Inten    --      4.9681                 2.6706                18.5853

                     13                     14                     15
                      A                      A                      A
 Frequencies --    702.4131               797.0987               845.6913
 Red. masses --      4.0520                 1.3063                 2.4511
 Frc consts  --      1.1779                 0.4890                 1.0328
 IR Inten    --     11.0591                 6.4547                 3.0681

                     16                     17                     18
                      A                      A                      A
 Frequencies --    868.9394               898.4405               949.9914
 Red. masses --      3.0455                 1.7728                 1.9912
 Frc consts  --      1.3548                 0.8431                 1.0588
 IR Inten    --     10.6876                10.1251                 1.7561

                     19                     20                     21
                      A                      A                      A
 Frequencies --   1025.0238              1031.2932              1044.5304
 Red. masses --      1.7016                 1.9821                 1.7951
 Frc consts  --      1.0534                 1.2421                 1.1540
 IR Inten    --      2.9821                22.2750                 0.7417

                     22                     23                     24
                      A                      A                      A
 Frequencies --   1059.3145              1093.0806              1118.6692
 Red. masses --      1.8829                 2.1182                 2.4160
 Frc consts  --      1.2449                 1.4912                 1.7813
 IR Inten    --      4.6390                 4.4477                 4.6285

                     25                     26                     27
                      A                      A                      A
 Frequencies --   1160.7504              1183.8316              1223.9804
 Red. masses --      4.9919                 2.2710                 1.3168
 Frc consts  --      3.9628                 1.8752                 1.1623
 IR Inten    --     62.1239                44.1929                 9.4809

                     28                     29                     30
                      A                      A                      A
 Frequencies --   1258.9510              1297.0967              1341.5375
 Red. masses --      1.1143                 1.4535                 1.6331
 Frc consts  --      1.0406                 1.4408                 1.7317
 IR Inten    --      7.8221                 5.2522                 1.0938

                     31                     32                     33
                      A                      A                      A
 Frequencies --   1348.4229              1381.8241              1395.4614
 Red. masses --      1.2069                 1.6773                 1.5370
 Frc consts  --      1.2929                 1.8870                 1.7635
 IR Inten    --     14.1760                 1.4063                 3.8216

                     34                     35                     36
                      A                      A                      A
 Frequencies --   1407.7085              1415.4646              1469.7687
 Red. masses --      1.2839                 1.3102                 1.0878
 Frc consts  --      1.4990                 1.5467                 1.3845
 IR Inten    --     14.7428                 8.3178                 2.1404

                     37                     38                     39
                      A                      A                      A
 Frequencies --   1478.5056              1490.6413              1492.2892
 Red. masses --      1.0466                 1.0573                 1.0957
 Frc consts  --      1.3480                 1.3842                 1.4377
 IR Inten    --      6.1261                 6.0100                 1.6349

                     40                     41                     42
                      A                      A                      A
 Frequencies --   1746.5496              1838.4886              2900.8336
 Red. masses --      6.9461                10.8207                 1.0841
 Frc consts  --     12.4841                21.5490                 5.3749
 IR Inten    --      6.4863               134.8881                89.9791

                     43                     44                     45
                      A                      A                      A
 Frequencies --   2913.9059              2932.0764              3015.4152
 Red. masses --      1.0792                 1.0730                 1.0394
 Frc consts  --      5.3989                 5.4351                 5.5683
 IR Inten    --     40.1118                74.5980                21.7133

                     46                     47                     48
                      A                      A                      A
 Frequencies --   3024.2350              3050.6912              3062.6290
 Red. masses --      1.0633                 1.0868                 1.0986
 Frc consts  --      5.7297                 5.9593                 6.0712
 IR Inten    --     26.3604                31.8728                13.2570

                     49                     50                     51
                      A                      A                      A
 Frequencies --   3068.7620              3111.5797              3155.9975
 Red. masses --      1.0956                 1.0994                 1.0899
 Frc consts  --      6.0790                 6.2717                 6.3960
 IR Inten    --     19.5900                20.1176                18.7619

 - Thermochemistry -
 -------------------
 Temperature   298.150 Kelvin.  Pressure   1.00000 Atm.
 Atom     1 has atomic number  6 and mass  12.00000

 Molecular mass:   126.06808 amu.
 Principal axes and moments of inertia in atomic units:
                           1         2         3
     Eigenvalues --   672.894771474.021642076.53578
           X            0.99910   0.04231   0.00026
           Y           -0.04231   0.99906   0.00985
           Z            0.00015  -0.00985   0.99995
 This molecule is an asymmetric top.
 Rotational symmetry number  1.
 Warning -- assumption of classical behavior for rotation
           may cause significant error
 Rotational temperatures (Kelvin)      0.12872     0.05876     0.04171
 Rotational constants (GHZ):           2.68206     1.22437     0.86911
 Zero-point vibrational energy     414515.3 (Joules/Mol)
                                   99.07153 (Kcal/Mol)
 Warning -- explicit consideration of  12 degrees of freedom as
           vibrations may cause significant error
 Vibrational temperatures:     91.51   161.60   235.60   249.53   286.86
          (Kelvin)            382.34   479.46   566.81   629.50   642.27
                              720.41   877.08  1010.61  1146.85  1216.76
                             1250.21  1292.65  1366.82  1474.78  1483.80
                             1502.84  1524.12  1572.70  1609.51  1670.06
                             1703.27  1761.03  1811.35  1866.23  1930.17
                             1940.08  1988.13  2007.76  2025.38  2036.54
                             2114.67  2127.24  2144.70  2147.07  2512.89
                             2645.17  4173.65  4192.46  4218.60  4338.50
                             4351.19  4389.26  4406.43  4415.26  4476.86
                             4540.77

 Zero-point correction=                           0.157881 (Hartree/Particle)
 Thermal correction to Energy=                    0.166838
 Thermal correction to Enthalpy=                  0.167782
 Thermal correction to Gibbs Free Energy=         0.123774
 Sum of electronic and zero-point Energies=           -423.046332
 Sum of electronic and thermal Energies=              -423.037375
 Sum of electronic and thermal Enthalpies=            -423.036431
 Sum of electronic and thermal Free Energies=         -423.080439

                     E (Thermal)             CV                S
                      KCal/Mol        Cal/Mol-Kelvin    Cal/Mol-Kelvin
 Total                  104.692             32.761             92.622
 Electronic               0.000              0.000              0.000
 Translational            0.889              2.981             40.409
 Rotational               0.889              2.981             29.112
 Vibrational            102.915             26.799             23.102
 Vibration     1          0.597              1.972              4.342
 Vibration     2          0.607              1.939              3.228
 Vibration     3          0.623              1.887              2.506
 Vibration     4          0.627              1.875              2.398
 Vibration     5          0.638              1.841              2.139
 Vibration     6          0.672              1.736              1.624
 Vibration     7          0.715              1.609              1.244
 Vibration     8          0.761              1.483              0.985
 Vibration     9          0.798              1.388              0.834
 Vibration    10          0.806              1.369              0.807
 Vibration    11          0.856              1.248              0.656
 Vibration    12          0.969              1.011              0.433

 Optimization completed.
    -- Stationary point found.
 Normal termination of Gaussian 09 at Mon Jan 27 22:44:45 2020.
