 Gaussian 09, Revision D.01,
 Gaussian 09:  ES64L-G09RevD.01 24-Apr-2013

 -----------------------------
 # b3lyp 6-31G(2df,p) opt Freq
 -----------------------------

 -----
 titel
 -----
 Symbolic Z-matrix:
 Charge =  0 Multiplicity = 1

 SCF Done:  E(RB3LYP) =  -423.113300167     A.U. after   13 cycles
 Optimization completed.
    -- Stationary point found.
 Normal termination of Gaussian 09 at Tue Jan 28 12:07:30 2020.

 ----------------------------------------------------------------------
 #N Geom=AllCheck Guess=TCheck SCRF=Check GenChk RB3LYP/6-31G(2df,p) Fr
 eq
 ----------------------------------------------------------------------

 Structure from the checkpoint file:  "/scratch/puck/g09_f6bfcb6b-436e-46e7-be10-d2ad379f4a29/Gau-138086.chk"
 -----
 titel
 -----
 Charge =  0 Multiplicity = 1

                         Standard orientation:
 ---------------------------------------------------------------------
 Center     Atomic      Atomic             Coordinates (Angstroms)
 Number     Number       Type             X           Y           Z
 ---------------------------------------------------------------------
      1          6           0        3.159629   -0.492885   -0.143065
      2          6           0        1.853047    0.068181    0.390139
      3          8           0        0.808999   -0.358974   -0.479187
      4          6           0       -0.488412    0.046364   -0.113329
      5          6           0       -1.539888   -0.695584   -0.977633
      6          8           0       -2.099058   -1.356713    0.170573
      7          6           0       -1.139645   -0.758327    1.057793
      8          6           0       -0.637636    1.496672   -0.037414
      9          6           0       -0.771542    2.689876    0.025217
     10          1           0        3.128893   -1.585724   -0.170970
     11          1           0        3.346398   -0.128882   -1.157185
     12          1           0        3.992283   -0.184367    0.496007
     13          1           0        1.665142   -0.293949    1.413177
     14          1           0        1.882905    1.165502    0.429589
     15          1           0       -2.269442   -0.062222   -1.491508
     16          1           0       -1.071651   -1.391888   -1.682042
     17          1           0       -1.615352   -0.164807    1.845344
     18          1           0       -0.460782   -1.498139    1.499321
     19          1           0       -0.891240    3.744192    0.076925
 ---------------------------------------------------------------------

 SCF Done:  E(RB3LYP) =  -423.113300167     A.U. after    3 cycles

 The electronic state is 1-A.
 Alpha  occ. eigenvalues --  -19.15250 -19.13688 -10.26788 -10.23499 -10.23412
 Alpha  occ. eigenvalues --  -10.23276 -10.19015 -10.18633 -10.17975  -1.05934
 Alpha  occ. eigenvalues --   -1.03055  -0.79399  -0.75303  -0.71191  -0.69994
 Alpha  occ. eigenvalues --   -0.61891  -0.59739  -0.54113  -0.51837  -0.50818
 Alpha  occ. eigenvalues --   -0.47827  -0.45938  -0.44863  -0.41600  -0.40458
 Alpha  occ. eigenvalues --   -0.38867  -0.37757  -0.35629  -0.33337  -0.32322
 Alpha  occ. eigenvalues --   -0.28291  -0.27472  -0.26320  -0.25326
 Alpha virt. eigenvalues --    0.02627   0.03757   0.08261   0.09735   0.11214
 Alpha virt. eigenvalues --    0.12235   0.13542   0.14638   0.15297   0.15698
 Alpha virt. eigenvalues --    0.17011   0.17398   0.18743   0.19016   0.20784

 Mulliken charges:
               1
     1  C   -0.384034
     2  C   -0.060842
     3  O   -0.279565
     4  C    0.168010
     5  C   -0.109792
     6  O   -0.268026
     7  C   -0.112324
     8  C    0.317420
     9  C   -0.495670
    10  H    0.127444
    11  H    0.130404
    12  H    0.117589
    13  H    0.090686
    14  H    0.108013
    15  H    0.113872
    16  H    0.116328
    17  H    0.111337
    18  H    0.105853
    19  H    0.203298
 Sum of Mulliken charges =   0.00000

 Dipole moment (field-independent basis, Debye):
    X=              1.3836    Y=              1.4225    Z=              0.6230  Tot=              2.0799
 Quadrupole moment (field-independent basis, Debye-Ang):
   XX=            -54.9390   YY=            -50.7774   ZZ=            -51.8675
   XY=             -3.5717   XZ=              2.1813   YZ=              0.2310

  Exact polarizability:  79.502  -3.856  88.825   2.038   0.932  65.789
 Approx polarizability:  99.801  -4.322 138.252   1.924   2.874  96.952

                      1                      2                      3
                      A                      A                      A
 Frequencies --     55.1035                72.3261               108.2058
 Red. masses --      3.8072                 2.5057                 2.3490
 Frc consts  --      0.0068                 0.0077                 0.0162
 IR Inten    --      2.7903                 1.4472                 2.2922

                      4                      5                      6
                      A                      A                      A
 Frequencies --    145.6591               182.0575               208.0543
 Red. masses --      3.4241                 3.0485                 2.5839
 Frc consts  --      0.0428                 0.0595                 0.0659
 IR Inten    --      0.2202                 0.3493                 3.0093

                      7                      8                      9
                      A                      A                      A
 Frequencies --    251.1948               349.6675               396.0864
 Red. masses --      1.2269                 3.1673                 3.2129
 Frc consts  --      0.0456                 0.2282                 0.2970
 IR Inten    --      0.8247                 2.7453                 0.3557

                     10                     11                     12
                      A                      A                      A
 Frequencies --    416.2599               515.0857               553.4670
 Red. masses --      3.3211                 6.2726                 5.0345
 Frc consts  --      0.3391                 0.9805                 0.9086
 IR Inten    --      2.4547                 6.6493                 7.6883

                     13                     14                     15
                      A                      A                      A
 Frequencies --    632.5929               667.5963               681.0128
 Red. masses --      1.2272                 1.3133                 4.0238
 Frc consts  --      0.2894                 0.3449                 1.0995
 IR Inten    --     41.4905                32.9128                 3.0791

                     16                     17                     18
                      A                      A                      A
 Frequencies --    823.4125               837.8699               862.8167
 Red. masses --      1.0894                 3.1388                 2.2611
 Frc consts  --      0.4352                 1.2983                 0.9918
 IR Inten    --      0.3668                 9.7726                 7.1918

                     19                     20                     21
                      A                      A                      A
 Frequencies --    944.5133               959.4097               995.5512
 Red. masses --      2.1216                 1.5315                 4.0067
 Frc consts  --      1.1151                 0.8306                 2.3397
 IR Inten    --     16.9276                 5.2155                 7.8116

                     22                     23                     24
                      A                      A                      A
 Frequencies --   1048.1550              1054.2331              1086.1462
 Red. masses --     10.2282                 5.6209                 3.9298
 Frc consts  --      6.6206                 3.6807                 2.7315
 IR Inten    --     70.1119                27.5376                51.1841

                     25                     26                     27
                      A                      A                      A
 Frequencies --   1140.2871              1155.3105              1162.9807
 Red. masses --      2.5715                 1.3632                 1.1180
 Frc consts  --      1.9700                 1.0720                 0.8909
 IR Inten    --     12.4637                12.2072                 5.2290

                     28                     29                     30
                      A                      A                      A
 Frequencies --   1186.5268              1190.2684              1251.3815
 Red. masses --      2.3882                 2.3156                 2.6032
 Frc consts  --      1.9810                 1.9329                 2.4018
 IR Inten    --     72.5724                88.2103                60.4462

                     31                     32                     33
                      A                      A                      A
 Frequencies --   1298.3765              1305.8169              1371.9689
 Red. masses --      1.1407                 1.2384                 1.4870
 Frc consts  --      1.1330                 1.2441                 1.6491
 IR Inten    --      1.9003                 1.6023                 2.1431

                     34                     35                     36
                      A                      A                      A
 Frequencies --   1400.7251              1427.3435              1484.0271
 Red. masses --      1.2281                 1.3997                 1.0399
 Frc consts  --      1.4196                 1.6802                 1.3494
 IR Inten    --      0.3496                15.6269                 4.2936

                     37                     38                     39
                      A                      A                      A
 Frequencies --   1495.1616              1500.4264              1521.0584
 Red. masses --      1.0743                 1.0470                 1.1101
 Frc consts  --      1.4150                 1.3887                 1.5133
 IR Inten    --      0.0453                 2.0990                 1.4998

                     40                     41                     42
                      A                      A                      A
 Frequencies --   1527.4328              2229.5384              2980.7596
 Red. masses --      1.0859                 5.9200                 1.0631
 Frc consts  --      1.4926                17.3380                 5.5651
 IR Inten    --      2.3980                 1.8318                31.5010

                     43                     44                     45
                      A                      A                      A
 Frequencies --   3019.2890              3031.9656              3036.4332
 Red. masses --      1.0545                 1.0968                 1.0572
 Frc consts  --      5.6635                 5.9407                 5.7429
 IR Inten    --     75.2022                28.7292                16.8636

                     46                     47                     48
                      A                      A                      A
 Frequencies --   3046.0846              3080.3928              3093.8669
 Red. masses --      1.0347                 1.1100                 1.1123
 Frc consts  --      5.6565                 6.2056                 6.2728
 IR Inten    --     17.9834                30.6983                30.3051

                     49                     50                     51
                      A                      A                      A
 Frequencies --   3120.6963              3124.0322              3498.5052
 Red. masses --      1.1015                 1.1029                 1.1621
 Frc consts  --      6.3202                 6.3417                 8.3806
 IR Inten    --     22.1958                24.4102                66.5360

 - Thermochemistry -
 -------------------
 Temperature   298.150 Kelvin.  Pressure   1.00000 Atm.
 Atom     1 has atomic number  6 and mass  12.00000

 Molecular mass:   126.06808 amu.
 Principal axes and moments of inertia in atomic units:
                           1         2         3
     Eigenvalues --   817.952331428.544251918.83768
           X            0.99952  -0.03014   0.00719
           Y            0.03011   0.99954   0.00393
           Z           -0.00731  -0.00371   0.99997
 This molecule is an asymmetric top.
 Rotational symmetry number  1.
 Warning -- assumption of classical behavior for rotation
           may cause significant error
 Rotational temperatures (Kelvin)      0.10589     0.06063     0.04514
 Rotational constants (GHZ):           2.20641     1.26334     0.94054
 Zero-point vibrational energy     409883.3 (Joules/Mol)
                                   97.96445 (Kcal/Mol)
 Warning -- explicit consideration of  12 degrees of freedom as
           vibrations may cause significant error
 Vibrational temperatures:     79.28   104.06   155.68   209.57   261.94
          (Kelvin)            299.34   361.41   503.09   569.88   598.90
                              741.09   796.31   910.16   960.52   979.82
                             1184.71  1205.51  1241.40  1358.94  1380.37
                             1432.37  1508.06  1516.80  1562.72  1640.62
                             1662.23  1673.27  1707.15  1712.53  1800.46
                             1868.07  1878.78  1973.95  2015.33  2053.63
                             2135.18  2151.20  2158.78  2188.46  2197.63
                             3207.80  4288.64  4344.08  4362.32  4368.74
                             4382.63  4431.99  4451.38  4489.98  4494.78
                             5033.56

 Zero-point correction=                           0.156116 (Hartree/Particle)
 Thermal correction to Energy=                    0.165907
 Thermal correction to Enthalpy=                  0.166851
 Thermal correction to Gibbs Free Energy=         0.120656
 Sum of electronic and zero-point Energies=           -422.957184
 Sum of electronic and thermal Energies=              -422.947393
 Sum of electronic and thermal Enthalpies=            -422.946449
 Sum of electronic and thermal Free Energies=         -422.992644

                     E (Thermal)             CV                S
                      KCal/Mol        Cal/Mol-Kelvin    Cal/Mol-Kelvin
 Total                  104.108             35.012             97.226
 Electronic               0.000              0.000              0.000
 Translational            0.889              2.981             40.409
 Rotational               0.889              2.981             29.196
 Vibrational            102.331             29.050             27.622
 Vibration     1          0.596              1.976              4.625
 Vibration     2          0.598              1.967              4.089
 Vibration     3          0.606              1.943              3.301
 Vibration     4          0.617              1.907              2.728
 Vibration     5          0.630              1.864              2.307
 Vibration     6          0.641              1.828              2.061
 Vibration     7          0.663              1.761              1.722
 Vibration     8          0.727              1.576              1.168
 Vibration     9          0.763              1.479              0.977
 Vibration    10          0.779              1.435              0.905
 Vibration    11          0.870              1.217              0.621
 Vibration    12          0.909              1.132              0.537

 Normal termination of Gaussian 09 at Tue Jan 28 12:49:27 2020.
