 Gaussian 09, Revision D.01,
 Gaussian 09:  ES64L-G09RevD.01 24-Apr-2013

 -----------------------------
 # b3lyp 6-31G(2df,p) opt Freq
 -----------------------------

 -----
 titel
 -----
 Symbolic Z-matrix:
 Charge =  0 Multiplicity = 1

 SCF Done:  E(RB3LYP) =  -423.152036782     A.U. after   14 cycles
 Optimization completed.
    -- Stationary point found.
 Normal termination of Gaussian 09 at Mon Jan 27 23:03:44 2020.

 ----------------------------------------------------------------------
 #N Geom=AllCheck Guess=TCheck SCRF=Check GenChk RB3LYP/6-31G(2df,p) Fr
 eq
 ----------------------------------------------------------------------

 Structure from the checkpoint file:  "/scratch/puck/g09_e6af574e-3cda-4a74-84bc-31114c2fbcb9/Gau-195639.chk"
 -----
 titel
 -----
 Charge =  0 Multiplicity = 1

                         Standard orientation:
 ---------------------------------------------------------------------
 Center     Atomic      Atomic             Coordinates (Angstroms)
 Number     Number       Type             X           Y           Z
 ---------------------------------------------------------------------
      1          8           0       -1.418132    1.798549   -0.032308
      2          6           0       -1.438376    0.437846   -0.362240
      3          6           0       -1.258509   -0.683100    0.715634
      4          6           0       -0.835154   -1.582630   -0.481805
      5          6           0       -0.208280   -0.261738   -1.020874
      6          6           0        0.865317   -0.010755    0.029947
      7          6           0        2.014983    0.889206   -0.117660
      8          8           0        2.171810   -0.535870   -0.166815
      9          6           0        0.104246   -0.315086    1.337866
     10          1           0       -0.570059    2.010763    0.370171
     11          1           0       -2.346543    0.281005   -0.947948
     12          1           0       -2.062788   -0.961843    1.395626
     13          1           0       -0.152560   -2.409915   -0.278092
     14          1           0       -1.681272   -1.924611   -1.081171
     15          1           0        0.071980   -0.114914   -2.063175
     16          1           0        2.184778    1.408659   -1.060474
     17          1           0        2.445254    1.372249    0.759719
     18          1           0        0.568671   -1.146323    1.874880
     19          1           0        0.047753    0.541035    2.018231
 ---------------------------------------------------------------------

 SCF Done:  E(RB3LYP) =  -423.152036782     A.U. after    1 cycles

 The electronic state is 1-A.
 Alpha  occ. eigenvalues --  -19.15147 -19.14278 -10.24533 -10.23732 -10.23575
 Alpha  occ. eigenvalues --  -10.19416 -10.19359 -10.19045 -10.18982  -1.07334
 Alpha  occ. eigenvalues --   -1.02822  -0.88605  -0.72733  -0.68944  -0.66107
 Alpha  occ. eigenvalues --   -0.64879  -0.57218  -0.54814  -0.52529  -0.50819
 Alpha  occ. eigenvalues --   -0.46669  -0.45497  -0.43390  -0.41110  -0.39324
 Alpha  occ. eigenvalues --   -0.39031  -0.36730  -0.35661  -0.33835  -0.33410
 Alpha  occ. eigenvalues --   -0.31267  -0.29242  -0.26619  -0.25676
 Alpha virt. eigenvalues --    0.06349   0.09438   0.10209   0.10934   0.12125
 Alpha virt. eigenvalues --    0.14239   0.14445   0.15020   0.15670   0.16034
 Alpha virt. eigenvalues --    0.16786   0.18597   0.19364   0.20890   0.21924

 Mulliken charges:
               1
     1  O   -0.447081
     2  C    0.169173
     3  C   -0.075317
     4  C   -0.241429
     5  C   -0.153598
     6  C    0.485966
     7  C   -0.299712
     8  O   -0.296302
     9  C   -0.325299
    10  H    0.286996
    11  H    0.091747
    12  H    0.068076
    13  H    0.112208
    14  H    0.103164
    15  H    0.069297
    16  H    0.117824
    17  H    0.113891
    18  H    0.120608
    19  H    0.099791
 Sum of Mulliken charges =   0.00000

 Dipole moment (field-independent basis, Debye):
    X=             -0.1767    Y=              0.2372    Z=              0.4623  Tot=              0.5489
 Quadrupole moment (field-independent basis, Debye-Ang):
   XX=            -57.7709   YY=            -54.0777   ZZ=            -51.2875
   XY=              7.6280   XZ=              1.0490   YZ=              0.6642

  Exact polarizability:  79.735   7.211  73.448   1.079   0.369  69.210
 Approx polarizability: 112.831   4.305 112.855   0.938   1.090 102.507

                      1                      2                      3
                      A                      A                      A
 Frequencies --    108.7035               223.9435               234.7470
 Red. masses --      4.4837                 1.8786                 1.7308
 Frc consts  --      0.0312                 0.0555                 0.0562
 IR Inten    --      2.6552                44.2162                14.5352

                      4                      5                      6
                      A                      A                      A
 Frequencies --    304.9971               330.8764               374.9893
 Red. masses --      2.7516                 2.7981                 3.7751
 Frc consts  --      0.1508                 0.1805                 0.3128
 IR Inten    --     25.5701                 1.0626                 0.7775

                      7                      8                      9
                      A                      A                      A
 Frequencies --    443.7950               485.3850               546.9907
 Red. masses --      1.8521                 3.3881                 3.8178
 Frc consts  --      0.2149                 0.4703                 0.6730
 IR Inten    --      6.3512                 1.7769                 6.2369

                     10                     11                     12
                      A                      A                      A
 Frequencies --    627.6076               753.2258               786.0253
 Red. masses --      3.9658                 3.6712                 2.6362
 Frc consts  --      0.9204                 1.2272                 0.9596
 IR Inten    --      5.4281                 7.7577                 2.2280

                     13                     14                     15
                      A                      A                      A
 Frequencies --    821.9937               830.3746               853.1830
 Red. masses --      2.5137                 3.0280                 2.9701
 Frc consts  --      1.0007                 1.2301                 1.2738
 IR Inten    --      3.8424                 5.6626                12.6772

                     16                     17                     18
                      A                      A                      A
 Frequencies --    881.7765               930.7063               951.9234
 Red. masses --      2.1297                 2.0547                 1.6034
 Frc consts  --      0.9756                 1.0486                 0.8560
 IR Inten    --     14.2171                 1.3730                 5.9788

                     19                     20                     21
                      A                      A                      A
 Frequencies --    965.2346               996.9541              1016.3813
 Red. masses --      2.4643                 1.6298                 3.0842
 Frc consts  --      1.3527                 0.9544                 1.8772
 IR Inten    --     14.6340                12.3047                 9.2251

                     22                     23                     24
                      A                      A                      A
 Frequencies --   1027.1319              1077.4031              1113.9882
 Red. masses --      1.5362                 1.1411                 1.7530
 Frc consts  --      0.9549                 0.7804                 1.2817
 IR Inten    --      1.5229                 2.2974                 5.7371

                     25                     26                     27
                      A                      A                      A
 Frequencies --   1124.0047              1138.7197              1156.2372
 Red. masses --      1.2814                 1.9807                 1.3547
 Frc consts  --      0.9538                 1.5132                 1.0671
 IR Inten    --     12.8658               109.4400                 0.8852

                     28                     29                     30
                      A                      A                      A
 Frequencies --   1175.4907              1182.8789              1197.7938
 Red. masses --      1.8673                 1.5938                 1.9384
 Frc consts  --      1.5202                 1.3139                 1.6385
 IR Inten    --      8.1470                13.9742                10.8634

                     31                     32                     33
                      A                      A                      A
 Frequencies --   1223.1363              1244.5991              1264.9315
 Red. masses --      1.4656                 1.5172                 1.7130
 Frc consts  --      1.2919                 1.3847                 1.6149
 IR Inten    --      4.0229                 4.8497                15.5896

                     34                     35                     36
                      A                      A                      A
 Frequencies --   1300.1913              1305.9026              1325.0015
 Red. masses --      1.7379                 1.5984                 1.6847
 Frc consts  --      1.7309                 1.6061                 1.7427
 IR Inten    --      1.5345                 8.1673                 5.1235

                     37                     38                     39
                      A                      A                      A
 Frequencies --   1433.5596              1446.0397              1491.0291
 Red. masses --      2.2418                 1.2295                 1.0972
 Frc consts  --      2.7144                 1.5147                 1.4372
 IR Inten    --     35.7468                39.4795                 4.5484

                     40                     41                     42
                      A                      A                      A
 Frequencies --   1510.0613              1534.7226              3049.2522
 Red. masses --      1.1208                 1.5031                 1.0623
 Frc consts  --      1.5058                 2.0860                 5.8195
 IR Inten    --      9.4320                 4.9887                24.3187

                     43                     44                     45
                      A                      A                      A
 Frequencies --   3072.3307              3073.4382              3096.9114
 Red. masses --      1.0567                 1.0503                 1.0864
 Frc consts  --      5.8770                 5.8456                 6.1391
 IR Inten    --     24.9452                24.3209                23.9441

                     46                     47                     48
                      A                      A                      A
 Frequencies --   3101.4068              3122.6007              3129.3201
 Red. masses --      1.1024                 1.0897                 1.0935
 Frc consts  --      6.2473                 6.2604                 6.3093
 IR Inten    --     13.0864                55.6560                11.9395

                     49                     50                     51
                      A                      A                      A
 Frequencies --   3133.7875              3158.9114              3819.6760
 Red. masses --      1.1081                 1.1190                 1.0654
 Frc consts  --      6.4116                 6.5789                 9.1585
 IR Inten    --     28.4896                22.9481                14.0052

 - Thermochemistry -
 -------------------
 Temperature   298.150 Kelvin.  Pressure   1.00000 Atm.
 Atom     1 has atomic number  8 and mass  15.99491

 Molecular mass:   126.06808 amu.
 Principal axes and moments of inertia in atomic units:
                           1         2         3
     Eigenvalues --   672.233531093.324171315.48235
           X            0.99670   0.08066   0.00908
           Y           -0.08076   0.99667   0.01095
           Z           -0.00816  -0.01164   0.99990
 This molecule is an asymmetric top.
 Rotational symmetry number  1.
 Warning -- assumption of classical behavior for rotation
           may cause significant error
 Rotational temperatures (Kelvin)      0.12884     0.07922     0.06584
 Rotational constants (GHZ):           2.68469     1.65069     1.37192
 Zero-point vibrational energy     421685.3 (Joules/Mol)
                                  100.78520 (Kcal/Mol)
 Warning -- explicit consideration of   9 degrees of freedom as
           vibrations may cause significant error
 Vibrational temperatures:    156.40   322.20   337.75   438.82   476.06
          (Kelvin)            539.53   638.52   698.36   787.00   902.99
                             1083.72  1130.91  1182.66  1194.72  1227.54
                             1268.68  1339.08  1369.60  1388.76  1434.39
                             1462.34  1477.81  1550.14  1602.78  1617.19
                             1638.36  1663.57  1691.27  1701.90  1723.36
                             1759.82  1790.70  1819.95  1870.68  1878.90
                             1906.38  2062.57  2080.53  2145.26  2172.64
                             2208.12  4387.19  4420.39  4421.99  4455.76
                             4462.23  4492.72  4502.39  4508.82  4544.96
                             5495.65

 Zero-point correction=                           0.160611 (Hartree/Particle)
 Thermal correction to Energy=                    0.168116
 Thermal correction to Enthalpy=                  0.169060
 Thermal correction to Gibbs Free Energy=         0.128942
 Sum of electronic and zero-point Energies=           -422.991425
 Sum of electronic and thermal Energies=              -422.983921
 Sum of electronic and thermal Enthalpies=            -422.982976
 Sum of electronic and thermal Free Energies=         -423.023094

                     E (Thermal)             CV                S
                      KCal/Mol        Cal/Mol-Kelvin    Cal/Mol-Kelvin
 Total                  105.494             30.508             84.435
 Electronic               0.000              0.000              0.000
 Translational            0.889              2.981             40.409
 Rotational               0.889              2.981             28.360
 Vibrational            103.717             24.547             15.667
 Vibration     1          0.606              1.942              3.292
 Vibration     2          0.649              1.805              1.927
 Vibration     3          0.655              1.788              1.842
 Vibration     4          0.696              1.664              1.389
 Vibration     5          0.713              1.614              1.256
 Vibration     6          0.746              1.523              1.059
 Vibration     7          0.803              1.375              0.815
 Vibration     8          0.841              1.282              0.696
 Vibration     9          0.902              1.146              0.550

 Normal termination of Gaussian 09 at Mon Jan 27 23:48:12 2020.
