 Gaussian 09, Revision D.01,
 Gaussian 09:  ES64L-G09RevD.01 24-Apr-2013

 -----------------------------
 # b3lyp 6-31G(2df,p) opt Freq
 -----------------------------

 -----
 titel
 -----
 Symbolic Z-matrix:
 Charge =  0 Multiplicity = 1

 SCF Done:  E(RB3LYP) =  -423.133525191     A.U. after   14 cycles
 Optimization completed.
    -- Stationary point found.
 Normal termination of Gaussian 09 at Mon Jan 27 15:31:44 2020.

 ----------------------------------------------------------------------
 #N Geom=AllCheck Guess=TCheck SCRF=Check GenChk RB3LYP/6-31G(2df,p) Fr
 eq
 ----------------------------------------------------------------------

 Structure from the checkpoint file:  "/scratch/puck/g09_dc007952-15fb-4178-a8d5-ec6a69753e28/Gau-81256.chk"
 -----
 titel
 -----
 Charge =  0 Multiplicity = 1

                         Standard orientation:
 ---------------------------------------------------------------------
 Center     Atomic      Atomic             Coordinates (Angstroms)
 Number     Number       Type             X           Y           Z
 ---------------------------------------------------------------------
      1          6           0       -2.233508    1.255032   -0.281235
      2          6           0       -1.642856    0.024759    0.424265
      3          8           0       -2.381057   -1.150583    0.115895
      4          6           0       -0.185255   -0.149962    0.133862
      5          6           0        0.499664   -1.194243   -0.342929
      6          6           0        1.930672   -0.631197   -0.390477
      7          6           0        2.050569    0.037323    1.012388
      8          6           0        0.953172    0.887571    0.306137
      9          8           0        1.704540    0.714030   -0.939396
     10          1           0       -2.110556    1.169847   -1.366738
     11          1           0       -3.299531    1.332250   -0.052483
     12          1           0       -1.739791    2.177675    0.038832
     13          1           0       -1.777876    0.155073    1.507707
     14          1           0       -2.287650   -1.302910   -0.831720
     15          1           0        0.170296   -2.187809   -0.606157
     16          1           0        2.729675   -1.191593   -0.873476
     17          1           0        1.782200   -0.544107    1.896806
     18          1           0        2.986184    0.586227    1.142978
     19          1           0        0.724428    1.922067    0.560200
 ---------------------------------------------------------------------

 SCF Done:  E(RB3LYP) =  -423.133525191     A.U. after    1 cycles

 The electronic state is 1-A.
 Alpha  occ. eigenvalues --  -19.13743 -19.12816 -10.24366 -10.24299 -10.24248
 Alpha  occ. eigenvalues --  -10.19247 -10.18757 -10.18080 -10.18055  -1.04560
 Alpha  occ. eigenvalues --   -1.02109  -0.81150  -0.75652  -0.71021  -0.68852
 Alpha  occ. eigenvalues --   -0.63182  -0.55671  -0.53800  -0.53272  -0.47331
 Alpha  occ. eigenvalues --   -0.46383  -0.45099  -0.42178  -0.41015  -0.40398
 Alpha  occ. eigenvalues --   -0.38044  -0.37106  -0.36622  -0.33532  -0.33237
 Alpha  occ. eigenvalues --   -0.32178  -0.27701  -0.24930  -0.23045
 Alpha virt. eigenvalues --    0.00266   0.07773   0.09874   0.10513   0.12035
 Alpha virt. eigenvalues --    0.13394   0.13967   0.14371   0.15874   0.16477
 Alpha virt. eigenvalues --    0.17617   0.18086   0.19740   0.20265   0.21826

 Mulliken charges:
               1
     1  C   -0.400491
     2  C   -0.028389
     3  O   -0.417201
     4  C    0.377017
     5  C   -0.232233
     6  C    0.024799
     7  C   -0.216280
     8  C   -0.049233
     9  O   -0.284716
    10  H    0.119434
    11  H    0.125826
    12  H    0.119767
    13  H    0.102049
    14  H    0.279332
    15  H    0.111894
    16  H    0.081716
    17  H    0.099773
    18  H    0.107760
    19  H    0.079174
 Sum of Mulliken charges =   0.00000

 Dipole moment (field-independent basis, Debye):
    X=              0.0925    Y=             -0.0173    Z=              0.4984  Tot=              0.5072
 Quadrupole moment (field-independent basis, Debye-Ang):
   XX=            -55.2204   YY=            -52.3178   ZZ=            -53.1167
   XY=             -4.9069   XZ=              4.7009   YZ=              4.8165

  Exact polarizability:  89.276  -4.997  75.852  -0.285   5.852  63.607
 Approx polarizability: 117.626  -8.512 121.387  -6.964  10.918 102.270

                      1                      2                      3
                      A                      A                      A
 Frequencies --     58.9683               123.0470               184.3403
 Red. masses --      3.4619                 3.6511                 3.1924
 Frc consts  --      0.0071                 0.0326                 0.0639
 IR Inten    --      2.5413                 3.1375                 0.4043

                      4                      5                      6
                      A                      A                      A
 Frequencies --    238.2442               296.4061               329.5060
 Red. masses --      1.1405                 1.4270                 1.9593
 Frc consts  --      0.0381                 0.0739                 0.1253
 IR Inten    --      0.2652                46.4157                62.7687

                      7                      8                      9
                      A                      A                      A
 Frequencies --    403.6599               449.0924               501.5656
 Red. masses --      4.4550                 2.6492                 2.2032
 Frc consts  --      0.4277                 0.3148                 0.3266
 IR Inten    --      8.3647                 7.6684                 0.6844

                     10                     11                     12
                      A                      A                      A
 Frequencies --    600.6260               618.5168               688.0077
 Red. masses --      2.9526                 4.3159                 3.2429
 Frc consts  --      0.6276                 0.9728                 0.9044
 IR Inten    --      5.8273                14.5649                12.9877

                     13                     14                     15
                      A                      A                      A
 Frequencies --    789.7417               806.0306               844.9771
 Red. masses --      2.6431                 2.6979                 2.2273
 Frc consts  --      0.9712                 1.0327                 0.9369
 IR Inten    --      6.3471                 5.6347                30.5347

                     16                     17                     18
                      A                      A                      A
 Frequencies --    846.9087               890.5463               898.1730
 Red. masses --      2.4968                 2.8018                 2.6547
 Frc consts  --      1.0552                 1.3092                 1.2618
 IR Inten    --      3.6032                 7.5431                16.6408

                     19                     20                     21
                      A                      A                      A
 Frequencies --    916.5628               938.2551              1004.4779
 Red. masses --      3.1051                 2.9256                 1.8211
 Frc consts  --      1.5369                 1.5174                 1.0826
 IR Inten    --     13.0593                19.1486                10.3766

                     22                     23                     24
                      A                      A                      A
 Frequencies --   1032.2646              1048.1327              1076.3974
 Red. masses --      1.7086                 1.6952                 1.4235
 Frc consts  --      1.0727                 1.0972                 0.9718
 IR Inten    --      3.2009                32.1371                 4.1194

                     25                     26                     27
                      A                      A                      A
 Frequencies --   1098.5976              1101.4092              1158.2515
 Red. masses --      2.3812                 2.8847                 1.4750
 Frc consts  --      1.6932                 2.0618                 1.1658
 IR Inten    --      6.8217                38.5558                16.7894

                     28                     29                     30
                      A                      A                      A
 Frequencies --   1176.6937              1209.4882              1233.9972
 Red. masses --      1.7879                 1.5536                 1.4325
 Frc consts  --      1.4585                 1.3391                 1.2852
 IR Inten    --     22.9714                 6.5267                 8.8945

                     31                     32                     33
                      A                      A                      A
 Frequencies --   1260.6500              1272.3280              1296.9259
 Red. masses --      1.5421                 1.4500                 1.3922
 Frc consts  --      1.4440                 1.3830                 1.3797
 IR Inten    --      0.9457                18.4930                 9.7652

                     34                     35                     36
                      A                      A                      A
 Frequencies --   1311.8240              1334.7887              1399.6983
 Red. masses --      1.6401                 1.5204                 1.2356
 Frc consts  --      1.6630                 1.5960                 1.4262
 IR Inten    --      4.1171                12.2820                 4.6982

                     37                     38                     39
                      A                      A                      A
 Frequencies --   1417.2251              1483.3494              1489.5645
 Red. masses --      1.2140                 1.1351                 1.0517
 Frc consts  --      1.4367                 1.4716                 1.3748
 IR Inten    --     58.0745                 0.5932                 7.9984

                     40                     41                     42
                      A                      A                      A
 Frequencies --   1492.6426              1675.3670              3006.5517
 Red. masses --      1.0618                 7.8940                 1.0825
 Frc consts  --      1.3938                13.0548                 5.7652
 IR Inten    --      0.1771                 1.5122                19.0211

                     43                     44                     45
                      A                      A                      A
 Frequencies --   3034.5827              3063.1543              3105.2922
 Red. masses --      1.0355                 1.0552                 1.1004
 Frc consts  --      5.6185                 5.8332                 6.2516
 IR Inten    --     15.0380                40.7922                19.5843

                     46                     47                     48
                      A                      A                      A
 Frequencies --   3123.5458              3128.9091              3135.5464
 Red. masses --      1.1014                 1.0920                 1.1056
 Frc consts  --      6.3315                 6.2988                 6.4045
 IR Inten    --     32.3234                40.9085                22.6778

                     49                     50                     51
                      A                      A                      A
 Frequencies --   3138.5485              3250.2768              3792.6206
 Red. masses --      1.0982                 1.0981                 1.0657
 Frc consts  --      6.3737                 6.8352                 9.0316
 IR Inten    --     42.7654                 2.3804                12.7127

 - Thermochemistry -
 -------------------
 Temperature   298.150 Kelvin.  Pressure   1.00000 Atm.
 Atom     1 has atomic number  6 and mass  12.00000

 Molecular mass:   126.06808 amu.
 Principal axes and moments of inertia in atomic units:
                           1         2         3
     Eigenvalues --   518.784181542.083981737.23595
           X            0.99925  -0.03377   0.01870
           Y            0.03284   0.99831   0.04803
           Z           -0.02029  -0.04738   0.99867
 This molecule is an asymmetric top.
 Rotational symmetry number  1.
 Warning -- assumption of classical behavior for rotation
           may cause significant error
 Rotational temperatures (Kelvin)      0.16696     0.05617     0.04986
 Rotational constants (GHZ):           3.47879     1.17033     1.03886
 Zero-point vibrational energy     417354.8 (Joules/Mol)
                                   99.75019 (Kcal/Mol)
 Warning -- explicit consideration of  11 degrees of freedom as
           vibrations may cause significant error
 Vibrational temperatures:     84.84   177.04   265.22   342.78   426.46
          (Kelvin)            474.09   580.78   646.14   721.64   864.17
                              889.91   989.89  1136.26  1159.70  1215.73
                             1218.51  1281.30  1292.27  1318.73  1349.94
                             1445.22  1485.20  1508.03  1548.69  1580.63
                             1584.68  1666.46  1693.00  1740.18  1775.44
                             1813.79  1830.59  1865.98  1887.42  1920.46
                             2013.85  2039.07  2134.21  2143.15  2147.58
                             2410.48  4325.75  4366.08  4407.19  4467.82
                             4494.08  4501.80  4511.35  4515.67  4676.42
                             5456.73

 Zero-point correction=                           0.158962 (Hartree/Particle)
 Thermal correction to Energy=                    0.167254
 Thermal correction to Enthalpy=                  0.168198
 Thermal correction to Gibbs Free Energy=         0.125819
 Sum of electronic and zero-point Energies=           -422.974563
 Sum of electronic and thermal Energies=              -422.966271
 Sum of electronic and thermal Enthalpies=            -422.965327
 Sum of electronic and thermal Free Energies=         -423.007706

                     E (Thermal)             CV                S
                      KCal/Mol        Cal/Mol-Kelvin    Cal/Mol-Kelvin
 Total                  104.954             32.137             89.195
 Electronic               0.000              0.000              0.000
 Translational            0.889              2.981             40.409
 Rotational               0.889              2.981             28.721
 Vibrational            103.176             26.175             20.066
 Vibration     1          0.596              1.974              4.491
 Vibration     2          0.610              1.930              3.052
 Vibration     3          0.631              1.861              2.284
 Vibration     4          0.656              1.782              1.816
 Vibration     5          0.690              1.680              1.437
 Vibration     6          0.712              1.617              1.263
 Vibration     7          0.769              1.462              0.949
 Vibration     8          0.808              1.363              0.799
 Vibration     9          0.857              1.247              0.654
 Vibration    10          0.959              1.030              0.449
 Vibration    11          0.978              0.993              0.419

 Optimization completed.
    -- Stationary point found.
 Normal termination of Gaussian 09 at Mon Jan 27 16:14:23 2020.
