 Gaussian 09, Revision D.01,
 Gaussian 09:  ES64L-G09RevD.01 24-Apr-2013

 -----------------------------
 # b3lyp 6-31G(2df,p) opt Freq
 -----------------------------

 -----
 titel
 -----
 Symbolic Z-matrix:
 Charge =  0 Multiplicity = 1

 SCF Done:  E(RB3LYP) =  -423.227788158     A.U. after   14 cycles
 Optimization completed.
    -- Stationary point found.
 Normal termination of Gaussian 09 at Mon Jan 27 17:22:03 2020.

 ----------------------------------------------------------------------
 #N Geom=AllCheck Guess=TCheck SCRF=Check GenChk RB3LYP/6-31G(2df,p) Fr
 eq
 ----------------------------------------------------------------------

 Structure from the checkpoint file:  "/scratch/puck/g09_58b4bd30-7474-4660-9d7a-fa62331bcf71/Gau-86573.chk"
 -----
 titel
 -----
 Charge =  0 Multiplicity = 1

                         Standard orientation:
 ---------------------------------------------------------------------
 Center     Atomic      Atomic             Coordinates (Angstroms)
 Number     Number       Type             X           Y           Z
 ---------------------------------------------------------------------
      1          6           0       -2.467708   -0.549970   -0.654383
      2          6           0       -1.191761   -0.066475    0.000571
      3          6           0       -0.810123   -0.611276    1.344499
      4          6           0       -0.022106   -1.030291    0.107001
      5          6           0        1.368533   -0.556316   -0.146849
      6          8           0        2.270476   -1.301649   -0.424168
      7          8           0        1.613349    0.781418   -0.105881
      8          6           0        0.583605    1.718186    0.236894
      9          6           0       -0.782241    1.355301   -0.337053
     10          1           0       -2.669692   -1.596373   -0.406507
     11          1           0       -3.327214    0.044428   -0.323398
     12          1           0       -2.405266   -0.469131   -1.745388
     13          1           0       -0.331452    0.024872    2.078932
     14          1           0       -1.440794   -1.379848    1.777343
     15          1           0       -0.156844   -2.052654   -0.225132
     16          1           0        0.540792    1.817062    1.328139
     17          1           0        0.926207    2.676175   -0.161483
     18          1           0       -1.519079    2.074685    0.042090
     19          1           0       -0.756455    1.467676   -1.428289
 ---------------------------------------------------------------------

 SCF Done:  E(RB3LYP) =  -423.227788158     A.U. after    1 cycles

 The electronic state is 1-A.
 Alpha  occ. eigenvalues --  -19.17357 -19.10794 -10.29859 -10.25043 -10.21989
 Alpha  occ. eigenvalues --  -10.20631 -10.20580 -10.20421 -10.19250  -1.08804
 Alpha  occ. eigenvalues --   -1.00597  -0.89129  -0.77925  -0.73058  -0.67911
 Alpha  occ. eigenvalues --   -0.64804  -0.58323  -0.54010  -0.52382  -0.48681
 Alpha  occ. eigenvalues --   -0.46724  -0.45069  -0.44486  -0.42777  -0.41698
 Alpha  occ. eigenvalues --   -0.40476  -0.39141  -0.37911  -0.36549  -0.32633
 Alpha  occ. eigenvalues --   -0.31154  -0.29802  -0.28217  -0.25324
 Alpha virt. eigenvalues --    0.01385   0.07549   0.09085   0.10904   0.11484
 Alpha virt. eigenvalues --    0.11942   0.12648   0.14991   0.16028   0.16348
 Alpha virt. eigenvalues --    0.17806   0.18318   0.19572   0.20661   0.22179

 Mulliken charges:
               1
     1  C   -0.467032
     2  C    0.326456
     3  C   -0.340814
     4  C   -0.192348
     5  C    0.425219
     6  O   -0.340938
     7  O   -0.234601
     8  C   -0.090149
     9  C   -0.284316
    10  H    0.121475
    11  H    0.121593
    12  H    0.124973
    13  H    0.125888
    14  H    0.123316
    15  H    0.113968
    16  H    0.115572
    17  H    0.125854
    18  H    0.109761
    19  H    0.116122
 Sum of Mulliken charges =   0.00000

 Dipole moment (field-independent basis, Debye):
    X=             -4.3268    Y=              1.9760    Z=              0.9698  Tot=              4.8545
 Quadrupole moment (field-independent basis, Debye-Ang):
   XX=            -62.3129   YY=            -51.4619   ZZ=            -51.7018
   XY=              4.7753   XZ=              2.0803   YZ=             -0.6892

  Exact polarizability:  82.906  -2.991  79.418  -1.458   0.469  65.272
 Approx polarizability: 117.393 -11.762 117.771  -6.676   3.160 101.035

                      1                      2                      3
                      A                      A                      A
 Frequencies --    118.0206               143.1835               228.1482
 Red. masses --      5.4243                 3.3803                 1.0589
 Frc consts  --      0.0445                 0.0408                 0.0325
 IR Inten    --      0.3581                 3.1690                 0.1787

                      4                      5                      6
                      A                      A                      A
 Frequencies --    271.4142               296.5253               365.9515
 Red. masses --      2.2049                 2.5328                 3.0256
 Frc consts  --      0.0957                 0.1312                 0.2387
 IR Inten    --      2.4891                 0.4482                 0.8150

                      7                      8                      9
                      A                      A                      A
 Frequencies --    367.5615               426.9694               490.1561
 Red. masses --      2.4506                 3.6920                 4.4304
 Frc consts  --      0.1951                 0.3966                 0.6271
 IR Inten    --      1.8500                 1.0474                 4.2714

                     10                     11                     12
                      A                      A                      A
 Frequencies --    521.4952               650.4816               668.2847
 Red. masses --      3.6234                 3.7403                 3.0058
 Frc consts  --      0.5806                 0.9325                 0.7909
 IR Inten    --      2.4287                 3.6547                 4.4633

                     13                     14                     15
                      A                      A                      A
 Frequencies --    746.4720               761.7891               858.6849
 Red. masses --      2.4253                 3.9169                 2.5190
 Frc consts  --      0.7962                 1.3393                 1.0943
 IR Inten    --      3.2919                 4.1551                 4.0847

                     16                     17                     18
                      A                      A                      A
 Frequencies --    902.6110               920.9609               946.3658
 Red. masses --      2.0800                 2.3336                 1.5884
 Frc consts  --      0.9984                 1.1662                 0.8382
 IR Inten    --      5.0876                 1.6500                 4.8291

                     19                     20                     21
                      A                      A                      A
 Frequencies --    958.1018              1022.6685              1044.9730
 Red. masses --      1.7139                 1.5972                 1.7288
 Frc consts  --      0.9270                 0.9842                 1.1123
 IR Inten    --     25.4414                 8.0659                12.0935

                     22                     23                     24
                      A                      A                      A
 Frequencies --   1054.5722              1064.9220              1107.7036
 Red. masses --      1.6952                 1.4529                 2.4810
 Frc consts  --      1.1108                 0.9708                 1.7936
 IR Inten    --     15.6884                 3.3245                41.4483

                     25                     26                     27
                      A                      A                      A
 Frequencies --   1116.6664              1139.1233              1225.5909
 Red. masses --      1.9427                 2.2119                 2.9279
 Frc consts  --      1.4273                 1.6910                 2.5911
 IR Inten    --     33.1352                39.0404                83.4704

                     28                     29                     30
                      A                      A                      A
 Frequencies --   1243.7063              1251.9031              1288.8966
 Red. masses --      1.4874                 1.3122                 1.2875
 Frc consts  --      1.3556                 1.2117                 1.2602
 IR Inten    --     34.1835                 2.3454                32.8190

                     31                     32                     33
                      A                      A                      A
 Frequencies --   1326.4825              1370.2416              1408.0589
 Red. masses --      1.9727                 2.0922                 1.5665
 Frc consts  --      2.0451                 2.3144                 1.8299
 IR Inten    --     41.0715                 0.7807                 0.8131

                     34                     35                     36
                      A                      A                      A
 Frequencies --   1419.6582              1432.8970              1479.5371
 Red. masses --      1.2810                 1.6965                 1.1127
 Frc consts  --      1.5211                 2.0523                 1.4351
 IR Inten    --      0.8875                31.8399                 3.1031

                     37                     38                     39
                      A                      A                      A
 Frequencies --   1488.7598              1491.9643              1506.0391
 Red. masses --      1.1024                 1.0971                 1.1800
 Frc consts  --      1.4395                 1.4388                 1.5769
 IR Inten    --      6.7165                 5.7875                 0.5159

                     40                     41                     42
                      A                      A                      A
 Frequencies --   1527.0867              1834.1556              3022.0994
 Red. masses --      1.1094                12.1978                 1.0549
 Frc consts  --      1.5243                24.1771                 5.6765
 IR Inten    --      6.8420               383.0320                14.0606

                     43                     44                     45
                      A                      A                      A
 Frequencies --   3027.1811              3032.0811              3063.3135
 Red. masses --      1.0401                 1.0699                 1.0995
 Frc consts  --      5.6154                 5.7953                 6.0788
 IR Inten    --     42.1151                25.5725                32.1209

                     46                     47                     48
                      A                      A                      A
 Frequencies --   3088.3526              3099.0146              3105.1622
 Red. masses --      1.1009                 1.0986                 1.1009
 Frc consts  --      6.1868                 6.2161                 6.2539
 IR Inten    --     23.1441                25.8267                22.1815

                     49                     50                     51
                      A                      A                      A
 Frequencies --   3144.5594              3187.8166              3227.6672
 Red. masses --      1.0551                 1.0900                 1.1155
 Frc consts  --      6.1472                 6.5260                 6.8467
 IR Inten    --     10.9262                 2.5377                 6.2465

 - Thermochemistry -
 -------------------
 Temperature   298.150 Kelvin.  Pressure   1.00000 Atm.
 Atom     1 has atomic number  6 and mass  12.00000

 Molecular mass:   126.06808 amu.
 Principal axes and moments of inertia in atomic units:
                           1         2         3
     Eigenvalues --   684.343161188.772661537.30685
           X            0.99876   0.04587   0.01921
           Y           -0.04581   0.99894  -0.00371
           Z           -0.01936   0.00283   0.99981
 This molecule is an asymmetric top.
 Rotational symmetry number  1.
 Warning -- assumption of classical behavior for rotation
           may cause significant error
 Rotational temperatures (Kelvin)      0.12656     0.07286     0.05634
 Rotational constants (GHZ):           2.63719     1.51816     1.17396
 Zero-point vibrational energy     421600.1 (Joules/Mol)
                                  100.76484 (Kcal/Mol)
 Warning -- explicit consideration of  10 degrees of freedom as
           vibrations may cause significant error
 Vibrational temperatures:    169.81   206.01   328.25   390.50   426.63
          (Kelvin)            526.52   528.84   614.31   705.22   750.31
                              935.90   961.51  1074.01  1096.04  1235.45
                             1298.65  1325.06  1361.61  1378.49  1471.39
                             1503.48  1517.29  1532.18  1593.74  1606.63
                             1638.94  1763.35  1789.41  1801.21  1854.43
                             1908.51  1971.47  2025.88  2042.57  2061.62
                             2128.72  2141.99  2146.60  2166.85  2197.13
                             2638.94  4348.12  4355.43  4362.48  4407.42
                             4443.45  4458.79  4467.63  4524.31  4586.55
                             4643.89

 Zero-point correction=                           0.160579 (Hartree/Particle)
 Thermal correction to Energy=                    0.168590
 Thermal correction to Enthalpy=                  0.169534
 Thermal correction to Gibbs Free Energy=         0.128282
 Sum of electronic and zero-point Energies=           -423.067209
 Sum of electronic and thermal Energies=              -423.059198
 Sum of electronic and thermal Enthalpies=            -423.058254
 Sum of electronic and thermal Free Energies=         -423.099507

                     E (Thermal)             CV                S
                      KCal/Mol        Cal/Mol-Kelvin    Cal/Mol-Kelvin
 Total                  105.792             31.394             86.823
 Electronic               0.000              0.000              0.000
 Translational            0.889              2.981             40.409
 Rotational               0.889              2.981             28.616
 Vibrational            104.014             25.432             17.798
 Vibration     1          0.608              1.934              3.133
 Vibration     2          0.616              1.910              2.761
 Vibration     3          0.651              1.798              1.893
 Vibration     4          0.675              1.726              1.587
 Vibration     5          0.690              1.680              1.436
 Vibration     6          0.739              1.542              1.097
 Vibration     7          0.740              1.539              1.090
 Vibration     8          0.789              1.412              0.869
 Vibration     9          0.846              1.272              0.683
 Vibration    10          0.876              1.202              0.607

 Normal termination of Gaussian 09 at Mon Jan 27 18:05:46 2020.
