 Gaussian 09, Revision D.01,
 Gaussian 09:  ES64L-G09RevD.01 24-Apr-2013

 -----------------------------
 # b3lyp 6-31G(2df,p) opt Freq
 -----------------------------

 -----
 titel
 -----
 Symbolic Z-matrix:
 Charge =  0 Multiplicity = 1

 SCF Done:  E(RB3LYP) =  -423.124799360     A.U. after   14 cycles
 Optimization completed.
    -- Stationary point found.
 Normal termination of Gaussian 09 at Tue Jan 28 12:10:53 2020.

 ----------------------------------------------------------------------
 #N Geom=AllCheck Guess=TCheck SCRF=Check GenChk RB3LYP/6-31G(2df,p) Fr
 eq
 ----------------------------------------------------------------------

 Structure from the checkpoint file:  "/scratch/puck/g09_52ee0788-a9cb-469c-b596-3ffa35cd038a/Gau-36769.chk"
 -----
 titel
 -----
 Charge =  0 Multiplicity = 1

                         Standard orientation:
 ---------------------------------------------------------------------
 Center     Atomic      Atomic             Coordinates (Angstroms)
 Number     Number       Type             X           Y           Z
 ---------------------------------------------------------------------
      1          6           0        2.515947   -0.789973   -0.963242
      2          6           0        1.276707   -1.071460   -0.157241
      3          8           0        1.300013   -0.720392    1.225952
      4          6           0        0.371812   -0.019441    0.373027
      5          6           0       -1.091803   -0.335815    0.630720
      6          6           0       -1.995227   -0.013057   -0.555752
      7          8           0       -3.318675   -0.362911   -0.182586
      8          6           0        0.680488    1.373520    0.140150
      9          6           0        0.887075    2.542637   -0.051747
     10          1           0        2.306051   -0.896792   -2.032856
     11          1           0        2.883194    0.220838   -0.775955
     12          1           0        3.303826   -1.503834   -0.701746
     13          1           0        0.804742   -2.037563   -0.352114
     14          1           0       -1.176721   -1.398959    0.874615
     15          1           0       -1.437961    0.227938    1.503613
     16          1           0       -1.914769    1.055634   -0.803331
     17          1           0       -1.664491   -0.581302   -1.440748
     18          1           0       -3.908982   -0.111456   -0.898627
     19          1           0        1.084417    3.573460   -0.215271
 ---------------------------------------------------------------------

 SCF Done:  E(RB3LYP) =  -423.124799360     A.U. after    1 cycles

 The electronic state is 1-A.
 Alpha  occ. eigenvalues --  -19.15366 -19.13638 -10.26311 -10.24478 -10.23113
 Alpha  occ. eigenvalues --  -10.18988 -10.18834 -10.18508 -10.18362  -1.07567
 Alpha  occ. eigenvalues --   -1.01765  -0.79372  -0.75114  -0.74489  -0.66789
 Alpha  occ. eigenvalues --   -0.61226  -0.61048  -0.52944  -0.52006  -0.49432
 Alpha  occ. eigenvalues --   -0.47672  -0.46096  -0.42786  -0.41761  -0.39743
 Alpha  occ. eigenvalues --   -0.38309  -0.37517  -0.36866  -0.33349  -0.31977
 Alpha  occ. eigenvalues --   -0.28382  -0.27580  -0.26856  -0.25875
 Alpha virt. eigenvalues --    0.02266   0.04153   0.07661   0.09850   0.11596
 Alpha virt. eigenvalues --    0.11956   0.12905   0.13374   0.15298   0.16358
 Alpha virt. eigenvalues --    0.17948   0.18290   0.18522   0.19572   0.20680

 Mulliken charges:
               1
     1  C   -0.432526
     2  C    0.039480
     3  O   -0.292826
     4  C    0.180618
     5  C   -0.274129
     6  C   -0.075982
     7  O   -0.417639
     8  C    0.316230
     9  C   -0.445687
    10  H    0.122773
    11  H    0.141232
    12  H    0.131227
    13  H    0.090506
    14  H    0.120000
    15  H    0.122782
    16  H    0.102094
    17  H    0.084572
    18  H    0.287374
    19  H    0.199901
 Sum of Mulliken charges =   0.00000

 Dipole moment (field-independent basis, Debye):
    X=             -0.3655    Y=              0.6496    Z=             -2.8467  Tot=              2.9427
 Quadrupole moment (field-independent basis, Debye-Ang):
   XX=            -52.2102   YY=            -47.9671   ZZ=            -54.5070
   XY=             -1.5121   XZ=              1.6467   YZ=              0.9853

  Exact polarizability:  81.981  -0.579  90.958  -3.265  -0.815  61.532
 Approx polarizability: 102.461   0.413 145.065  -2.228  -6.204  95.944

                      1                      2                      3
                      A                      A                      A
 Frequencies --     66.4831                83.1366               120.2340
 Red. masses --      3.0583                 2.6342                 3.8704
 Frc consts  --      0.0080                 0.0107                 0.0330
 IR Inten    --      0.6517                 6.8780                 0.5663

                      4                      5                      6
                      A                      A                      A
 Frequencies --    147.8973               172.8366               207.7286
 Red. masses --      2.8775                 1.3770                 2.1791
 Frc consts  --      0.0371                 0.0242                 0.0554
 IR Inten    --      0.5721                 0.3467                 0.4496

                      7                      8                      9
                      A                      A                      A
 Frequencies --    257.8084               288.4306               301.6187
 Red. masses --      1.0871                 2.8545                 3.4958
 Frc consts  --      0.0426                 0.1399                 0.1874
 IR Inten    --    101.4480                 2.1907                 7.2887

                     10                     11                     12
                      A                      A                      A
 Frequencies --    352.3779               427.2930               487.1922
 Red. masses --      5.4322                 4.1199                 3.9517
 Frc consts  --      0.3974                 0.4432                 0.5526
 IR Inten    --      1.5931                 4.1429                14.5461

                     13                     14                     15
                      A                      A                      A
 Frequencies --    573.5189               595.7576               625.5958
 Red. masses --      8.1597                 4.6692                 1.2179
 Frc consts  --      1.5813                 0.9764                 0.2808
 IR Inten    --      4.4549                 4.2671                40.9701

                     16                     17                     18
                      A                      A                      A
 Frequencies --    660.9033               706.8935               793.3690
 Red. masses --      1.2479                 3.6516                 2.7737
 Frc consts  --      0.3211                 1.0751                 1.0286
 IR Inten    --     35.1867                17.5099                11.0549

                     19                     20                     21
                      A                      A                      A
 Frequencies --    801.4607               911.6125               969.0200
 Red. masses --      1.3928                 2.9033                 2.0894
 Frc consts  --      0.5271                 1.4215                 1.1559
 IR Inten    --      1.4745                21.6472                20.8358

                     22                     23                     24
                      A                      A                      A
 Frequencies --   1008.9586              1025.3748              1081.7753
 Red. masses --      1.4546                 2.2649                 5.5325
 Frc consts  --      0.8725                 1.4030                 3.8146
 IR Inten    --     12.7411                18.3741                64.0226

                     25                     26                     27
                      A                      A                      A
 Frequencies --   1105.5066              1134.6447              1159.8374
 Red. masses --      2.0431                 2.5198                 1.7817
 Frc consts  --      1.4712                 1.9113                 1.4122
 IR Inten    --     21.4601                10.6515                 8.4352

                     28                     29                     30
                      A                      A                      A
 Frequencies --   1204.7322              1245.2509              1252.2804
 Red. masses --      1.4569                 1.2937                 1.7077
 Frc consts  --      1.2458                 1.1820                 1.5778
 IR Inten    --      3.9222                18.2343                36.6021

                     31                     32                     33
                      A                      A                      A
 Frequencies --   1299.0703              1332.9442              1346.0676
 Red. masses --      1.1849                 1.4674                 1.4670
 Frc consts  --      1.1781                 1.5361                 1.5660
 IR Inten    --      2.3504                21.7694                 8.9618

                     34                     35                     36
                      A                      A                      A
 Frequencies --   1407.6343              1447.9369              1463.1649
 Red. masses --      1.2834                 2.0779                 1.4647
 Frc consts  --      1.4983                 2.5666                 1.8475
 IR Inten    --      2.8283                14.9487                 5.4253

                     37                     38                     39
                      A                      A                      A
 Frequencies --   1485.7871              1489.5987              1497.4530
 Red. masses --      1.0671                 1.0837                 1.1820
 Frc consts  --      1.3879                 1.4168                 1.5617
 IR Inten    --      3.6046                 2.6040                 5.9391

                     40                     41                     42
                      A                      A                      A
 Frequencies --   1530.2793              2233.0538              2965.6442
 Red. masses --      1.0843                 5.9661                 1.0624
 Frc consts  --      1.4960                17.5284                 5.5052
 IR Inten    --      2.9859                 0.9790                51.4103

                     43                     44                     45
                      A                      A                      A
 Frequencies --   3009.9503              3040.5626              3052.6638
 Red. masses --      1.0976                 1.0370                 1.0593
 Frc consts  --      5.8589                 5.6484                 5.8160
 IR Inten    --     38.0025                18.3049                15.3135

                     46                     47                     48
                      A                      A                      A
 Frequencies --   3079.3614              3102.5614              3103.4940
 Red. masses --      1.0862                 1.1040                 1.1006
 Frc consts  --      6.0683                 6.2615                 6.2459
 IR Inten    --     25.1186                21.4072                16.1548

                     49                     50                     51
                      A                      A                      A
 Frequencies --   3140.0238              3500.1409              3832.8164
 Red. masses --      1.1004                 1.1615                 1.0664
 Frc consts  --      6.3926                 8.3839                 9.2301
 IR Inten    --     13.5039                68.9928                22.8748

 - Thermochemistry -
 -------------------
 Temperature   298.150 Kelvin.  Pressure   1.00000 Atm.
 Atom     1 has atomic number  6 and mass  12.00000

 Molecular mass:   126.06808 amu.
 Principal axes and moments of inertia in atomic units:
                           1         2         3
     Eigenvalues --   768.096331741.526542094.20009
           X            0.99981  -0.01222  -0.01488
           Y            0.01251   0.99973   0.01975
           Z            0.01464  -0.01994   0.99969
 This molecule is an asymmetric top.
 Rotational symmetry number  1.
 Warning -- assumption of classical behavior for rotation
           may cause significant error
 Rotational temperatures (Kelvin)      0.11276     0.04973     0.04136
 Rotational constants (GHZ):           2.34963     1.03630     0.86178
 Zero-point vibrational energy     407506.3 (Joules/Mol)
                                   97.39635 (Kcal/Mol)
 Warning -- explicit consideration of  14 degrees of freedom as
           vibrations may cause significant error
 Vibrational temperatures:     95.65   119.61   172.99   212.79   248.67
          (Kelvin)            298.87   370.93   414.99   433.96   506.99
                              614.78   700.96   825.16   857.16   900.09
                              950.89  1017.06  1141.48  1153.12  1311.61
                             1394.20  1451.66  1475.28  1556.43  1590.58
                             1632.50  1668.75  1733.34  1791.64  1801.75
                             1869.07  1917.81  1936.69  2025.27  2083.26
                             2105.17  2137.71  2143.20  2154.50  2201.73
                             3212.86  4266.90  4330.64  4374.69  4392.10
                             4430.51  4463.89  4465.23  4517.79  5035.92
                             5514.56

 Zero-point correction=                           0.155211 (Hartree/Particle)
 Thermal correction to Energy=                    0.165563
 Thermal correction to Enthalpy=                  0.166507
 Thermal correction to Gibbs Free Energy=         0.119566
 Sum of electronic and zero-point Energies=           -422.969588
 Sum of electronic and thermal Energies=              -422.959237
 Sum of electronic and thermal Enthalpies=            -422.958292
 Sum of electronic and thermal Free Energies=         -423.005234

                     E (Thermal)             CV                S
                      KCal/Mol        Cal/Mol-Kelvin    Cal/Mol-Kelvin
 Total                  103.892             37.163             98.797
 Electronic               0.000              0.000              0.000
 Translational            0.889              2.981             40.409
 Rotational               0.889              2.981             29.417
 Vibrational            102.115             31.201             28.971
 Vibration     1          0.598              1.970              4.255
 Vibration     2          0.600              1.961              3.815
 Vibration     3          0.609              1.932              3.097
 Vibration     4          0.617              1.905              2.699
 Vibration     5          0.626              1.876              2.404
 Vibration     6          0.641              1.829              2.064
 Vibration     7          0.667              1.750              1.677
 Vibration     8          0.685              1.695              1.483
 Vibration     9          0.694              1.671              1.408
 Vibration    10          0.729              1.570              1.156
 Vibration    11          0.789              1.411              0.868
 Vibration    12          0.843              1.278              0.691
 Vibration    13          0.930              1.089              0.498
 Vibration    14          0.954              1.041              0.457

 Optimization completed.
    -- Stationary point found.
 Normal termination of Gaussian 09 at Tue Jan 28 12:51:22 2020.
