 Gaussian 09, Revision D.01,
 Gaussian 09:  ES64L-G09RevD.01 24-Apr-2013

 -----------------------------
 # b3lyp 6-31G(2df,p) opt Freq
 -----------------------------

 -----
 titel
 -----
 Symbolic Z-matrix:
 Charge =  0 Multiplicity = 1

 SCF Done:  E(RB3LYP) =  -423.205202539     A.U. after   14 cycles
 Optimization completed.
    -- Stationary point found.
 Normal termination of Gaussian 09 at Tue Jan 28 03:15:58 2020.

 ----------------------------------------------------------------------
 #N Geom=AllCheck Guess=TCheck SCRF=Check GenChk RB3LYP/6-31G(2df,p) Fr
 eq
 ----------------------------------------------------------------------

 Structure from the checkpoint file:  "/scratch/puck/g09_1843ed2c-1019-485b-be8f-1bdde589c7bf/Gau-1138.chk"
 -----
 titel
 -----
 Charge =  0 Multiplicity = 1

                         Standard orientation:
 ---------------------------------------------------------------------
 Center     Atomic      Atomic             Coordinates (Angstroms)
 Number     Number       Type             X           Y           Z
 ---------------------------------------------------------------------
      1          8           0       -2.581494    0.118555   -0.044512
      2          6           0       -1.285352    0.303516   -0.582209
      3          6           0       -0.551385   -1.041921   -0.852063
      4          6           0        0.429751   -1.165678    0.346648
      5          6           0        1.874345   -0.804396   -0.030827
      6          6           0        1.957831    0.661258   -0.380593
      7          6           0        0.926838    1.476998   -0.163316
      8          6           0       -0.338936    0.940492    0.459905
      9          8           0       -0.046960   -0.190996    1.292311
     10          1           0       -2.458444   -0.309326    0.812212
     11          1           0       -1.409938    0.907385   -1.483531
     12          1           0       -1.287000   -1.848565   -0.870360
     13          1           0       -0.027516   -1.039547   -1.810652
     14          1           0        0.383328   -2.139964    0.838062
     15          1           0        2.554501   -1.036331    0.799675
     16          1           0        2.202830   -1.421164   -0.878065
     17          1           0        2.884303    1.031836   -0.811183
     18          1           0        0.958258    2.527554   -0.436038
     19          1           0       -0.851240    1.686037    1.072208
 ---------------------------------------------------------------------

 SCF Done:  E(RB3LYP) =  -423.205202539     A.U. after    1 cycles

 The electronic state is 1-A.
 Alpha  occ. eigenvalues --  -19.14055 -19.13100 -10.23376 -10.23109 -10.22953
 Alpha  occ. eigenvalues --  -10.18876 -10.18830 -10.18219 -10.18054  -1.04714
 Alpha  occ. eigenvalues --   -1.00875  -0.80714  -0.76718  -0.75287  -0.65276
 Alpha  occ. eigenvalues --   -0.61492  -0.59226  -0.52963  -0.52013  -0.48595
 Alpha  occ. eigenvalues --   -0.46111  -0.45506  -0.43256  -0.40946  -0.40607
 Alpha  occ. eigenvalues --   -0.38760  -0.36902  -0.35614  -0.35119  -0.32374
 Alpha  occ. eigenvalues --   -0.31578  -0.28081  -0.24851  -0.24327
 Alpha virt. eigenvalues --    0.01259   0.08117   0.10531   0.11414   0.12731
 Alpha virt. eigenvalues --    0.13480   0.14290   0.15184   0.16513   0.17016
 Alpha virt. eigenvalues --    0.17959   0.18280   0.19474   0.21036   0.23552

 Mulliken charges:
               1
     1  O   -0.445205
     2  C    0.165422
     3  C   -0.281186
     4  C    0.084321
     5  C   -0.258962
     6  C   -0.063651
     7  C   -0.064301
     8  C   -0.014879
     9  O   -0.278481
    10  H    0.281733
    11  H    0.086857
    12  H    0.111286
    13  H    0.107329
    14  H    0.078912
    15  H    0.114369
    16  H    0.105660
    17  H    0.092469
    18  H    0.093160
    19  H    0.085148
 Sum of Mulliken charges =   0.00000

 Dipole moment (field-independent basis, Debye):
    X=              1.5832    Y=             -0.5040    Z=             -0.7218  Tot=              1.8115
 Quadrupole moment (field-independent basis, Debye-Ang):
   XX=            -56.6582   YY=            -49.2865   ZZ=            -54.4234
   XY=              0.3256   XZ=             -2.9405   YZ=             -0.6541

  Exact polarizability:  85.332  -4.578  77.550  -3.602  -0.938  61.037
 Approx polarizability: 122.821 -13.584 115.689  -7.079  -0.863  97.663

                      1                      2                      3
                      A                      A                      A
 Frequencies --    118.4073               229.1739               295.5561
 Red. masses --      3.5241                 2.4987                 3.1724
 Frc consts  --      0.0291                 0.0773                 0.1633
 IR Inten    --      3.5713                 0.7259                 0.0779

                      4                      5                      6
                      A                      A                      A
 Frequencies --    334.1662               420.6211               457.5869
 Red. masses --      4.2309                 1.6047                 1.5241
 Frc consts  --      0.2784                 0.1673                 0.1880
 IR Inten    --      4.0284                 8.0148                56.0600

                      7                      8                      9
                      A                      A                      A
 Frequencies --    471.8908               490.7090               573.4986
 Red. masses --      4.1686                 2.4085                 3.7097
 Frc consts  --      0.5469                 0.3417                 0.7189
 IR Inten    --     22.6297                 7.7218                 0.4502

                     10                     11                     12
                      A                      A                      A
 Frequencies --    685.5897               706.4515               788.9689
 Red. masses --      2.5062                 2.1800                 3.9465
 Frc consts  --      0.6941                 0.6410                 1.4474
 IR Inten    --      0.5943                32.1215                 6.4260

                     13                     14                     15
                      A                      A                      A
 Frequencies --    821.5426               846.6304               867.5524
 Red. masses --      2.9459                 2.9167                 3.2675
 Frc consts  --      1.1715                 1.2318                 1.4490
 IR Inten    --      2.0808                 9.5226                25.6870

                     16                     17                     18
                      A                      A                      A
 Frequencies --    902.0342               925.9541               951.3767
 Red. masses --      2.4638                 2.4324                 2.5732
 Frc consts  --      1.1811                 1.2287                 1.3722
 IR Inten    --      6.1615                 4.4782                17.3090

                     19                     20                     21
                      A                      A                      A
 Frequencies --    980.7153               992.5807              1024.7626
 Red. masses --      2.3332                 1.2991                 2.4390
 Frc consts  --      1.3222                 0.7541                 1.5091
 IR Inten    --      6.1296                 1.3816                12.0149

                     22                     23                     24
                      A                      A                      A
 Frequencies --   1031.1731              1050.8801              1061.9004
 Red. masses --      2.7858                 3.0514                 1.9794
 Frc consts  --      1.7453                 1.9855                 1.3151
 IR Inten    --      5.7164                53.4139                 1.2578

                     25                     26                     27
                      A                      A                      A
 Frequencies --   1083.5112              1163.0472              1183.6933
 Red. masses --      2.3221                 1.1923                 1.1583
 Frc consts  --      1.6062                 0.9502                 0.9562
 IR Inten    --     90.8984                35.9548                 5.6591

                     28                     29                     30
                      A                      A                      A
 Frequencies --   1208.5706              1222.5337              1250.2383
 Red. masses --      1.1097                 1.4704                 1.3556
 Frc consts  --      0.9550                 1.2948                 1.2484
 IR Inten    --      5.0108                 7.2028                10.2257

                     31                     32                     33
                      A                      A                      A
 Frequencies --   1294.0749              1303.9009              1324.2731
 Red. masses --      1.5230                 1.3536                 1.4515
 Frc consts  --      1.5027                 1.3559                 1.4998
 IR Inten    --      2.0913                 1.6487                 0.3919

                     34                     35                     36
                      A                      A                      A
 Frequencies --   1339.4891              1361.0853              1386.6226
 Red. masses --      1.5721                 1.4498                 1.4445
 Frc consts  --      1.6619                 1.5825                 1.6364
 IR Inten    --     10.6228                 3.6744                13.6354

                     37                     38                     39
                      A                      A                      A
 Frequencies --   1410.3468              1433.3066              1466.7284
 Red. masses --      1.5782                 1.2318                 1.0964
 Frc consts  --      1.8496                 1.4910                 1.3897
 IR Inten    --      0.5951                68.6248                 1.7472

                     40                     41                     42
                      A                      A                      A
 Frequencies --   1487.2231              1710.2594              3014.7530
 Red. masses --      1.0927                 6.5009                 1.0597
 Frc consts  --      1.4240                11.2033                 5.6749
 IR Inten    --      7.9282                 2.0027                28.0312

                     43                     44                     45
                      A                      A                      A
 Frequencies --   3044.0868              3071.9770              3085.3547
 Red. masses --      1.1010                 1.0623                 1.0869
 Frc consts  --      6.0112                 5.9064                 6.0961
 IR Inten    --     17.3616                13.9244                52.5010

                     46                     47                     48
                      A                      A                      A
 Frequencies --   3092.1394              3099.2198              3123.9073
 Red. masses --      1.0870                 1.0878                 1.1055
 Frc consts  --      6.1235                 6.1563                 6.3563
 IR Inten    --     21.8912                15.3258                21.6645

                     49                     50                     51
                      A                      A                      A
 Frequencies --   3155.2738              3181.1103              3777.3205
 Red. masses --      1.0847                 1.0981                 1.0653
 Frc consts  --      6.3626                 6.5471                 8.9553
 IR Inten    --      9.3623                24.2622                19.6355

 - Thermochemistry -
 -------------------
 Temperature   298.150 Kelvin.  Pressure   1.00000 Atm.
 Atom     1 has atomic number  8 and mass  15.99491

 Molecular mass:   126.06808 amu.
 Principal axes and moments of inertia in atomic units:
                           1         2         3
     Eigenvalues --   575.594571143.167661314.63200
           X            0.99994  -0.00479  -0.00981
           Y            0.00488   0.99995   0.00889
           Z            0.00977  -0.00894   0.99991
 This molecule is an asymmetric top.
 Rotational symmetry number  1.
 Warning -- assumption of classical behavior for rotation
           may cause significant error
 Rotational temperatures (Kelvin)      0.15048     0.07577     0.06588
 Rotational constants (GHZ):           3.13544     1.57872     1.37281
 Zero-point vibrational energy     426491.3 (Joules/Mol)
                                  101.93386 (Kcal/Mol)
 Warning -- explicit consideration of   9 degrees of freedom as
           vibrations may cause significant error
 Vibrational temperatures:    170.36   329.73   425.24   480.79   605.18
          (Kelvin)            658.36   678.94   706.02   825.14   986.41
                             1016.42  1135.15  1182.02  1218.11  1248.21
                             1297.82  1332.24  1368.82  1411.03  1428.10
                             1474.40  1483.63  1511.98  1527.84  1558.93
                             1673.36  1703.07  1738.86  1758.95  1798.81
                             1861.88  1876.02  1905.33  1927.22  1958.30
                             1995.04  2029.17  2062.21  2110.29  2139.78
                             2460.68  4337.55  4379.76  4419.88  4439.13
                             4448.89  4459.08  4494.60  4539.73  4576.90
                             5434.71

 Zero-point correction=                           0.162442 (Hartree/Particle)
 Thermal correction to Energy=                    0.169549
 Thermal correction to Enthalpy=                  0.170493
 Thermal correction to Gibbs Free Energy=         0.131221
 Sum of electronic and zero-point Energies=           -423.042761
 Sum of electronic and thermal Energies=              -423.035654
 Sum of electronic and thermal Enthalpies=            -423.034709
 Sum of electronic and thermal Free Energies=         -423.073982

                     E (Thermal)             CV                S
                      KCal/Mol        Cal/Mol-Kelvin    Cal/Mol-Kelvin
 Total                  106.394             29.514             82.655
 Electronic               0.000              0.000              0.000
 Translational            0.889              2.981             40.409
 Rotational               0.889              2.981             28.250
 Vibrational            104.616             23.553             13.997
 Vibration     1          0.609              1.934              3.126
 Vibration     2          0.652              1.796              1.885
 Vibration     3          0.690              1.682              1.442
 Vibration     4          0.716              1.607              1.240
 Vibration     5          0.783              1.425              0.890
 Vibration     6          0.816              1.344              0.773
 Vibration     7          0.829              1.312              0.732
 Vibration     8          0.847              1.271              0.682
 Vibration     9          0.930              1.089              0.498

 Optimization completed.
    -- Stationary point found.
 Normal termination of Gaussian 09 at Tue Jan 28 04:02:32 2020.
