 Gaussian 09, Revision D.01,
 Gaussian 09:  ES64L-G09RevD.01 24-Apr-2013

 -----------------------------
 # b3lyp 6-31G(2df,p) opt Freq
 -----------------------------

 -----
 titel
 -----
 Symbolic Z-matrix:
 Charge =  0 Multiplicity = 1

 SCF Done:  E(RB3LYP) =  -423.128122777     A.U. after   13 cycles
 Optimization completed.
    -- Stationary point found.
 Normal termination of Gaussian 09 at Mon Jan 27 12:17:07 2020.

 ----------------------------------------------------------------------
 #N Geom=AllCheck Guess=TCheck SCRF=Check GenChk RB3LYP/6-31G(2df,p) Fr
 eq
 ----------------------------------------------------------------------

 Structure from the checkpoint file:  "/scratch/puck/g09_02bccd32-1092-4db4-ba37-96c8d8af3ff1/Gau-166946.chk"
 -----
 titel
 -----
 Charge =  0 Multiplicity = 1

                         Standard orientation:
 ---------------------------------------------------------------------
 Center     Atomic      Atomic             Coordinates (Angstroms)
 Number     Number       Type             X           Y           Z
 ---------------------------------------------------------------------
      1          6           0        2.099224   -0.426549   -0.411389
      2          8           0        1.824342    0.882682    0.193191
      3          6           0        0.438833    0.549855    0.206331
      4          6           0       -0.009767   -0.462036    1.319134
      5          6           0       -0.453660   -1.342116    0.122608
      6          6           0       -1.785816   -0.715266   -0.369587
      7          8           0       -1.886944    0.689487   -0.095239
      8          6           0       -0.690871    1.481589   -0.146693
      9          6           0        0.600646   -0.637652   -0.758243
     10          1           0        2.762190   -0.323358   -1.274472
     11          1           0        2.546432   -1.119772    0.309854
     12          1           0        0.848366   -0.859701    1.861080
     13          1           0       -0.781606   -0.140338    2.019568
     14          1           0       -0.521013   -2.430315    0.211338
     15          1           0       -1.916194   -0.907227   -1.446243
     16          1           0       -2.634548   -1.161949    0.158668
     17          1           0       -0.538408    1.917117   -1.145531
     18          1           0       -0.836394    2.295900    0.572410
     19          1           0        0.380459   -0.534653   -1.823254
 ---------------------------------------------------------------------

 SCF Done:  E(RB3LYP) =  -423.128122777     A.U. after    1 cycles

 The electronic state is 1-A.
 Alpha  occ. eigenvalues --  -19.14109 -19.13849 -10.23894 -10.23851 -10.23341
 Alpha  occ. eigenvalues --  -10.23116 -10.20175 -10.18800 -10.18056  -1.04809
 Alpha  occ. eigenvalues --   -1.02501  -0.84514  -0.75429  -0.71235  -0.66318
 Alpha  occ. eigenvalues --   -0.62366  -0.59648  -0.52179  -0.50972  -0.48779
 Alpha  occ. eigenvalues --   -0.47034  -0.46657  -0.45029  -0.41911  -0.40268
 Alpha  occ. eigenvalues --   -0.39766  -0.37084  -0.35909  -0.34740  -0.32427
 Alpha  occ. eigenvalues --   -0.29021  -0.26831  -0.25622  -0.24563
 Alpha virt. eigenvalues --    0.06784   0.09177   0.09507   0.11060   0.12367
 Alpha virt. eigenvalues --    0.13368   0.14696   0.15247   0.15628   0.16910
 Alpha virt. eigenvalues --    0.17250   0.17889   0.18840   0.20680   0.21918

 Mulliken charges:
               1
     1  C   -0.155802
     2  O   -0.356919
     3  C    0.451133
     4  C   -0.292755
     5  C   -0.085185
     6  C   -0.058109
     7  O   -0.276649
     8  C   -0.150434
     9  C   -0.072966
    10  H    0.115383
    11  H    0.109243
    12  H    0.107447
    13  H    0.108732
    14  H    0.065432
    15  H    0.093494
    16  H    0.110136
    17  H    0.097819
    18  H    0.112858
    19  H    0.077141
 Sum of Mulliken charges =   0.00000

 Dipole moment (field-independent basis, Debye):
    X=              0.1505    Y=             -1.7684    Z=             -0.6141  Tot=              1.8781
 Quadrupole moment (field-independent basis, Debye-Ang):
   XX=            -56.9624   YY=            -52.6625   ZZ=            -51.7683
   XY=             -1.1337   XZ=             -1.4117   YZ=             -0.3089

  Exact polarizability:  80.780   0.336  72.316  -2.259  -0.384  68.493
 Approx polarizability: 112.121   1.788 108.678  -3.464   1.679 103.983

                      1                      2                      3
                      A                      A                      A
 Frequencies --    181.4586               274.2993               297.0336
 Red. masses --      3.3387                 2.3829                 2.1250
 Frc consts  --      0.0648                 0.1056                 0.1105
 IR Inten    --      3.4021                 6.1031                 0.4160

                      4                      5                      6
                      A                      A                      A
 Frequencies --    337.9965               410.8738               450.1495
 Red. masses --      3.8227                 2.5061                 2.6210
 Frc consts  --      0.2573                 0.2493                 0.3129
 IR Inten    --      4.7374                 2.4716                 0.3237

                      7                      8                      9
                      A                      A                      A
 Frequencies --    467.8706               576.4738               652.8284
 Red. masses --      4.3585                 4.5277                 2.9950
 Frc consts  --      0.5621                 0.8865                 0.7521
 IR Inten    --      1.5736                 1.0035                 3.5547

                     10                     11                     12
                      A                      A                      A
 Frequencies --    784.2980               792.8265               819.6730
 Red. masses --      3.7313                 2.3092                 3.1072
 Frc consts  --      1.3523                 0.8552                 1.2300
 IR Inten    --      8.7105                 2.2524                 1.7644

                     13                     14                     15
                      A                      A                      A
 Frequencies --    875.0441               882.6548               901.0345
 Red. masses --      2.2038                 2.3075                 3.2587
 Frc consts  --      0.9942                 1.0592                 1.5587
 IR Inten    --     18.7016                10.1773                10.1499

                     16                     17                     18
                      A                      A                      A
 Frequencies --    937.0765               948.6073               963.7322
 Red. masses --      2.1786                 2.9718                 2.8788
 Frc consts  --      1.1272                 1.5756                 1.5753
 IR Inten    --     15.5192                24.8958                20.7179

                     19                     20                     21
                      A                      A                      A
 Frequencies --   1019.2567              1039.7595              1051.8786
 Red. masses --      1.5078                 2.1001                 2.5654
 Frc consts  --      0.9229                 1.3377                 1.6724
 IR Inten    --      4.2254                14.0918                59.6434

                     22                     23                     24
                      A                      A                      A
 Frequencies --   1089.7015              1106.7610              1125.7580
 Red. masses --      1.5478                 2.0528                 2.5968
 Frc consts  --      1.0829                 1.4815                 1.9390
 IR Inten    --      3.5016                 3.7315                38.2041

                     25                     26                     27
                      A                      A                      A
 Frequencies --   1141.1231              1152.3218              1173.4638
 Red. masses --      1.6065                 1.9390                 1.6215
 Frc consts  --      1.2325                 1.5170                 1.3155
 IR Inten    --     11.2484                23.3278                17.5352

                     28                     29                     30
                      A                      A                      A
 Frequencies --   1208.9908              1234.6743              1240.9724
 Red. masses --      1.6449                 1.2656                 1.3044
 Frc consts  --      1.4166                 1.1367                 1.1835
 IR Inten    --      9.1051                 4.2070                 1.9611

                     31                     32                     33
                      A                      A                      A
 Frequencies --   1279.1944              1296.2704              1317.3997
 Red. masses --      1.4147                 1.4569                 1.6555
 Frc consts  --      1.3639                 1.4424                 1.6928
 IR Inten    --      0.9328                 8.8296                10.2671

                     34                     35                     36
                      A                      A                      A
 Frequencies --   1334.5605              1352.4342              1377.2125
 Red. masses --      1.7431                 1.6634                 1.5259
 Frc consts  --      1.8291                 1.7926                 1.7052
 IR Inten    --      7.4718                 4.5147                 5.8338

                     37                     38                     39
                      A                      A                      A
 Frequencies --   1406.9125              1489.9361              1509.0234
 Red. masses --      1.4036                 1.1260                 1.0856
 Frc consts  --      1.6369                 1.4727                 1.4565
 IR Inten    --      1.1170                 4.1418                 0.2354

                     40                     41                     42
                      A                      A                      A
 Frequencies --   1515.2717              1516.4621              2980.1627
 Red. masses --      1.1071                 1.0977                 1.0687
 Frc consts  --      1.4977                 1.4873                 5.5922
 IR Inten    --      1.9126                 1.3475                66.5257

                     43                     44                     45
                      A                      A                      A
 Frequencies --   2993.7886              3034.9488              3059.4467
 Red. masses --      1.0653                 1.0592                 1.0878
 Frc consts  --      5.6253                 5.7483                 5.9992
 IR Inten    --     65.5520                56.6261                26.0881

                     46                     47                     48
                      A                      A                      A
 Frequencies --   3060.2877              3071.9836              3075.8256
 Red. masses --      1.0984                 1.0915                 1.0888
 Frc consts  --      6.0609                 6.0690                 6.0690
 IR Inten    --     33.6894                54.4324                26.7784

                     49                     50                     51
                      A                      A                      A
 Frequencies --   3088.1296              3098.3169              3147.8165
 Red. masses --      1.0616                 1.1051                 1.1095
 Frc consts  --      5.9650                 6.2501                 6.4772
 IR Inten    --     18.9612                50.9121                16.3704

 - Thermochemistry -
 -------------------
 Temperature   298.150 Kelvin.  Pressure   1.00000 Atm.
 Atom     1 has atomic number  6 and mass  12.00000

 Molecular mass:   126.06808 amu.
 Principal axes and moments of inertia in atomic units:
                           1         2         3
     Eigenvalues --   559.044121048.105681252.68392
           X            0.99993  -0.01054  -0.00516
           Y            0.01044   0.99977  -0.01886
           Z            0.00536   0.01880   0.99981
 This molecule is an asymmetric top.
 Rotational symmetry number  1.
 Warning -- assumption of classical behavior for rotation
           may cause significant error
 Rotational temperatures (Kelvin)      0.15493     0.08264     0.06914
 Rotational constants (GHZ):           3.22826     1.72191     1.44070
 Zero-point vibrational energy     425535.5 (Joules/Mol)
                                  101.70542 (Kcal/Mol)
 Warning -- explicit consideration of   8 degrees of freedom as
           vibrations may cause significant error
 Vibrational temperatures:    261.08   394.65   427.36   486.30   591.16
          (Kelvin)            647.66   673.16   829.42   939.27  1128.43
                             1140.70  1179.33  1258.99  1269.94  1296.39
                             1348.24  1364.83  1386.59  1466.48  1495.98
                             1513.42  1567.84  1592.38  1619.71  1641.82
                             1657.93  1688.35  1739.47  1776.42  1785.48
                             1840.47  1865.04  1895.44  1920.13  1945.85
                             1981.50  2024.23  2143.68  2171.15  2180.14
                             2181.85  4287.78  4307.39  4366.61  4401.86
                             4403.07  4419.89  4425.42  4443.12  4457.78
                             4529.00

 Zero-point correction=                           0.162078 (Hartree/Particle)
 Thermal correction to Energy=                    0.168773
 Thermal correction to Enthalpy=                  0.169717
 Thermal correction to Gibbs Free Energy=         0.131393
 Sum of electronic and zero-point Energies=           -422.966045
 Sum of electronic and thermal Energies=              -422.959350
 Sum of electronic and thermal Enthalpies=            -422.958405
 Sum of electronic and thermal Free Energies=         -422.996730

                     E (Thermal)             CV                S
                      KCal/Mol        Cal/Mol-Kelvin    Cal/Mol-Kelvin
 Total                  105.907             28.105             80.661
 Electronic               0.000              0.000              0.000
 Translational            0.889              2.981             40.409
 Rotational               0.889              2.981             28.086
 Vibrational            104.129             22.144             12.166
 Vibration     1          0.630              1.865              2.313
 Vibration     2          0.677              1.721              1.569
 Vibration     3          0.691              1.679              1.434
 Vibration     4          0.718              1.600              1.222
 Vibration     5          0.775              1.447              0.924
 Vibration     6          0.809              1.361              0.795
 Vibration     7          0.825              1.321              0.744
 Vibration     8          0.933              1.082              0.492

 Optimization completed.
    -- Stationary point found.
 Normal termination of Gaussian 09 at Mon Jan 27 13:05:58 2020.
