 Gaussian 09, Revision D.01,
 Gaussian 09:  ES64L-G09RevD.01 24-Apr-2013

 -----------------------------
 # b3lyp 6-31G(2df,p) opt Freq
 -----------------------------

 -----
 titel
 -----
 Symbolic Z-matrix:
 Charge =  0 Multiplicity = 1

 SCF Done:  E(RB3LYP) =  -423.221148471     A.U. after   14 cycles
 Optimization completed.
    -- Stationary point found.
 Normal termination of Gaussian 09 at Mon Jan 27 23:59:30 2020.

 ----------------------------------------------------------------------
 #N Geom=AllCheck Guess=TCheck SCRF=Check GenChk RB3LYP/6-31G(2df,p) Fr
 eq
 ----------------------------------------------------------------------

 Structure from the checkpoint file:  "/scratch/puck/g09_39d545ed-48ff-4dc4-99b4-dd386c1d3c22/Gau-163933.chk"
 -----
 titel
 -----
 Charge =  0 Multiplicity = 1

                         Standard orientation:
 ---------------------------------------------------------------------
 Center     Atomic      Atomic             Coordinates (Angstroms)
 Number     Number       Type             X           Y           Z
 ---------------------------------------------------------------------
      1          6           0        1.941380   -1.202744   -0.300249
      2          6           0        0.924369   -0.475360    0.575628
      3          6           0       -0.513072   -1.042122    0.606657
      4          6           0       -1.319617    0.132717    1.183254
      5          6           0       -0.893810    1.082294    0.040547
      6          6           0       -1.289369    0.200606   -1.170335
      7          8           0       -0.997550   -1.141598   -0.743608
      8          6           0        0.632436    0.970666    0.111036
      9          8           0        1.445001    1.811523   -0.171863
     10          1           0        1.517994   -1.405342   -1.287413
     11          1           0        2.836636   -0.587299   -0.422282
     12          1           0        2.234772   -2.157948    0.145495
     13          1           0        1.301409   -0.412492    1.606525
     14          1           0       -0.626211   -2.016597    1.082163
     15          1           0       -2.394373   -0.062096    1.205230
     16          1           0       -0.982912    0.455449    2.171510
     17          1           0       -1.278555    2.099909    0.013297
     18          1           0       -2.360115    0.294570   -1.392497
     19          1           0       -0.722152    0.436108   -2.077487
 ---------------------------------------------------------------------

 SCF Done:  E(RB3LYP) =  -423.221148471     A.U. after    1 cycles

 The electronic state is 1-A.
 Alpha  occ. eigenvalues --  -19.14481 -19.13299 -10.26692 -10.24153 -10.24071
 Alpha  occ. eigenvalues --  -10.20357 -10.19879 -10.19542 -10.17743  -1.04959
 Alpha  occ. eigenvalues --   -1.03786  -0.83803  -0.77719  -0.73037  -0.65770
 Alpha  occ. eigenvalues --   -0.61693  -0.59183  -0.52738  -0.50946  -0.48966
 Alpha  occ. eigenvalues --   -0.47044  -0.43979  -0.42835  -0.41492  -0.40191
 Alpha  occ. eigenvalues --   -0.38846  -0.37654  -0.36629  -0.36359  -0.35553
 Alpha  occ. eigenvalues --   -0.35067  -0.31375  -0.25573  -0.23783
 Alpha virt. eigenvalues --   -0.01634   0.08508   0.10371   0.12105   0.12502
 Alpha virt. eigenvalues --    0.13179   0.14774   0.15499   0.15808   0.17104
 Alpha virt. eigenvalues --    0.17752   0.18330   0.18829   0.20404   0.21403

 Mulliken charges:
               1
     1  C   -0.416205
     2  C   -0.093923
     3  C    0.088221
     4  C   -0.252482
     5  C   -0.155684
     6  C   -0.087790
     7  O   -0.276681
     8  C    0.423812
     9  O   -0.338667
    10  H    0.135062
    11  H    0.136406
    12  H    0.114069
    13  H    0.100539
    14  H    0.081800
    15  H    0.113129
    16  H    0.110057
    17  H    0.090335
    18  H    0.108649
    19  H    0.119354
 Sum of Mulliken charges =   0.00000

 Dipole moment (field-independent basis, Debye):
    X=             -1.6867    Y=             -0.8027    Z=              1.3657  Tot=              2.3140
 Quadrupole moment (field-independent basis, Debye-Ang):
   XX=            -54.2776   YY=            -58.1801   ZZ=            -50.7615
   XY=             -6.4569   XZ=              0.4231   YZ=             -1.7437

  Exact polarizability:  80.227  -1.959  73.194   0.065  -3.402  68.464
 Approx polarizability: 112.661   5.441 112.056   0.478  -5.238 103.910

                      1                      2                      3
                      A                      A                      A
 Frequencies --    103.7229               193.3372               210.2327
 Red. masses --      4.4982                 1.0216                 3.0318
 Frc consts  --      0.0285                 0.0225                 0.0789
 IR Inten    --      4.2023                 0.5424                 1.0550

                      4                      5                      6
                      A                      A                      A
 Frequencies --    234.3997               273.8202               431.5166
 Red. masses --      3.3097                 3.2025                 2.6641
 Frc consts  --      0.1071                 0.1415                 0.2923
 IR Inten    --      1.1681                 7.9809                 0.3841

                      7                      8                      9
                      A                      A                      A
 Frequencies --    460.2338               494.0214               566.5919
 Red. masses --      2.8146                 4.0200                 4.2938
 Frc consts  --      0.3513                 0.5781                 0.8121
 IR Inten    --      4.2088                 2.4032                 6.3271

                     10                     11                     12
                      A                      A                      A
 Frequencies --    653.4982               713.5612               771.4503
 Red. masses --      3.9332                 4.9889                 3.7595
 Frc consts  --      0.9896                 1.4966                 1.3182
 IR Inten    --      0.9818                 0.9434                 5.5210

                     13                     14                     15
                      A                      A                      A
 Frequencies --    823.2977               864.8100               897.3752
 Red. masses --      2.7605                 2.5100                 2.4385
 Frc consts  --      1.1024                 1.1060                 1.1569
 IR Inten    --     14.3775                 6.1582                13.4157

                     16                     17                     18
                      A                      A                      A
 Frequencies --    905.0359               930.3257               955.3079
 Red. masses --      2.1773                 3.1684                 2.4079
 Frc consts  --      1.0508                 1.6157                 1.2947
 IR Inten    --     17.0839                 5.3921                11.0045

                     19                     20                     21
                      A                      A                      A
 Frequencies --    967.7348               996.9746              1029.3466
 Red. masses --      2.0585                 1.3546                 1.7402
 Frc consts  --      1.1358                 0.7933                 1.0864
 IR Inten    --     10.2107                 6.4136                15.5801

                     22                     23                     24
                      A                      A                      A
 Frequencies --   1058.8368              1079.0621              1111.9188
 Red. masses --      1.7062                 2.0664                 1.8497
 Frc consts  --      1.1270                 1.4176                 1.3474
 IR Inten    --      5.7584                38.8924                11.7331

                     25                     26                     27
                      A                      A                      A
 Frequencies --   1150.4549              1161.7466              1176.9824
 Red. masses --      1.4485                 2.1048                 1.5062
 Frc consts  --      1.1295                 1.6737                 1.2293
 IR Inten    --      1.0167                33.2837                14.2955

                     28                     29                     30
                      A                      A                      A
 Frequencies --   1208.1257              1253.8861              1270.1173
 Red. masses --      1.4921                 1.8657                 1.6052
 Frc consts  --      1.2831                 1.7283                 1.5257
 IR Inten    --      5.6417                 4.3644                 9.3352

                     31                     32                     33
                      A                      A                      A
 Frequencies --   1279.9224              1303.4946              1322.3149
 Red. masses --      1.3399                 1.6637                 1.3667
 Frc consts  --      1.2933                 1.6655                 1.4080
 IR Inten    --      5.3269                 2.4531                 0.5679

                     34                     35                     36
                      A                      A                      A
 Frequencies --   1344.4206              1379.9326              1401.2907
 Red. masses --      1.7098                 1.3817                 1.2252
 Frc consts  --      1.8208                 1.5501                 1.4175
 IR Inten    --     12.8572                 3.0517                 5.5779

                     37                     38                     39
                      A                      A                      A
 Frequencies --   1493.2583              1494.2601              1504.3076
 Red. masses --      1.0605                 1.0871                 1.0531
 Frc consts  --      1.3933                 1.4301                 1.4041
 IR Inten    --      4.2823                 5.9496                 3.6166

                     40                     41                     42
                      A                      A                      A
 Frequencies --   1528.6728              1854.1362              3012.4464
 Red. masses --      1.0878                12.3541                 1.0805
 Frc consts  --      1.4977                25.0233                 5.7773
 IR Inten    --      0.0251               200.9105                20.5272

                     43                     44                     45
                      A                      A                      A
 Frequencies --   3016.3159              3045.1427              3065.9070
 Red. masses --      1.0617                 1.0348                 1.1044
 Frc consts  --      5.6913                 5.6534                 6.1166
 IR Inten    --     51.0360                24.0848                20.2940

                     46                     47                     48
                      A                      A                      A
 Frequencies --   3068.5483              3114.7044              3118.7962
 Red. masses --      1.0589                 1.1010                 1.0902
 Frc consts  --      5.8745                 6.2930                 6.2481
 IR Inten    --     25.0334                 9.4257                39.2802

                     49                     50                     51
                      A                      A                      A
 Frequencies --   3123.6501              3128.7606              3144.4880
 Red. masses --      1.1085                 1.1021                 1.0898
 Frc consts  --      6.3724                 6.3567                 6.3486
 IR Inten    --     14.7384                14.5208                12.4643

 - Thermochemistry -
 -------------------
 Temperature   298.150 Kelvin.  Pressure   1.00000 Atm.
 Atom     1 has atomic number  6 and mass  12.00000

 Molecular mass:   126.06808 amu.
 Principal axes and moments of inertia in atomic units:
                           1         2         3
     Eigenvalues --   771.97750 958.603741228.37420
           X            0.97265  -0.23197  -0.01160
           Y            0.23175   0.97262  -0.01726
           Z            0.01528   0.01410   0.99978
 This molecule is an asymmetric top.
 Rotational symmetry number  1.
 Warning -- assumption of classical behavior for rotation
           may cause significant error
 Rotational temperatures (Kelvin)      0.11220     0.09035     0.07051
 Rotational constants (GHZ):           2.33782     1.88268     1.46921
 Zero-point vibrational energy     422835.0 (Joules/Mol)
                                  101.06000 (Kcal/Mol)
 Warning -- explicit consideration of   9 degrees of freedom as
           vibrations may cause significant error
 Vibrational temperatures:    149.23   278.17   302.48   337.25   393.97
          (Kelvin)            620.86   662.17   710.79   815.20   940.24
                             1026.65  1109.94  1184.54  1244.27  1291.12
                             1302.14  1338.53  1374.47  1392.35  1434.42
                             1481.00  1523.43  1552.53  1599.80  1655.25
                             1671.49  1693.41  1738.22  1804.06  1827.41
                             1841.52  1875.44  1902.51  1934.32  1985.41
                             2016.14  2148.46  2149.90  2164.36  2199.42
                             2667.69  4334.23  4339.80  4381.28  4411.15
                             4414.95  4481.36  4487.25  4494.23  4501.58
                             4524.21

 Zero-point correction=                           0.161049 (Hartree/Particle)
 Thermal correction to Energy=                    0.168663
 Thermal correction to Enthalpy=                  0.169607
 Thermal correction to Gibbs Free Energy=         0.129114
 Sum of electronic and zero-point Energies=           -423.060099
 Sum of electronic and thermal Energies=              -423.052486
 Sum of electronic and thermal Enthalpies=            -423.051542
 Sum of electronic and thermal Free Energies=         -423.092034

                     E (Thermal)             CV                S
                      KCal/Mol        Cal/Mol-Kelvin    Cal/Mol-Kelvin
 Total                  105.837             30.028             85.224
 Electronic               0.000              0.000              0.000
 Translational            0.889              2.981             40.409
 Rotational               0.889              2.981             28.299
 Vibrational            104.060             24.066             16.517
 Vibration     1          0.605              1.946              3.383
 Vibration     2          0.635              1.849              2.196
 Vibration     3          0.642              1.825              2.042
 Vibration     4          0.654              1.788              1.845
 Vibration     5          0.676              1.722              1.572
 Vibration     6          0.793              1.402              0.854
 Vibration     7          0.818              1.338              0.765
 Vibration     8          0.850              1.263              0.673
 Vibration     9          0.923              1.104              0.511

 Optimization completed.
    -- Stationary point found.
 Normal termination of Gaussian 09 at Tue Jan 28 00:37:33 2020.
