 Gaussian 09, Revision D.01,
 Gaussian 09:  ES64L-G09RevD.01 24-Apr-2013

 -----------------------------
 # b3lyp 6-31G(2df,p) opt Freq
 -----------------------------

 -----
 titel
 -----
 Symbolic Z-matrix:
 Charge =  0 Multiplicity = 1

 SCF Done:  E(RB3LYP) =  -423.141302908     A.U. after   14 cycles
 Optimization completed.
    -- Stationary point found.
 Normal termination of Gaussian 09 at Tue Jan 28 01:53:40 2020.

 ----------------------------------------------------------------------
 #N Geom=AllCheck Guess=TCheck SCRF=Check GenChk RB3LYP/6-31G(2df,p) Fr
 eq
 ----------------------------------------------------------------------

 Structure from the checkpoint file:  "/scratch/puck/g09_cde7fcf9-9433-46e6-8b94-ba9170637de4/Gau-38006.chk"
 -----
 titel
 -----
 Charge =  0 Multiplicity = 1

                         Standard orientation:
 ---------------------------------------------------------------------
 Center     Atomic      Atomic             Coordinates (Angstroms)
 Number     Number       Type             X           Y           Z
 ---------------------------------------------------------------------
      1          6           0       -2.576330    0.892815   -0.127881
      2          6           0       -1.645363   -0.066221    0.567570
      3          8           0       -1.349260   -1.303202   -0.132047
      4          6           0       -0.310718   -0.381300    0.072159
      5          6           0        0.617853    0.131268   -1.036559
      6          6           0        1.312171    1.335350   -0.365401
      7          6           0        1.654653    0.640646    0.998827
      8          6           0        1.049751   -0.741970    0.678838
      9          8           0        1.519612   -0.970347   -0.690428
     10          1           0       -3.609451    0.534785   -0.072309
     11          1           0       -2.537215    1.878848    0.347911
     12          1           0       -2.308520    1.001830   -1.181994
     13          1           0       -1.836407   -0.214589    1.632244
     14          1           0        0.340138    0.172310   -2.088608
     15          1           0        2.203380    1.636944   -0.918757
     16          1           0        0.654847    2.202413   -0.258019
     17          1           0        2.729298    0.571173    1.177042
     18          1           0        1.185899    1.122270    1.861256
     19          1           0        1.203113   -1.581115    1.355717
 ---------------------------------------------------------------------

 SCF Done:  E(RB3LYP) =  -423.141302908     A.U. after    1 cycles

 The electronic state is 1-A.
 Alpha  occ. eigenvalues --  -19.15073 -19.13512 -10.24163 -10.24099 -10.23796
 Alpha  occ. eigenvalues --  -10.23721 -10.18979 -10.18953 -10.18920  -1.07993
 Alpha  occ. eigenvalues --   -1.04176  -0.79472  -0.75067  -0.71265  -0.68717
 Alpha  occ. eigenvalues --   -0.61607  -0.57917  -0.53766  -0.52580  -0.49377
 Alpha  occ. eigenvalues --   -0.46982  -0.45002  -0.42996  -0.41377  -0.39848
 Alpha  occ. eigenvalues --   -0.37434  -0.36257  -0.35655  -0.35555  -0.35111
 Alpha  occ. eigenvalues --   -0.33103  -0.29072  -0.25677  -0.25034
 Alpha virt. eigenvalues --    0.08408   0.08739   0.09796   0.11181   0.11612
 Alpha virt. eigenvalues --    0.13326   0.13865   0.15031   0.15207   0.16318
 Alpha virt. eigenvalues --    0.17182   0.17515   0.18344   0.19296   0.21522

 Mulliken charges:
               1
     1  C   -0.417949
     2  C   -0.071682
     3  O   -0.314016
     4  C    0.530452
     5  C   -0.032981
     6  C   -0.223599
     7  C   -0.222554
     8  C   -0.035332
     9  O   -0.302947
    10  H    0.133901
    11  H    0.123421
    12  H    0.127653
    13  H    0.092655
    14  H    0.090818
    15  H    0.113608
    16  H    0.102025
    17  H    0.113430
    18  H    0.101273
    19  H    0.091823
 Sum of Mulliken charges =   0.00000

 Dipole moment (field-independent basis, Debye):
    X=             -0.5836    Y=              2.7000    Z=              1.3315  Tot=              3.0665
 Quadrupole moment (field-independent basis, Debye-Ang):
   XX=            -53.2359   YY=            -56.3541   ZZ=            -50.5891
   XY=             -1.0834   XZ=              0.7668   YZ=             -2.8037

  Exact polarizability:  84.572  -1.690  68.876  -0.100  -2.096  69.747
 Approx polarizability: 112.081  -3.949 106.918  -2.989   1.501 106.478

                      1                      2                      3
                      A                      A                      A
 Frequencies --    126.3770               149.9907               192.6422
 Red. masses --      3.1127                 2.9772                 1.0841
 Frc consts  --      0.0293                 0.0395                 0.0237
 IR Inten    --      0.0118                 0.0946                 0.0936

                      4                      5                      6
                      A                      A                      A
 Frequencies --    240.5907               281.4221               415.7268
 Red. masses --      2.9397                 1.8985                 3.5657
 Frc consts  --      0.1003                 0.0886                 0.3631
 IR Inten    --      1.2311                 0.2193                 3.3633

                      7                      8                      9
                      A                      A                      A
 Frequencies --    427.7258               460.5610               575.4795
 Red. masses --      4.3156                 3.5606                 3.1383
 Frc consts  --      0.4652                 0.4450                 0.6124
 IR Inten    --      1.8844                 5.3248                 2.9385

                     10                     11                     12
                      A                      A                      A
 Frequencies --    615.8675               724.7444               800.2677
 Red. masses --      4.8875                 5.3236                 3.0439
 Frc consts  --      1.0922                 1.6475                 1.1486
 IR Inten    --     23.1664                 0.9604                 3.7199

                     13                     14                     15
                      A                      A                      A
 Frequencies --    833.0948               853.0641               864.7353
 Red. masses --      1.4213                 3.7818                 2.8313
 Frc consts  --      0.5812                 1.6215                 1.2474
 IR Inten    --      0.3383                25.6383                30.9947

                     16                     17                     18
                      A                      A                      A
 Frequencies --    899.0670               910.2766               955.3223
 Red. masses --      2.0395                 2.7096                 2.8724
 Frc consts  --      0.9713                 1.3228                 1.5445
 IR Inten    --      4.5107                 0.5178                19.6095

                     19                     20                     21
                      A                      A                      A
 Frequencies --    963.0666               981.9230              1007.8759
 Red. masses --      2.0747                 3.4578                 1.4819
 Frc consts  --      1.1338                 1.9643                 0.8869
 IR Inten    --     16.0116                14.9151                 6.7090

                     22                     23                     24
                      A                      A                      A
 Frequencies --   1022.3963              1072.0788              1104.5657
 Red. masses --      2.2597                 2.5848                 1.7685
 Frc consts  --      1.3917                 1.7504                 1.2712
 IR Inten    --     20.2599                24.0456                 4.2432

                     25                     26                     27
                      A                      A                      A
 Frequencies --   1126.7682              1137.8660              1183.3079
 Red. masses --      1.6639                 1.9159                 1.5388
 Frc consts  --      1.2446                 1.4615                 1.2695
 IR Inten    --      4.2549                 9.6213                15.1308

                     28                     29                     30
                      A                      A                      A
 Frequencies --   1194.1894              1224.0027              1226.4573
 Red. masses --      1.6497                 1.8232                 1.4034
 Frc consts  --      1.3861                 1.6094                 1.2438
 IR Inten    --      2.6881                 2.1251                 0.1474

                     31                     32                     33
                      A                      A                      A
 Frequencies --   1250.3630              1284.2008              1303.3572
 Red. masses --      1.2908                 1.5148                 1.5059
 Frc consts  --      1.1890                 1.4718                 1.5072
 IR Inten    --      0.0728                10.5231                 0.7169

                     34                     35                     36
                      A                      A                      A
 Frequencies --   1317.0903              1365.5740              1409.4049
 Red. masses --      1.4339                 1.3692                 1.2734
 Frc consts  --      1.4656                 1.5043                 1.4903
 IR Inten    --      2.9013                10.2241                 5.8287

                     37                     38                     39
                      A                      A                      A
 Frequencies --   1476.6671              1479.0972              1492.0662
 Red. masses --      1.0924                 1.0932                 1.0697
 Frc consts  --      1.4034                 1.4090                 1.4031
 IR Inten    --      1.1334                 0.1728                 3.7025

                     40                     41                     42
                      A                      A                      A
 Frequencies --   1498.0809              1553.4127              3036.8838
 Red. masses --      1.1000                 4.6245                 1.0358
 Frc consts  --      1.4544                 6.5749                 5.6285
 IR Inten    --      5.3411                18.1650                16.3368

                     43                     44                     45
                      A                      A                      A
 Frequencies --   3063.5344              3072.1804              3088.8423
 Red. masses --      1.0595                 1.0606                 1.0871
 Frc consts  --      5.8588                 5.8979                 6.1108
 IR Inten    --     24.0604                29.2625                16.9189

                     46                     47                     48
                      A                      A                      A
 Frequencies --   3101.1469              3111.6911              3125.1118
 Red. masses --      1.1006                 1.1063                 1.1010
 Frc consts  --      6.2361                 6.3113                 6.3353
 IR Inten    --     17.6825                 0.2053                23.1136

                     49                     50                     51
                      A                      A                      A
 Frequencies --   3128.0079              3138.8586              3142.2771
 Red. masses --      1.1059                 1.0891                 1.0944
 Frc consts  --      6.3752                 6.3222                 6.3668
 IR Inten    --     34.2870                52.9242                 6.6221

 - Thermochemistry -
 -------------------
 Temperature   298.150 Kelvin.  Pressure   1.00000 Atm.
 Atom     1 has atomic number  6 and mass  12.00000

 Molecular mass:   126.06808 amu.
 Principal axes and moments of inertia in atomic units:
                           1         2         3
     Eigenvalues --   582.589781267.720631421.30302
           X            0.99982  -0.01257   0.01428
           Y            0.01342   0.99802  -0.06144
           Z           -0.01348   0.06163   0.99801
 This molecule is an asymmetric top.
 Rotational symmetry number  1.
 Warning -- assumption of classical behavior for rotation
           may cause significant error
 Rotational temperatures (Kelvin)      0.14867     0.06832     0.06094
 Rotational constants (GHZ):           3.09779     1.42361     1.26978
 Zero-point vibrational energy     418748.6 (Joules/Mol)
                                  100.08332 (Kcal/Mol)
 Warning -- explicit consideration of  10 degrees of freedom as
           vibrations may cause significant error
 Vibrational temperatures:    181.83   215.80   277.17   346.16   404.90
          (Kelvin)            598.14   615.40   662.64   827.99   886.09
                             1042.74  1151.41  1198.64  1227.37  1244.16
                             1293.56  1309.68  1374.49  1385.64  1412.77
                             1450.11  1471.00  1542.48  1589.22  1621.17
                             1637.13  1702.51  1718.17  1761.06  1764.60
                             1798.99  1847.68  1875.24  1895.00  1964.75
                             2027.82  2124.59  2128.09  2146.75  2155.40
                             2235.01  4369.39  4407.74  4420.18  4444.15
                             4461.85  4477.02  4496.33  4500.50  4516.11
                             4521.03

 Zero-point correction=                           0.159493 (Hartree/Particle)
 Thermal correction to Energy=                    0.167256
 Thermal correction to Enthalpy=                  0.168200
 Thermal correction to Gibbs Free Energy=         0.127393
 Sum of electronic and zero-point Energies=           -422.981810
 Sum of electronic and thermal Energies=              -422.974047
 Sum of electronic and thermal Enthalpies=            -422.973103
 Sum of electronic and thermal Free Energies=         -423.013909

                     E (Thermal)             CV                S
                      KCal/Mol        Cal/Mol-Kelvin    Cal/Mol-Kelvin
 Total                  104.955             30.603             85.884
 Electronic               0.000              0.000              0.000
 Translational            0.889              2.981             40.409
 Rotational               0.889              2.981             28.442
 Vibrational            103.177             24.641             17.034
 Vibration     1          0.611              1.927              3.000
 Vibration     2          0.618              1.903              2.672
 Vibration     3          0.635              1.850              2.202
 Vibration     4          0.658              1.778              1.799
 Vibration     5          0.681              1.708              1.525
 Vibration     6          0.779              1.436              0.907
 Vibration     7          0.789              1.410              0.866
 Vibration     8          0.818              1.338              0.764
 Vibration     9          0.932              1.084              0.494
 Vibration    10          0.975              0.998              0.423

 Normal termination of Gaussian 09 at Tue Jan 28 02:43:50 2020.
