 Gaussian 09, Revision D.01,
 Gaussian 09:  ES64L-G09RevD.01 24-Apr-2013

 -----------------------------
 # b3lyp 6-31G(2df,p) opt Freq
 -----------------------------

 -----
 titel
 -----
 Symbolic Z-matrix:
 Charge =  0 Multiplicity = 1

 SCF Done:  E(RB3LYP) =  -423.198611829     A.U. after   13 cycles
 Optimization completed.
    -- Stationary point found.
 Normal termination of Gaussian 09 at Mon Jan 27 18:12:44 2020.

 ----------------------------------------------------------------------
 #N Geom=AllCheck Guess=TCheck SCRF=Check GenChk RB3LYP/6-31G(2df,p) Fr
 eq
 ----------------------------------------------------------------------

 Structure from the checkpoint file:  "/scratch/puck/g09_9bafbf1d-d7b0-4253-8da1-9628966efaf5/Gau-35186.chk"
 -----
 titel
 -----
 Charge =  0 Multiplicity = 1

                         Standard orientation:
 ---------------------------------------------------------------------
 Center     Atomic      Atomic             Coordinates (Angstroms)
 Number     Number       Type             X           Y           Z
 ---------------------------------------------------------------------
      1          6           0       -2.329501   -0.359521   -0.000044
      2          6           0       -0.834473   -0.214651   -0.000057
      3          8           0       -0.153488   -1.454063   -0.000102
      4          6           0        1.196074   -0.956332   -0.000008
      5          6           0        1.202821   -0.060737    1.263009
      6          6           0       -0.099003    0.720725    1.021864
      7          8           0        0.103465    1.724719    0.000081
      8          6           0       -0.098912    0.720846   -1.021827
      9          6           0        1.202933   -0.060597   -1.262927
     10          1           0       -2.802688    0.626404   -0.001278
     11          1           0       -2.664808   -0.907628   -0.885875
     12          1           0       -2.665082   -0.905485    0.887008
     13          1           0        1.893988   -1.792926   -0.000024
     14          1           0        1.135593   -0.683874    2.159868
     15          1           0        2.065048    0.604661    1.343693
     16          1           0       -0.601327    1.116904    1.906547
     17          1           0       -0.601133    1.117127   -1.906521
     18          1           0        1.135790   -0.683637   -2.159859
     19          1           0        2.065167    0.604812   -1.343454
 ---------------------------------------------------------------------

 SCF Done:  E(RB3LYP) =  -423.198611829     A.U. after    1 cycles

 The electronic state is 1-A.
 Alpha  occ. eigenvalues --  -19.14149 -19.13148 -10.23559 -10.23460 -10.22934
 Alpha  occ. eigenvalues --  -10.22933 -10.18239 -10.18238 -10.18223  -1.06838
 Alpha  occ. eigenvalues --   -1.02031  -0.78159  -0.76068  -0.75109  -0.66739
 Alpha  occ. eigenvalues --   -0.61306  -0.58808  -0.54132  -0.51046  -0.48735
 Alpha  occ. eigenvalues --   -0.45007  -0.43683  -0.41467  -0.41359  -0.40824
 Alpha  occ. eigenvalues --   -0.39293  -0.38679  -0.37366  -0.34455  -0.34387
 Alpha  occ. eigenvalues --   -0.30076  -0.30027  -0.25735  -0.24126
 Alpha virt. eigenvalues --    0.08242   0.09416   0.11791   0.13436   0.14378
 Alpha virt. eigenvalues --    0.14662   0.14765   0.15721   0.16428   0.17073
 Alpha virt. eigenvalues --    0.17204   0.17840   0.19065   0.19439   0.22172

 Mulliken charges:
               1
     1  C   -0.512149
     2  C    0.412517
     3  O   -0.292062
     4  C    0.045175
     5  C   -0.229039
     6  C    0.030544
     7  O   -0.307443
     8  C    0.030520
     9  C   -0.229038
    10  H    0.132753
    11  H    0.128526
    12  H    0.128501
    13  H    0.078771
    14  H    0.105080
    15  H    0.109294
    16  H    0.076839
    17  H    0.076838
    18  H    0.105079
    19  H    0.109293
 Sum of Mulliken charges =   0.00000

 Dipole moment (field-independent basis, Debye):
    X=              0.1592    Y=             -0.4691    Z=              0.0000  Tot=              0.4954
 Quadrupole moment (field-independent basis, Debye-Ang):
   XX=            -49.3959   YY=            -59.8213   ZZ=            -49.8089
   XY=             -1.7994   XZ=              0.0001   YZ=             -0.0006

  Exact polarizability:  78.647  -1.711  65.978  -0.001  -0.001  74.383
 Approx polarizability: 106.355  -0.810 106.232  -0.001   0.000 108.094

                      1                      2                      3
                      A                      A                      A
 Frequencies --    214.3858               239.5129               256.4418
 Red. masses --      1.0726                 2.2160                 2.9569
 Frc consts  --      0.0290                 0.0749                 0.1146
 IR Inten    --      0.0187                 1.2892                 1.8007

                      4                      5                      6
                      A                      A                      A
 Frequencies --    358.3499               402.3869               456.9737
 Red. masses --      2.5971                 1.9566                 2.4503
 Frc consts  --      0.1965                 0.1867                 0.3015
 IR Inten    --      3.1694                 0.1628                 6.6179

                      7                      8                      9
                      A                      A                      A
 Frequencies --    555.9017               617.2030               638.8835
 Red. masses --      5.2079                 3.3311                 4.6295
 Frc consts  --      0.9482                 0.7476                 1.1133
 IR Inten    --     11.2825                 0.0447                 0.5830

                     10                     11                     12
                      A                      A                      A
 Frequencies --    650.0610               793.8122               836.3279
 Red. masses --      5.5341                 5.0419                 3.0509
 Frc consts  --      1.3779                 1.8719                 1.2573
 IR Inten    --      1.6630                 5.8333                 9.6303

                     13                     14                     15
                      A                      A                      A
 Frequencies --    862.2879               872.9595               897.2562
 Red. masses --      2.2768                 2.1802                 2.4741
 Frc consts  --      0.9974                 0.9789                 1.1736
 IR Inten    --      5.8881                 0.1068                 9.6086

                     16                     17                     18
                      A                      A                      A
 Frequencies --    911.0692               912.3626               945.8524
 Red. masses --      2.1437                 2.1378                 2.8265
 Frc consts  --      1.0484                 1.0485                 1.4899
 IR Inten    --      0.0828                 1.8209                27.2293

                     19                     20                     21
                      A                      A                      A
 Frequencies --    985.1102               992.2387              1012.7605
 Red. masses --      2.7879                 2.8475                 2.1799
 Frc consts  --      1.5941                 1.6517                 1.3173
 IR Inten    --     37.4674                29.1387                13.5253

                     22                     23                     24
                      A                      A                      A
 Frequencies --   1018.3663              1095.2878              1120.6595
 Red. masses --      1.6787                 2.9519                 1.5747
 Frc consts  --      1.0257                 2.0864                 1.1652
 IR Inten    --     28.4005                 7.0026                 0.9214

                     25                     26                     27
                      A                      A                      A
 Frequencies --   1139.5300              1146.7143              1171.5963
 Red. masses --      1.7275                 1.4920                 1.7728
 Frc consts  --      1.3216                 1.1559                 1.4338
 IR Inten    --     28.6305                 8.9417                 0.5808

                     28                     29                     30
                      A                      A                      A
 Frequencies --   1185.4684              1212.3836              1263.0971
 Red. masses --      2.3540                 1.4525                 1.5390
 Frc consts  --      1.9492                 1.2579                 1.4466
 IR Inten    --     34.4315                 5.4439                 1.8825

                     31                     32                     33
                      A                      A                      A
 Frequencies --   1298.5161              1302.7836              1337.6700
 Red. masses --      1.3105                 1.6842                 1.5713
 Frc consts  --      1.3019                 1.6842                 1.6565
 IR Inten    --      1.3268                24.3715                 3.0129

                     34                     35                     36
                      A                      A                      A
 Frequencies --   1338.0120              1358.1211              1361.9355
 Red. masses --      1.5204                 1.6950                 1.8887
 Frc consts  --      1.6038                 1.8421                 2.0641
 IR Inten    --      5.2943                 1.3872                 6.2004

                     37                     38                     39
                      A                      A                      A
 Frequencies --   1418.4703              1457.9132              1472.0625
 Red. masses --      1.5747                 1.1035                 1.1102
 Frc consts  --      1.8668                 1.3820                 1.4174
 IR Inten    --      7.8175                 4.4589                 3.6897

                     40                     41                     42
                      A                      A                      A
 Frequencies --   1484.0390              1495.0129              3041.0777
 Red. masses --      1.0475                 1.0534                 1.0351
 Frc consts  --      1.3592                 1.3872                 5.6402
 IR Inten    --      3.0178                 2.4425                18.4826

                     43                     44                     45
                      A                      A                      A
 Frequencies --   3059.6810              3060.3566              3093.4936
 Red. masses --      1.0603                 1.0623                 1.0873
 Frc consts  --      5.8483                 5.8617                 6.1302
 IR Inten    --     21.5376                12.4414                70.5946

                     46                     47                     48
                      A                      A                      A
 Frequencies --   3097.0576              3110.5078              3120.5213
 Red. masses --      1.0913                 1.1016                 1.1050
 Frc consts  --      6.1675                 6.2798                 6.3399
 IR Inten    --     23.5422                17.4916                 4.8241

                     49                     50                     51
                      A                      A                      A
 Frequencies --   3120.5671              3124.2879              3125.4912
 Red. masses --      1.1013                 1.1033                 1.0916
 Frc consts  --      6.3187                 6.3452                 6.2825
 IR Inten    --     10.9635                26.7271                34.2511

 - Thermochemistry -
 -------------------
 Temperature   298.150 Kelvin.  Pressure   1.00000 Atm.
 Atom     1 has atomic number  6 and mass  12.00000

 Molecular mass:   126.06808 amu.
 Principal axes and moments of inertia in atomic units:
                           1         2         3
     Eigenvalues --   720.63027 889.976051001.42338
           X            0.99989  -0.01483   0.00000
           Y            0.01483   0.99989  -0.00003
           Z            0.00000   0.00003   1.00000
 This molecule is an asymmetric top.
 Rotational symmetry number  1.
 Warning -- assumption of classical behavior for rotation
           may cause significant error
 Rotational temperatures (Kelvin)      0.12019     0.09732     0.08649
 Rotational constants (GHZ):           2.50439     2.02785     1.80218
 Zero-point vibrational energy     424930.4 (Joules/Mol)
                                  101.56081 (Kcal/Mol)
 Warning -- explicit consideration of   8 degrees of freedom as
           vibrations may cause significant error
 Vibrational temperatures:    308.45   344.61   368.96   515.58   578.94
          (Kelvin)            657.48   799.82   888.02   919.21   935.29
                             1142.12  1203.29  1240.64  1255.99  1290.95
                             1310.82  1312.68  1360.87  1417.35  1427.61
                             1457.13  1465.20  1575.87  1612.38  1639.53
                             1649.86  1685.66  1705.62  1744.35  1817.31
                             1868.27  1874.41  1924.61  1925.10  1954.03
                             1959.52  2040.86  2097.61  2117.97  2135.20
                             2150.99  4375.43  4402.19  4403.17  4450.84
                             4455.97  4475.32  4489.73  4489.79  4495.15
                             4496.88

 Zero-point correction=                           0.161847 (Hartree/Particle)
 Thermal correction to Energy=                    0.168589
 Thermal correction to Enthalpy=                  0.169533
 Thermal correction to Gibbs Free Energy=         0.131221
 Sum of electronic and zero-point Energies=           -423.036764
 Sum of electronic and thermal Energies=              -423.030023
 Sum of electronic and thermal Enthalpies=            -423.029078
 Sum of electronic and thermal Free Energies=         -423.067391

                     E (Thermal)             CV                S
                      KCal/Mol        Cal/Mol-Kelvin    Cal/Mol-Kelvin
 Total                  105.791             28.505             80.635
 Electronic               0.000              0.000              0.000
 Translational            0.889              2.981             40.409
 Rotational               0.889              2.981             27.954
 Vibrational            104.014             22.543             12.273
 Vibration     1          0.644              1.819              2.006
 Vibration     2          0.657              1.780              1.806
 Vibration     3          0.666              1.752              1.686
 Vibration     4          0.733              1.558              1.129
 Vibration     5          0.768              1.465              0.954
 Vibration     6          0.815              1.345              0.775
 Vibration     7          0.911              1.127              0.532
 Vibration     8          0.977              0.996              0.421

 Normal termination of Gaussian 09 at Mon Jan 27 19:03:53 2020.
