 Gaussian 09, Revision D.01,
 Gaussian 09:  ES64L-G09RevD.01 24-Apr-2013

 -----------------------------
 # b3lyp 6-31G(2df,p) opt Freq
 -----------------------------

 -----
 titel
 -----
 Symbolic Z-matrix:
 Charge =  0 Multiplicity = 1

 SCF Done:  E(RB3LYP) =  -423.200809992     A.U. after   14 cycles
 Optimization completed.
    -- Stationary point found.
 Normal termination of Gaussian 09 at Mon Jan 27 11:12:25 2020.

 ----------------------------------------------------------------------
 #N Geom=AllCheck Guess=TCheck SCRF=Check GenChk RB3LYP/6-31G(2df,p) Fr
 eq
 ----------------------------------------------------------------------

 Structure from the checkpoint file:  "/scratch/puck/g09_f153fbac-5b2f-4b33-af7d-596fde9d13e3/Gau-94784.chk"
 -----
 titel
 -----
 Charge =  0 Multiplicity = 1

                         Standard orientation:
 ---------------------------------------------------------------------
 Center     Atomic      Atomic             Coordinates (Angstroms)
 Number     Number       Type             X           Y           Z
 ---------------------------------------------------------------------
      1          6           0       -3.842857    0.283414   -0.490651
      2          8           0       -2.801771   -0.217708    0.311549
      3          6           0       -1.522101    0.095173   -0.190300
      4          6           0       -0.476782   -0.500079    0.754905
      5          6           0        0.926577   -0.196400    0.324765
      6          6           0        1.837574   -1.065813   -0.190762
      7          8           0        3.006762   -0.435819   -0.485024
      8          6           0        2.840234    0.870344   -0.151324
      9          6           0        1.595407    1.079418    0.346442
     10          1           0       -3.809539   -0.130285   -1.511360
     11          1           0       -4.786920   -0.007497   -0.023331
     12          1           0       -3.808489    1.382155   -0.567493
     13          1           0       -1.389280   -0.314145   -1.206158
     14          1           0       -1.392268    1.188584   -0.265884
     15          1           0       -0.665322   -0.107740    1.761056
     16          1           0       -0.631167   -1.582797    0.804886
     17          1           0        1.810293   -2.123808   -0.395354
     18          1           0        3.690692    1.509226   -0.323421
     19          1           0        1.193771    2.018180    0.696416
 ---------------------------------------------------------------------

 SCF Done:  E(RB3LYP) =  -423.200809992     A.U. after    1 cycles

 The electronic state is 1-A.
 Alpha  occ. eigenvalues --  -19.20006 -19.13798 -10.22653 -10.22588 -10.22297
 Alpha  occ. eigenvalues --  -10.22184 -10.18727 -10.18486 -10.17767  -1.10264
 Alpha  occ. eigenvalues --   -1.03178  -0.81382  -0.75731  -0.73316  -0.67505
 Alpha  occ. eigenvalues --   -0.61485  -0.57836  -0.56219  -0.51904  -0.48125
 Alpha  occ. eigenvalues --   -0.47668  -0.45205  -0.44116  -0.43696  -0.42376
 Alpha  occ. eigenvalues --   -0.39796  -0.37734  -0.37337  -0.36313  -0.33952
 Alpha  occ. eigenvalues --   -0.31657  -0.26514  -0.25417  -0.22176
 Alpha virt. eigenvalues --    0.02018   0.07105   0.09164   0.11594   0.12576
 Alpha virt. eigenvalues --    0.13332   0.14406   0.15055   0.15708   0.16489
 Alpha virt. eigenvalues --    0.17746   0.18194   0.18448   0.20753   0.21753

 Mulliken charges:
               1
     1  C   -0.228265
     2  O   -0.227666
     3  C   -0.039416
     4  C   -0.337818
     5  C    0.236271
     6  C   -0.100015
     7  O   -0.141231
     8  C    0.006290
     9  C   -0.279518
    10  H    0.103227
    11  H    0.126326
    12  H    0.102367
    13  H    0.088908
    14  H    0.086186
    15  H    0.116501
    16  H    0.111689
    17  H    0.133207
    18  H    0.134501
    19  H    0.108454
 Sum of Mulliken charges =   0.00000

 Dipole moment (field-independent basis, Debye):
    X=             -0.4612    Y=              0.7822    Z=             -0.5992  Tot=              1.0879
 Quadrupole moment (field-independent basis, Debye-Ang):
   XX=            -52.5762   YY=            -49.5707   ZZ=            -54.9290
   XY=              0.3752   XZ=              2.5927   YZ=              0.8359

  Exact polarizability: 101.729   2.231  77.251  -6.035   3.407  56.367
 Approx polarizability: 132.543   0.387 123.957 -16.068   8.153  88.644

                      1                      2                      3
                      A                      A                      A
 Frequencies --     46.9517                85.3158                94.0365
 Red. masses --      3.2804                 2.1410                 3.5047
 Frc consts  --      0.0043                 0.0092                 0.0183
 IR Inten    --      0.3224                 1.3890                 0.7784

                      4                      5                      6
                      A                      A                      A
 Frequencies --    113.7506               235.9357               257.9906
 Red. masses --      2.6818                 1.2151                 3.9052
 Frc consts  --      0.0204                 0.0399                 0.1531
 IR Inten    --      1.8793                 2.1422                 2.7640

                      7                      8                      9
                      A                      A                      A
 Frequencies --    320.9648               334.9874               455.0146
 Red. masses --      2.5806                 5.4731                 3.0988
 Frc consts  --      0.1566                 0.3619                 0.3780
 IR Inten    --      1.8449                 0.1424                 2.5941

                     10                     11                     12
                      A                      A                      A
 Frequencies --    623.0374               649.8755               724.0310
 Red. masses --      4.3212                 2.7456                 2.3643
 Frc consts  --      0.9883                 0.6832                 0.7302
 IR Inten    --     10.1428                 7.3663                 7.6968

                     13                     14                     15
                      A                      A                      A
 Frequencies --    739.0328               787.3012               803.4549
 Red. masses --      1.6088                 1.3931                 1.2085
 Frc consts  --      0.5177                 0.5088                 0.4596
 IR Inten    --     11.8325                31.0938                 0.9689

                     16                     17                     18
                      A                      A                      A
 Frequencies --    834.1071               892.6957               982.4352
 Red. masses --      1.3337                 5.7165                 3.7007
 Frc consts  --      0.5467                 2.6840                 2.1045
 IR Inten    --      6.7482                25.7146                 5.8094

                     19                     20                     21
                      A                      A                      A
 Frequencies --    996.9527              1057.4340              1057.9472
 Red. masses --      3.3119                 1.9026                 2.4482
 Frc consts  --      1.9395                 1.2535                 1.6145
 IR Inten    --     24.7023                 2.7285                 8.1628

                     22                     23                     24
                      A                      A                      A
 Frequencies --   1063.2876              1101.4552              1162.9429
 Red. masses --      2.0777                 1.8705                 5.3989
 Frc consts  --      1.3840                 1.3370                 4.3020
 IR Inten    --     12.7479                13.4109               183.5571

                     25                     26                     27
                      A                      A                      A
 Frequencies --   1180.1371              1203.8326              1226.3065
 Red. masses --      1.2720                 3.2378                 1.6300
 Frc consts  --      1.0437                 2.7646                 1.4443
 IR Inten    --      2.1838                12.5324                35.1023

                     28                     29                     30
                      A                      A                      A
 Frequencies --   1228.7800              1267.4958              1277.5386
 Red. masses --      1.3953                 1.3651                 1.5845
 Frc consts  --      1.2413                 1.2921                 1.5237
 IR Inten    --     18.6390                 0.4019                 0.5529

                     31                     32                     33
                      A                      A                      A
 Frequencies --   1307.5732              1329.4782              1409.1988
 Red. masses --      1.1211                 1.7530                 3.2532
 Frc consts  --      1.1293                 1.8255                 3.8063
 IR Inten    --      0.3085                 1.3284                 8.0592

                     34                     35                     36
                      A                      A                      A
 Frequencies --   1420.3249              1481.6217              1486.1348
 Red. masses --      1.3808                 1.1547                 1.0480
 Frc consts  --      1.6412                 1.4934                 1.3637
 IR Inten    --     25.2461                 1.5307                 4.8862

                     37                     38                     39
                      A                      A                      A
 Frequencies --   1490.0876              1505.4470              1531.1604
 Red. masses --      1.0922                 1.0634                 1.0989
 Frc consts  --      1.4288                 1.4200                 1.5179
 IR Inten    --      1.9067                10.0040                 0.9851

                     40                     41                     42
                      A                      A                      A
 Frequencies --   1537.3244              1636.6043              2950.1244
 Red. masses --      3.9395                 5.8781                 1.0519
 Frc consts  --      5.4856                 9.2763                 5.3942
 IR Inten    --     14.6809                 0.7357                33.6646

                     43                     44                     45
                      A                      A                      A
 Frequencies --   2969.4659              2980.3011              3010.1644
 Red. masses --      1.0401                 1.1041                 1.1030
 Frc consts  --      5.4034                 5.7781                 5.8887
 IR Inten    --     72.9661                51.8743                56.9141

                     46                     47                     48
                      A                      A                      A
 Frequencies --   3039.3873              3085.7955              3112.3595
 Red. masses --      1.0605                 1.1022                 1.0956
 Frc consts  --      5.7720                 6.1836                 6.2530
 IR Inten    --     26.3758                21.8662                33.0678

                     49                     50                     51
                      A                      A                      A
 Frequencies --   3247.6171              3271.5405              3283.7260
 Red. masses --      1.0911                 1.0970                 1.1051
 Frc consts  --      6.7801                 6.9175                 7.0208
 IR Inten    --      1.3155                 0.6662                 0.9209

 - Thermochemistry -
 -------------------
 Temperature   298.150 Kelvin.  Pressure   1.00000 Atm.
 Atom     1 has atomic number  6 and mass  12.00000

 Molecular mass:   126.06808 amu.
 Principal axes and moments of inertia in atomic units:
                           1         2         3
     Eigenvalues --   319.474662708.496742831.54100
           X            0.99994  -0.00124   0.01043
           Y            0.00131   0.99997  -0.00733
           Z           -0.01042   0.00734   0.99992
 This molecule is an asymmetric top.
 Rotational symmetry number  1.
 Rotational temperatures (Kelvin)      0.27111     0.03198     0.03059
 Rotational constants (GHZ):           5.64909     0.66633     0.63737
 Zero-point vibrational energy     418037.8 (Joules/Mol)
                                   99.91344 (Kcal/Mol)
 Warning -- explicit consideration of   9 degrees of freedom as
           vibrations may cause significant error
 Vibrational temperatures:     67.55   122.75   135.30   163.66   339.46
          (Kelvin)            371.19   461.80   481.97   654.66   896.41
                              935.02  1041.72  1063.30  1132.75  1155.99
                             1200.09  1284.39  1413.50  1434.39  1521.41
                             1522.15  1529.83  1584.75  1673.21  1697.95
                             1732.04  1764.38  1767.94  1823.64  1838.09
                             1881.30  1912.82  2027.52  2043.53  2131.72
                             2138.21  2143.90  2166.00  2203.00  2211.86
                             2354.71  4244.57  4272.39  4287.98  4330.95
                             4372.99  4439.77  4477.99  4672.59  4707.01
                             4724.54

 Zero-point correction=                           0.159222 (Hartree/Particle)
 Thermal correction to Energy=                    0.168261
 Thermal correction to Enthalpy=                  0.169205
 Thermal correction to Gibbs Free Energy=         0.124073
 Sum of electronic and zero-point Energies=           -423.041588
 Sum of electronic and thermal Energies=              -423.032549
 Sum of electronic and thermal Enthalpies=            -423.031605
 Sum of electronic and thermal Free Energies=         -423.076737

                     E (Thermal)             CV                S
                      KCal/Mol        Cal/Mol-Kelvin    Cal/Mol-Kelvin
 Total                  105.585             32.116             94.987
 Electronic               0.000              0.000              0.000
 Translational            0.889              2.981             40.409
 Rotational               0.889              2.981             29.284
 Vibrational            103.808             26.154             25.294
 Vibration     1          0.595              1.979              4.942
 Vibration     2          0.601              1.959              3.765
 Vibration     3          0.603              1.953              3.574
 Vibration     4          0.607              1.938              3.204
 Vibration     5          0.655              1.786              1.833
 Vibration     6          0.667              1.749              1.675
 Vibration     7          0.706              1.633              1.305
 Vibration     8          0.716              1.606              1.236
 Vibration     9          0.813              1.350              0.781

 Optimization completed.
    -- Stationary point found.
 Normal termination of Gaussian 09 at Mon Jan 27 11:45:58 2020.
