 Gaussian 09, Revision D.01,
 Gaussian 09:  ES64L-G09RevD.01 24-Apr-2013

 -----------------------------
 # b3lyp 6-31G(2df,p) opt Freq
 -----------------------------

 -----
 titel
 -----
 Symbolic Z-matrix:
 Charge =  0 Multiplicity = 1

 SCF Done:  E(RB3LYP) =  -423.106295914     A.U. after   12 cycles
 Optimization completed.
    -- Stationary point found.
 Normal termination of Gaussian 09 at Mon Jan 27 17:26:25 2020.

 ----------------------------------------------------------------------
 #N Geom=AllCheck Guess=TCheck SCRF=Check GenChk RB3LYP/6-31G(2df,p) Fr
 eq
 ----------------------------------------------------------------------

 Structure from the checkpoint file:  "/scratch/puck/g09_0516fe4e-b075-434d-a513-a0d66bfdc211/Gau-72563.chk"
 -----
 titel
 -----
 Charge =  0 Multiplicity = 1

                         Standard orientation:
 ---------------------------------------------------------------------
 Center     Atomic      Atomic             Coordinates (Angstroms)
 Number     Number       Type             X           Y           Z
 ---------------------------------------------------------------------
      1          6           0        2.241460   -0.518242   -0.920722
      2          6           0        1.006520   -0.473473   -0.068844
      3          6           0        1.014308    0.001366    1.379488
      4          6           0        0.164532    0.699677    0.352360
      5          8           0        0.316144    2.022539   -0.037832
      6          6           0       -1.134840   -0.068158   -0.055111
      7          8           0       -2.168749    0.601732   -0.673221
      8          6           0       -1.335927   -1.365184    0.637671
      9          6           0       -0.283564   -1.267006   -0.461393
     10          1           0        2.925088    0.296735   -0.664563
     11          1           0        2.780793   -1.464283   -0.791424
     12          1           0        1.991240   -0.422416   -1.983666
     13          1           0        0.606621   -0.572828    2.205089
     14          1           0        1.914732    0.554941    1.635512
     15          1           0       -0.007206    2.587781    0.673782
     16          1           0       -1.764462    1.291963   -1.214473
     17          1           0       -1.099990   -1.539454    1.683350
     18          1           0       -2.231899   -1.883090    0.304959
     19          1           0       -0.329016   -1.897406   -1.340839
 ---------------------------------------------------------------------

 SCF Done:  E(RB3LYP) =  -423.106295914     A.U. after    1 cycles

 The electronic state is 1-A.
 Alpha  occ. eigenvalues --  -19.15800 -19.14561 -10.23539 -10.23445 -10.19613
 Alpha  occ. eigenvalues --  -10.18588 -10.18373 -10.18242 -10.17844  -1.04632
 Alpha  occ. eigenvalues --   -1.02562  -0.90515  -0.80004  -0.71558  -0.64412
 Alpha  occ. eigenvalues --   -0.60887  -0.56742  -0.54184  -0.52852  -0.49058
 Alpha  occ. eigenvalues --   -0.46533  -0.43733  -0.42375  -0.41204  -0.40050
 Alpha  occ. eigenvalues --   -0.38472  -0.37208  -0.36382  -0.34388  -0.32750
 Alpha  occ. eigenvalues --   -0.28871  -0.27698  -0.25626  -0.19719
 Alpha virt. eigenvalues --    0.06162   0.09425   0.10621   0.11132   0.11806
 Alpha virt. eigenvalues --    0.12511   0.13183   0.15751   0.16557   0.17517
 Alpha virt. eigenvalues --    0.18692   0.19972   0.21660   0.22477   0.23502

 Mulliken charges:
               1
     1  C   -0.490243
     2  C    0.296815
     3  C   -0.429062
     4  C    0.253611
     5  O   -0.460712
     6  C    0.368077
     7  O   -0.459431
     8  C   -0.354708
     9  C   -0.207326
    10  H    0.123634
    11  H    0.120055
    12  H    0.119138
    13  H    0.110751
    14  H    0.112213
    15  H    0.291193
    16  H    0.288145
    17  H    0.107276
    18  H    0.120589
    19  H    0.089986
 Sum of Mulliken charges =   0.00000

 Dipole moment (field-independent basis, Debye):
    X=              0.8775    Y=              0.5683    Z=              0.6167  Tot=              1.2138
 Quadrupole moment (field-independent basis, Debye-Ang):
   XX=            -56.9646   YY=            -49.8854   ZZ=            -50.4512
   XY=             -0.4951   XZ=              0.2217   YZ=              2.0250

  Exact polarizability:  79.998   1.201  75.194  -0.833   0.588  70.731
 Approx polarizability: 110.251  -2.611 113.967  -0.980   0.359 107.644

                      1                      2                      3
                      A                      A                      A
 Frequencies --    147.2544               168.0850               193.5722
 Red. masses --      3.6042                 3.6904                 1.0842
 Frc consts  --      0.0460                 0.0614                 0.0239
 IR Inten    --      0.1034                 2.4815                 2.6934

                      4                      5                      6
                      A                      A                      A
 Frequencies --    204.9030               285.7886               298.7784
 Red. masses --      2.9270                 1.2151                 2.1234
 Frc consts  --      0.0724                 0.0585                 0.1117
 IR Inten    --     25.0433                95.7558                17.0339

                      7                      8                      9
                      A                      A                      A
 Frequencies --    379.7736               422.4332               442.1601
 Red. masses --      2.6250                 1.4717                 2.3881
 Frc consts  --      0.2231                 0.1547                 0.2751
 IR Inten    --      7.6913                30.3143                11.2429

                     10                     11                     12
                      A                      A                      A
 Frequencies --    462.0459               463.2642               509.9416
 Red. masses --      2.8945                 2.8940                 2.7437
 Frc consts  --      0.3641                 0.3659                 0.4204
 IR Inten    --     12.7845                 6.5871                 5.4030

                     13                     14                     15
                      A                      A                      A
 Frequencies --    559.5127               644.5770               726.6153
 Red. masses --      3.2237                 4.0150                 3.8365
 Frc consts  --      0.5946                 0.9828                 1.1934
 IR Inten    --      3.0972                21.0595                 2.3677

                     16                     17                     18
                      A                      A                      A
 Frequencies --    792.3979               827.0087               838.8080
 Red. masses --      2.9700                 3.1322                 1.8314
 Frc consts  --      1.0987                 1.2622                 0.7592
 IR Inten    --      2.4489                 6.2694                 1.3100

                     19                     20                     21
                      A                      A                      A
 Frequencies --    915.0719               936.8355               960.4819
 Red. masses --      1.4609                 3.1304                 1.4489
 Frc consts  --      0.7207                 1.6187                 0.7875
 IR Inten    --      5.0636                16.4325                 1.8849

                     22                     23                     24
                      A                      A                      A
 Frequencies --    975.3520              1003.4046              1023.1132
 Red. masses --      1.5494                 1.4707                 1.8249
 Frc consts  --      0.8684                 0.8724                 1.1255
 IR Inten    --     14.7529                 4.0830                 8.6268

                     25                     26                     27
                      A                      A                      A
 Frequencies --   1053.4663              1091.5858              1097.6827
 Red. masses --      1.3967                 1.9001                 1.5906
 Frc consts  --      0.9133                 1.3340                 1.1292
 IR Inten    --      2.8819                 6.1104                 9.6174

                     28                     29                     30
                      A                      A                      A
 Frequencies --   1105.1735              1181.6629              1200.5437
 Red. masses --      1.8720                 1.5572                 2.5501
 Frc consts  --      1.3472                 1.2811                 2.1655
 IR Inten    --     19.7898                28.3883                20.6061

                     31                     32                     33
                      A                      A                      A
 Frequencies --   1244.0873              1279.1437              1307.7166
 Red. masses --      2.1678                 1.7645                 2.7407
 Frc consts  --      1.9769                 1.7010                 2.7615
 IR Inten    --     46.6422               107.4471                11.4725

                     34                     35                     36
                      A                      A                      A
 Frequencies --   1347.6340              1410.4787              1423.3824
 Red. masses --      2.7597                 1.2863                 1.3649
 Frc consts  --      2.9530                 1.5078                 1.6293
 IR Inten    --    193.1990                 2.7098                 2.8818

                     37                     38                     39
                      A                      A                      A
 Frequencies --   1426.5462              1484.4512              1497.0110
 Red. masses --      1.8911                 1.0480                 1.1528
 Frc consts  --      2.2674                 1.3607                 1.5221
 IR Inten    --      8.0725                 4.8825                 7.0216

                     40                     41                     42
                      A                      A                      A
 Frequencies --   1509.1718              1519.5418              3021.6945
 Red. masses --      1.7806                 1.5881                 1.0361
 Frc consts  --      2.3894                 2.1604                 5.5741
 IR Inten    --      3.5252                16.6704                40.7357

                     43                     44                     45
                      A                      A                      A
 Frequencies --   3077.6646              3103.4542              3106.6595
 Red. masses --      1.1006                 1.0978                 1.0563
 Frc consts  --      6.1424                 6.2298                 6.0066
 IR Inten    --     23.6994                13.1138                16.0253

                     46                     47                     48
                      A                      A                      A
 Frequencies --   3120.6467              3185.1840              3192.0000
 Red. masses --      1.0543                 1.1044                 1.1027
 Frc consts  --      6.0493                 6.6018                 6.6199
 IR Inten    --     22.7915                 2.3263                14.3821

                     49                     50                     51
                      A                      A                      A
 Frequencies --   3198.3821              3772.0614              3776.0142
 Red. masses --      1.1134                 1.0654                 1.0660
 Frc consts  --      6.7107                 8.9314                 8.9556
 IR Inten    --     18.2674                32.8140                19.2353

 - Thermochemistry -
 -------------------
 Temperature   298.150 Kelvin.  Pressure   1.00000 Atm.
 Atom     1 has atomic number  6 and mass  12.00000

 Molecular mass:   126.06808 amu.
 Principal axes and moments of inertia in atomic units:
                           1         2         3
     Eigenvalues --   765.175971079.194291354.75734
           X            0.99973   0.00924  -0.02129
           Y           -0.00898   0.99988   0.01242
           Z            0.02141  -0.01222   0.99970
 This molecule is an asymmetric top.
 Rotational symmetry number  1.
 Warning -- assumption of classical behavior for rotation
           may cause significant error
 Rotational temperatures (Kelvin)      0.11319     0.08026     0.06393
 Rotational constants (GHZ):           2.35860     1.67230     1.33215
 Zero-point vibrational energy     412198.6 (Joules/Mol)
                                   98.51782 (Kcal/Mol)
 Warning -- explicit consideration of  13 degrees of freedom as
           vibrations may cause significant error
 Vibrational temperatures:    211.87   241.84   278.51   294.81   411.19
          (Kelvin)            429.88   546.41   607.79   636.17   664.78
                              666.53   733.69   805.01   927.40  1045.44
                             1140.08  1189.88  1206.86  1316.58  1347.90
                             1381.92  1403.31  1443.67  1472.03  1515.70
                             1570.55  1579.32  1590.10  1700.15  1727.31
                             1789.96  1840.40  1881.51  1938.94  2029.36
                             2047.93  2052.48  2135.79  2153.86  2171.36
                             2186.28  4347.54  4428.07  4465.17  4469.78
                             4489.91  4582.76  4592.57  4601.75  5427.15
                             5432.84

 Zero-point correction=                           0.156998 (Hartree/Particle)
 Thermal correction to Energy=                    0.165807
 Thermal correction to Enthalpy=                  0.166751
 Thermal correction to Gibbs Free Energy=         0.124400
 Sum of electronic and zero-point Energies=           -422.949298
 Sum of electronic and thermal Energies=              -422.940489
 Sum of electronic and thermal Enthalpies=            -422.939545
 Sum of electronic and thermal Free Energies=         -422.981896

                     E (Thermal)             CV                S
                      KCal/Mol        Cal/Mol-Kelvin    Cal/Mol-Kelvin
 Total                  104.046             34.985             89.136
 Electronic               0.000              0.000              0.000
 Translational            0.889              2.981             40.409
 Rotational               0.889              2.981             28.505
 Vibrational            102.268             29.024             20.222
 Vibration     1          0.617              1.906              2.707
 Vibration     2          0.625              1.882              2.457
 Vibration     3          0.635              1.849              2.193
 Vibration     4          0.640              1.833              2.089
 Vibration     5          0.684              1.700              1.499
 Vibration     6          0.692              1.676              1.424
 Vibration     7          0.750              1.513              1.040
 Vibration     8          0.785              1.421              0.884
 Vibration     9          0.802              1.378              0.820
 Vibration    10          0.820              1.334              0.760
 Vibration    11          0.821              1.332              0.757
 Vibration    12          0.865              1.228              0.634
 Vibration    13          0.915              1.119              0.525

 Optimization completed.
    -- Stationary point found.
 Normal termination of Gaussian 09 at Mon Jan 27 18:22:37 2020.
