 Gaussian 09, Revision D.01,
 Gaussian 09:  ES64L-G09RevD.01 24-Apr-2013

 -----------------------------
 # b3lyp 6-31G(2df,p) opt Freq
 -----------------------------

 -----
 titel
 -----
 Symbolic Z-matrix:
 Charge =  0 Multiplicity = 1

 SCF Done:  E(RB3LYP) =  -423.196484865     A.U. after   14 cycles
 Optimization completed.
    -- Stationary point found.
 Normal termination of Gaussian 09 at Tue Jan 28 03:02:19 2020.

 ----------------------------------------------------------------------
 #N Geom=AllCheck Guess=TCheck SCRF=Check GenChk RB3LYP/6-31G(2df,p) Fr
 eq
 ----------------------------------------------------------------------

 Structure from the checkpoint file:  "/scratch/puck/g09_d64b12f5-cfd2-4ba7-b771-5b3952d8976d/Gau-114305.chk"
 -----
 titel
 -----
 Charge =  0 Multiplicity = 1

                         Standard orientation:
 ---------------------------------------------------------------------
 Center     Atomic      Atomic             Coordinates (Angstroms)
 Number     Number       Type             X           Y           Z
 ---------------------------------------------------------------------
      1          6           0        2.268398   -0.856817    0.293710
      2          6           0        0.990753   -0.474416   -0.443898
      3          8           0       -0.003796   -1.478914   -0.212191
      4          6           0       -1.316838   -1.002620    0.020414
      5          6           0       -1.344078    0.006100    1.197148
      6          6           0       -0.958637    1.086027    0.131240
      7          6           0       -1.684568    0.179376   -0.913566
      8          6           0        0.527523    0.956861   -0.098007
      9          8           0        1.311141    1.874395   -0.049689
     10          1           0        2.618086   -1.835187   -0.044784
     11          1           0        3.039865   -0.108453    0.101423
     12          1           0        2.088464   -0.908923    1.371446
     13          1           0        1.203595   -0.446744   -1.525603
     14          1           0       -1.957106   -1.885242    0.052722
     15          1           0       -2.356282    0.174327    1.572700
     16          1           0       -0.663379   -0.175175    2.032246
     17          1           0       -1.251230    2.126904    0.267721
     18          1           0       -2.760036    0.370180   -0.913096
     19          1           0       -1.316057    0.157411   -1.941973
 ---------------------------------------------------------------------

 SCF Done:  E(RB3LYP) =  -423.196484865     A.U. after    1 cycles

 The electronic state is 1-A.
 Alpha  occ. eigenvalues --  -19.14596 -19.13185 -10.26857 -10.24572 -10.24139
 Alpha  occ. eigenvalues --  -10.20482 -10.19889 -10.19794 -10.17795  -1.05044
 Alpha  occ. eigenvalues --   -1.03503  -0.85902  -0.77476  -0.69182  -0.67859
 Alpha  occ. eigenvalues --   -0.62194  -0.60639  -0.52117  -0.51509  -0.48033
 Alpha  occ. eigenvalues --   -0.47145  -0.44502  -0.42282  -0.41429  -0.39921
 Alpha  occ. eigenvalues --   -0.39235  -0.38325  -0.37549  -0.36287  -0.34916
 Alpha  occ. eigenvalues --   -0.33130  -0.30224  -0.25648  -0.23826
 Alpha virt. eigenvalues --   -0.01604   0.08211   0.08790   0.11624   0.11928
 Alpha virt. eigenvalues --    0.13016   0.13351   0.15031   0.16925   0.17789
 Alpha virt. eigenvalues --    0.18062   0.19131   0.19785   0.20968   0.21802

 Mulliken charges:
               1
     1  C   -0.393997
     2  C    0.027575
     3  O   -0.289340
     4  C    0.133934
     5  C   -0.254634
     6  C   -0.126354
     7  C   -0.264786
     8  C    0.389094
     9  O   -0.336211
    10  H    0.124580
    11  H    0.140212
    12  H    0.121919
    13  H    0.108768
    14  H    0.083648
    15  H    0.112418
    16  H    0.112804
    17  H    0.085424
    18  H    0.113556
    19  H    0.111391
 Sum of Mulliken charges =   0.00000

 Dipole moment (field-independent basis, Debye):
    X=             -2.1422    Y=             -0.9255    Z=             -0.0093  Tot=              2.3336
 Quadrupole moment (field-independent basis, Debye-Ang):
   XX=            -50.6197   YY=            -60.4425   ZZ=            -51.2018
   XY=             -4.0126   XZ=             -0.6182   YZ=             -0.2958

  Exact polarizability:  86.555   0.962  72.724  -1.030  -0.049  65.727
 Approx polarizability: 118.052   8.364 112.914  -2.128   0.435  99.565

                      1                      2                      3
                      A                      A                      A
 Frequencies --     59.9265               161.7931               210.5857
 Red. masses --      3.9462                 3.9095                 1.0307
 Frc consts  --      0.0083                 0.0603                 0.0269
 IR Inten    --      4.4887                 0.1247                 0.2559

                      4                      5                      6
                      A                      A                      A
 Frequencies --    267.5961               376.4568               399.0485
 Red. masses --      2.9669                 2.5744                 2.6408
 Frc consts  --      0.1252                 0.2150                 0.2478
 IR Inten    --      4.6028                 1.7888                 1.1928

                      7                      8                      9
                      A                      A                      A
 Frequencies --    426.8487               455.5259               469.6422
 Red. masses --      3.5502                 4.5047                 4.0153
 Frc consts  --      0.3811                 0.5507                 0.5218
 IR Inten    --      6.0930                 9.6032                 5.3737

                     10                     11                     12
                      A                      A                      A
 Frequencies --    558.6443               657.7479               761.7544
 Red. masses --      3.5541                 3.7870                 2.6887
 Frc consts  --      0.6535                 0.9653                 0.9192
 IR Inten    --      1.3851                 4.0435                 1.9999

                     13                     14                     15
                      A                      A                      A
 Frequencies --    811.5866               830.8436               870.4104
 Red. masses --      2.0587                 2.5121                 3.5364
 Frc consts  --      0.7989                 1.0217                 1.5786
 IR Inten    --      1.0157                10.2252                 5.9390

                     16                     17                     18
                      A                      A                      A
 Frequencies --    886.4883               922.1043               946.6982
 Red. masses --      2.3480                 2.1569                 2.2821
 Frc consts  --      1.0871                 1.0805                 1.2051
 IR Inten    --      3.0339                 0.2723                10.9688

                     19                     20                     21
                      A                      A                      A
 Frequencies --    977.3049              1012.9078              1032.3740
 Red. masses --      1.5723                 2.1492                 1.7999
 Frc consts  --      0.8848                 1.2991                 1.1303
 IR Inten    --      4.3177                58.6400                27.2784

                     22                     23                     24
                      A                      A                      A
 Frequencies --   1061.0424              1088.0858              1118.1806
 Red. masses --      1.3379                 1.7415                 2.0934
 Frc consts  --      0.8875                 1.2148                 1.5422
 IR Inten    --      7.5778                 5.2212                26.7332

                     25                     26                     27
                      A                      A                      A
 Frequencies --   1135.2550              1141.8798              1174.7776
 Red. masses --      1.5476                 2.1397                 2.7034
 Frc consts  --      1.1752                 1.6438                 2.1983
 IR Inten    --      6.0242                 6.4209                29.0699

                     28                     29                     30
                      A                      A                      A
 Frequencies --   1240.3258              1245.1965              1265.8531
 Red. masses --      1.3513                 1.8972                 1.6143
 Frc consts  --      1.2248                 1.7332                 1.5241
 IR Inten    --      0.3928                87.9593                 2.7684

                     31                     32                     33
                      A                      A                      A
 Frequencies --   1269.0688              1318.6459              1328.3364
 Red. masses --      1.6361                 1.6698                 1.4934
 Frc consts  --      1.5525                 1.7107                 1.5525
 IR Inten    --      3.1513                 3.9687                 0.7329

                     34                     35                     36
                      A                      A                      A
 Frequencies --   1345.6221              1377.2257              1398.3035
 Red. masses --      1.3919                 1.3416                 1.2424
 Frc consts  --      1.4849                 1.4993                 1.4312
 IR Inten    --      2.2016                13.3083                 8.5040

                     37                     38                     39
                      A                      A                      A
 Frequencies --   1472.6188              1485.6191              1495.3766
 Red. masses --      1.0869                 1.0530                 1.0517
 Frc consts  --      1.3888                 1.3692                 1.3857
 IR Inten    --      3.1066                 7.0515                 1.8516

                     40                     41                     42
                      A                      A                      A
 Frequencies --   1503.3331              1821.1785              2964.7526
 Red. masses --      1.1184                12.1196                 1.0811
 Frc consts  --      1.4892                23.6834                 5.5988
 IR Inten    --      5.1406               179.4520                24.2198

                     43                     44                     45
                      A                      A                      A
 Frequencies --   3050.5961              3063.5143              3066.7941
 Red. masses --      1.0347                 1.0564                 1.0582
 Frc consts  --      5.6734                 5.8417                 5.8641
 IR Inten    --     14.2051                35.5454                 9.6208

                     46                     47                     48
                      A                      A                      A
 Frequencies --   3104.4537              3118.4298              3122.9968
 Red. masses --      1.0902                 1.0925                 1.1052
 Frc consts  --      6.1906                 6.2597                 6.3510
 IR Inten    --     49.3824                15.9288                12.1420

                     49                     50                     51
                      A                      A                      A
 Frequencies --   3124.9476              3126.2423              3143.6756
 Red. masses --      1.1067                 1.1052                 1.1020
 Frc consts  --      6.3676                 6.3641                 6.4166
 IR Inten    --     24.5893                29.1085                 8.5858

 - Thermochemistry -
 -------------------
 Temperature   298.150 Kelvin.  Pressure   1.00000 Atm.
 Atom     1 has atomic number  6 and mass  12.00000

 Molecular mass:   126.06808 amu.
 Principal axes and moments of inertia in atomic units:
                           1         2         3
     Eigenvalues --   712.722241010.511041385.35572
           X            0.99538  -0.09586   0.00451
           Y            0.09589   0.99536  -0.00754
           Z           -0.00377   0.00794   0.99996
 This molecule is an asymmetric top.
 Rotational symmetry number  1.
 Warning -- assumption of classical behavior for rotation
           may cause significant error
 Rotational temperatures (Kelvin)      0.12153     0.08571     0.06252
 Rotational constants (GHZ):           2.53218     1.78597     1.30273
 Zero-point vibrational energy     420299.7 (Joules/Mol)
                                  100.45403 (Kcal/Mol)
 Warning -- explicit consideration of  10 degrees of freedom as
           vibrations may cause significant error
 Vibrational temperatures:     86.22   232.78   302.99   385.01   541.64
          (Kelvin)            574.14   614.14   655.40   675.71   803.76
                              946.35  1095.99  1167.69  1195.40  1252.32
                             1275.46  1326.70  1362.09  1406.12  1457.35
                             1485.35  1526.60  1565.51  1608.81  1633.38
                             1642.91  1690.24  1784.55  1791.56  1821.28
                             1825.90  1897.23  1911.18  1936.05  1981.52
                             2011.84  2118.77  2137.47  2151.51  2162.96
                             2620.27  4265.61  4389.12  4407.71  4412.43
                             4466.61  4486.72  4493.29  4496.10  4497.96
                             4523.04

 Zero-point correction=                           0.160084 (Hartree/Particle)
 Thermal correction to Energy=                    0.167925
 Thermal correction to Enthalpy=                  0.168869
 Thermal correction to Gibbs Free Energy=         0.127619
 Sum of electronic and zero-point Energies=           -423.036401
 Sum of electronic and thermal Energies=              -423.028560
 Sum of electronic and thermal Enthalpies=            -423.027616
 Sum of electronic and thermal Free Energies=         -423.068866

                     E (Thermal)             CV                S
                      KCal/Mol        Cal/Mol-Kelvin    Cal/Mol-Kelvin
 Total                  105.375             30.747             86.819
 Electronic               0.000              0.000              0.000
 Translational            0.889              2.981             40.409
 Rotational               0.889              2.981             28.391
 Vibrational            103.597             24.786             18.019
 Vibration     1          0.597              1.973              4.460
 Vibration     2          0.622              1.889              2.529
 Vibration     3          0.643              1.825              2.039
 Vibration     4          0.673              1.733              1.612
 Vibration     5          0.747              1.520              1.053
 Vibration     6          0.765              1.472              0.966
 Vibration     7          0.789              1.412              0.869
 Vibration     8          0.814              1.349              0.779
 Vibration     9          0.827              1.317              0.739
 Vibration    10          0.914              1.121              0.527

 Normal termination of Gaussian 09 at Tue Jan 28 03:48:13 2020.
