 Gaussian 09, Revision D.01,
 Gaussian 09:  ES64L-G09RevD.01 24-Apr-2013

 -----------------------------
 # b3lyp 6-31G(2df,p) opt Freq
 -----------------------------

 -----
 titel
 -----
 Symbolic Z-matrix:
 Charge =  0 Multiplicity = 1

 SCF Done:  E(RB3LYP) =  -423.161337138     A.U. after   14 cycles
 Optimization completed.
    -- Stationary point found.
 Normal termination of Gaussian 09 at Tue Jan 28 14:11:39 2020.

 ----------------------------------------------------------------------
 #N Geom=AllCheck Guess=TCheck SCRF=Check GenChk RB3LYP/6-31G(2df,p) Fr
 eq
 ----------------------------------------------------------------------

 Structure from the checkpoint file:  "/scratch/puck/g09_ebbe1097-ae62-437a-bba7-68f6d6e27b17/Gau-121159.chk"
 -----
 titel
 -----
 Charge =  0 Multiplicity = 1

                         Standard orientation:
 ---------------------------------------------------------------------
 Center     Atomic      Atomic             Coordinates (Angstroms)
 Number     Number       Type             X           Y           Z
 ---------------------------------------------------------------------
      1          8           0        2.691871    0.192312    0.424946
      2          6           0        1.930309   -0.768815   -0.289724
      3          6           0        0.515005   -0.933542    0.223972
      4          6           0       -0.584750   -1.091823   -0.771158
      5          6           0       -1.918877   -1.413503   -0.090576
      6          6           0       -1.784634   -0.121649    0.779837
      7          6           0       -0.468768    0.216507    0.071988
      8          6           0       -0.098715    1.567105   -0.372378
      9          8           0       -0.754480    2.551348   -0.112122
     10          1           0        2.710993   -0.067550    1.351639
     11          1           0        1.921932   -0.419968   -1.327195
     12          1           0        2.425324   -1.752081   -0.287710
     13          1           0        0.440204   -1.492068    1.159221
     14          1           0       -0.368183   -1.205348   -1.827564
     15          1           0       -2.766149   -1.364783   -0.776987
     16          1           0       -1.954154   -2.369433    0.441398
     17          1           0       -2.557105    0.619219    0.571780
     18          1           0       -1.714960   -0.264008    1.862424
     19          1           0        0.825559    1.641058   -0.981367
 ---------------------------------------------------------------------

 SCF Done:  E(RB3LYP) =  -423.161337138     A.U. after    1 cycles

 The electronic state is 1-A.
 Alpha  occ. eigenvalues --  -19.14504 -19.12283 -10.25891 -10.24301 -10.21612
 Alpha  occ. eigenvalues --  -10.21199 -10.20743 -10.19765 -10.19087  -1.02997
 Alpha  occ. eigenvalues --   -1.02610  -0.91324  -0.76265  -0.69541  -0.67718
 Alpha  occ. eigenvalues --   -0.63004  -0.58138  -0.53684  -0.51280  -0.49160
 Alpha  occ. eigenvalues --   -0.47772  -0.46064  -0.42694  -0.41770  -0.41572
 Alpha  occ. eigenvalues --   -0.39667  -0.37421  -0.35542  -0.34615  -0.33951
 Alpha  occ. eigenvalues --   -0.30004  -0.28134  -0.26754  -0.24018
 Alpha virt. eigenvalues --   -0.01636   0.06222   0.09532   0.10039   0.10409
 Alpha virt. eigenvalues --    0.11397   0.12371   0.14373   0.15287   0.16294
 Alpha virt. eigenvalues --    0.17092   0.18459   0.19485   0.21641   0.22690

 Mulliken charges:
               1
     1  O   -0.409050
     2  C   -0.110986
     3  C   -0.093966
     4  C   -0.113636
     5  C   -0.236782
     6  C   -0.301934
     7  C    0.277104
     8  C    0.053596
     9  O   -0.279159
    10  H    0.286119
    11  H    0.112892
    12  H    0.100855
    13  H    0.082773
    14  H    0.101214
    15  H    0.115346
    16  H    0.103053
    17  H    0.132850
    18  H    0.100294
    19  H    0.079415
 Sum of Mulliken charges =   0.00000

 Dipole moment (field-independent basis, Debye):
    X=              0.2882    Y=             -4.0327    Z=              0.2934  Tot=              4.0537
 Quadrupole moment (field-independent basis, Debye-Ang):
   XX=            -54.8600   YY=            -61.6881   ZZ=            -48.4667
   XY=              0.7089   XZ=              2.3489   YZ=             -0.8355

  Exact polarizability:  83.371  -0.592  84.564  -2.417   0.574  65.607
 Approx polarizability: 111.513  -6.149 134.489  -2.221   4.298 102.468

                      1                      2                      3
                      A                      A                      A
 Frequencies --     72.3093               123.6758               147.2223
 Red. masses --      5.0327                 3.2248                 3.5732
 Frc consts  --      0.0155                 0.0291                 0.0456
 IR Inten    --      0.5142                 7.3020                 0.3957

                      4                      5                      6
                      A                      A                      A
 Frequencies --    204.8793               220.0602               247.1670
 Red. masses --      2.1280                 2.8497                 1.9704
 Frc consts  --      0.0526                 0.0813                 0.0709
 IR Inten    --      7.3440                 6.5832                28.7080

                      7                      8                      9
                      A                      A                      A
 Frequencies --    303.2871               334.7516               386.7037
 Red. masses --      1.4016                 2.0598                 4.0030
 Frc consts  --      0.0760                 0.1360                 0.3527
 IR Inten    --     90.1618                 1.2773                 2.2476

                     10                     11                     12
                      A                      A                      A
 Frequencies --    481.8851               583.7795               691.9218
 Red. masses --      4.1780                 3.2689                 4.6983
 Frc consts  --      0.5716                 0.6564                 1.3253
 IR Inten    --     12.7550                 8.1262                17.1051

                     13                     14                     15
                      A                      A                      A
 Frequencies --    722.0655               785.7102               790.7689
 Red. masses --      3.3876                 2.2012                 1.4694
 Frc consts  --      1.0406                 0.8006                 0.5414
 IR Inten    --      2.3651                 5.3102                 2.4705

                     16                     17                     18
                      A                      A                      A
 Frequencies --    924.5465               938.3439               955.4677
 Red. masses --      1.4126                 2.4574                 2.9172
 Frc consts  --      0.7114                 1.2748                 1.5691
 IR Inten    --      0.2992                 8.8025                15.5705

                     19                     20                     21
                      A                      A                      A
 Frequencies --    979.8663               995.2142              1028.2127
 Red. masses --      1.5746                 1.8744                 2.2345
 Frc consts  --      0.8907                 1.0938                 1.3919
 IR Inten    --      8.9073                 4.1750                28.6575

                     22                     23                     24
                      A                      A                      A
 Frequencies --   1040.1776              1074.6760              1087.2827
 Red. masses --      1.8377                 1.8872                 2.7015
 Frc consts  --      1.1715                 1.2841                 1.8817
 IR Inten    --     30.0069                13.2962                34.7981

                     25                     26                     27
                      A                      A                      A
 Frequencies --   1116.4591              1142.4384              1198.1332
 Red. masses --      1.9285                 1.3536                 1.4174
 Frc consts  --      1.4163                 1.0409                 1.1988
 IR Inten    --     10.2124                 0.6639                47.1561

                     28                     29                     30
                      A                      A                      A
 Frequencies --   1211.4688              1222.9998              1243.6586
 Red. masses --      1.8090                 1.2275                 1.4674
 Frc consts  --      1.5643                 1.0818                 1.3372
 IR Inten    --      9.4094                 8.2377                 4.2207

                     31                     32                     33
                      A                      A                      A
 Frequencies --   1272.2027              1292.7327              1355.9203
 Red. masses --      1.6044                 1.4565                 1.7103
 Frc consts  --      1.5300                 1.4341                 1.8527
 IR Inten    --      7.1142                 9.0951                 6.2608

                     34                     35                     36
                      A                      A                      A
 Frequencies --   1381.8718              1409.7698              1429.8774
 Red. masses --      1.5385                 1.6751                 1.3281
 Frc consts  --      1.7309                 1.9615                 1.5998
 IR Inten    --     19.8347                14.3555                25.7257

                     37                     38                     39
                      A                      A                      A
 Frequencies --   1455.4288              1482.6793              1501.6704
 Red. masses --      1.6638                 1.0830                 1.1336
 Frc consts  --      2.0765                 1.4027                 1.5062
 IR Inten    --     23.7362                 0.8465                 2.5098

                     40                     41                     42
                      A                      A                      A
 Frequencies --   1507.6753              1788.6321              2919.1632
 Red. masses --      1.0839                10.1030                 1.0829
 Frc consts  --      1.4517                19.0433                 5.4368
 IR Inten    --      1.4480               244.0127                84.7866

                     43                     44                     45
                      A                      A                      A
 Frequencies --   2988.7644              3051.6169              3061.2290
 Red. masses --      1.0708                 1.0626                 1.0655
 Frc consts  --      5.6356                 5.8299                 5.8832
 IR Inten    --     57.3270                39.1731                43.9119

                     46                     47                     48
                      A                      A                      A
 Frequencies --   3070.5168              3086.1928              3111.8686
 Red. masses --      1.0879                 1.0915                 1.1028
 Frc consts  --      6.0432                 6.1252                 6.2919
 IR Inten    --      0.6523                44.0486                 8.9661

                     49                     50                     51
                      A                      A                      A
 Frequencies --   3136.1733              3176.8229              3816.2904
 Red. masses --      1.1010                 1.0916                 1.0663
 Frc consts  --      6.3805                 6.4908                 9.1497
 IR Inten    --     17.1885                13.9919                21.5744

 - Thermochemistry -
 -------------------
 Temperature   298.150 Kelvin.  Pressure   1.00000 Atm.
 Atom     1 has atomic number  8 and mass  15.99491

 Molecular mass:   126.06808 amu.
 Principal axes and moments of inertia in atomic units:
                           1         2         3
     Eigenvalues --   867.547491201.424231819.33416
           X            0.99937   0.03418  -0.00962
           Y           -0.03420   0.99941  -0.00190
           Z            0.00955   0.00223   0.99995
 This molecule is an asymmetric top.
 Rotational symmetry number  1.
 Warning -- assumption of classical behavior for rotation
           may cause significant error
 Rotational temperatures (Kelvin)      0.09984     0.07209     0.04761
 Rotational constants (GHZ):           2.08028     1.50217     0.99198
 Zero-point vibrational energy     416014.7 (Joules/Mol)
                                   99.42991 (Kcal/Mol)
 Warning -- explicit consideration of  11 degrees of freedom as
           vibrations may cause significant error
 Vibrational temperatures:    104.04   177.94   211.82   294.78   316.62
          (Kelvin)            355.62   436.36   481.63   556.38   693.32
                              839.93   995.52  1038.89  1130.46  1137.74
                             1330.21  1350.07  1374.70  1409.81  1431.89
                             1479.37  1496.58  1546.22  1564.36  1606.33
                             1643.71  1723.84  1743.03  1759.62  1789.35
                             1830.41  1859.95  1950.86  1988.20  2028.34
                             2057.27  2094.03  2133.24  2160.57  2169.21
                             2573.44  4200.02  4300.16  4390.59  4404.42
                             4417.78  4440.34  4477.28  4512.25  4570.73
                             5490.78

 Zero-point correction=                           0.158452 (Hartree/Particle)
 Thermal correction to Energy=                    0.167412
 Thermal correction to Enthalpy=                  0.168356
 Thermal correction to Gibbs Free Energy=         0.124529
 Sum of electronic and zero-point Energies=           -423.002885
 Sum of electronic and thermal Energies=              -422.993925
 Sum of electronic and thermal Enthalpies=            -422.992981
 Sum of electronic and thermal Free Energies=         -423.036808

                     E (Thermal)             CV                S
                      KCal/Mol        Cal/Mol-Kelvin    Cal/Mol-Kelvin
 Total                  105.053             33.054             92.242
 Electronic               0.000              0.000              0.000
 Translational            0.889              2.981             40.409
 Rotational               0.889              2.981             29.029
 Vibrational            103.275             27.092             22.804
 Vibration     1          0.598              1.967              4.089
 Vibration     2          0.610              1.929              3.042
 Vibration     3          0.617              1.906              2.708
 Vibration     4          0.640              1.833              2.089
 Vibration     5          0.647              1.811              1.959
 Vibration     6          0.661              1.767              1.751
 Vibration     7          0.695              1.667              1.399
 Vibration     8          0.716              1.606              1.237
 Vibration     9          0.755              1.499              1.013
 Vibration    10          0.838              1.290              0.705
 Vibration    11          0.941              1.066              0.478

 Optimization completed.
    -- Stationary point found.
 Normal termination of Gaussian 09 at Tue Jan 28 14:52:15 2020.
