 Gaussian 09, Revision D.01,
 Gaussian 09:  ES64L-G09RevD.01 24-Apr-2013

 -----------------------------
 # b3lyp 6-31G(2df,p) opt Freq
 -----------------------------

 -----
 titel
 -----
 Symbolic Z-matrix:
 Charge =  0 Multiplicity = 1

 SCF Done:  E(RB3LYP) =  -423.183683900     A.U. after   13 cycles
 Optimization completed.
    -- Stationary point found.
 Normal termination of Gaussian 09 at Mon Jan 27 11:19:51 2020.

 ----------------------------------------------------------------------
 #N Geom=AllCheck Guess=TCheck SCRF=Check GenChk RB3LYP/6-31G(2df,p) Fr
 eq
 ----------------------------------------------------------------------

 Structure from the checkpoint file:  "/scratch/puck/g09_21831b85-83a7-4c53-b231-3192987246f5/Gau-32323.chk"
 -----
 titel
 -----
 Charge =  0 Multiplicity = 1

                         Standard orientation:
 ---------------------------------------------------------------------
 Center     Atomic      Atomic             Coordinates (Angstroms)
 Number     Number       Type             X           Y           Z
 ---------------------------------------------------------------------
      1          6           0        1.673929   -0.524773    0.686741
      2          6           0        1.198700   -0.311848   -0.779248
      3          6           0        0.734252    1.137095   -0.922156
      4          8           0        0.115549    1.584376    0.288379
      5          6           0       -0.634470    0.568701    0.942160
      6          6           0       -1.842420    0.134371    0.099712
      7          8           0       -1.321208   -0.776840   -0.876473
      8          6           0       -0.047804   -1.202727   -0.427440
      9          6           0        0.183518   -0.751983    1.027178
     10          1           0        2.258105   -1.439539    0.810115
     11          1           0        2.183858    0.309880    1.171875
     12          1           0        1.842778   -0.612745   -1.608082
     13          1           0        1.582214    1.808725   -1.090915
     14          1           0        0.041081    1.229772   -1.769779
     15          1           0       -0.919600    0.980883    1.912783
     16          1           0       -2.600291   -0.368695    0.718369
     17          1           0       -2.307767    0.983636   -0.409271
     18          1           0        0.085077   -2.261647   -0.658315
     19          1           0       -0.114418   -1.383572    1.866292
 ---------------------------------------------------------------------

 SCF Done:  E(RB3LYP) =  -423.183683900     A.U. after    1 cycles

 The electronic state is 1-A.
 Alpha  occ. eigenvalues --  -19.13815 -19.13684 -10.23533 -10.22816 -10.22468
 Alpha  occ. eigenvalues --  -10.22373 -10.18918 -10.18783 -10.18491  -1.04990
 Alpha  occ. eigenvalues --   -1.01632  -0.84612  -0.77000  -0.69871  -0.65500
 Alpha  occ. eigenvalues --   -0.62274  -0.58873  -0.54460  -0.51332  -0.48874
 Alpha  occ. eigenvalues --   -0.46509  -0.44827  -0.43275  -0.42019  -0.40884
 Alpha  occ. eigenvalues --   -0.38551  -0.37433  -0.36373  -0.33563  -0.31885
 Alpha  occ. eigenvalues --   -0.30049  -0.28854  -0.25687  -0.23745
 Alpha virt. eigenvalues --    0.08091   0.10606   0.11678   0.12669   0.13320
 Alpha virt. eigenvalues --    0.13939   0.14956   0.15405   0.16405   0.17504
 Alpha virt. eigenvalues --    0.18174   0.18494   0.19753   0.20506   0.21846

 Mulliken charges:
               1
     1  C   -0.244489
     2  C   -0.094960
     3  C   -0.082901
     4  O   -0.272911
     5  C    0.080551
     6  C   -0.097447
     7  O   -0.275748
     8  C    0.140420
     9  C   -0.082611
    10  H    0.100245
    11  H    0.110387
    12  H    0.067594
    13  H    0.105736
    14  H    0.107033
    15  H    0.084521
    16  H    0.094389
    17  H    0.115439
    18  H    0.076818
    19  H    0.067935
 Sum of Mulliken charges =   0.00000

 Dipole moment (field-independent basis, Debye):
    X=              0.6288    Y=             -0.7198    Z=              0.7363  Tot=              1.2065
 Quadrupole moment (field-independent basis, Debye-Ang):
   XX=            -51.8887   YY=            -54.9816   ZZ=            -52.4680
   XY=             -2.0480   XZ=             -3.5364   YZ=             -2.1896

  Exact polarizability:  78.933  -1.907  69.782  -3.644  -2.354  69.877
 Approx polarizability: 109.637  -1.090 104.519  -3.494  -0.272 106.343

                      1                      2                      3
                      A                      A                      A
 Frequencies --    188.9577               276.0575               370.0679
 Red. masses --      3.2747                 2.7843                 2.3464
 Frc consts  --      0.0689                 0.1250                 0.1893
 IR Inten    --      4.8949                 3.6414                 1.5387

                      4                      5                      6
                      A                      A                      A
 Frequencies --    404.9810               409.2360               540.6950
 Red. masses --      2.8413                 2.5148                 4.6997
 Frc consts  --      0.2746                 0.2481                 0.8095
 IR Inten    --      3.0223                 1.3678                 3.1535

                      7                      8                      9
                      A                      A                      A
 Frequencies --    598.7923               672.2827               750.1847
 Red. masses --      4.2680                 5.1187                 4.4690
 Frc consts  --      0.9016                 1.3631                 1.4818
 IR Inten    --      1.7974                 1.6659                12.5768

                     10                     11                     12
                      A                      A                      A
 Frequencies --    797.5758               825.0237               842.7350
 Red. masses --      2.3821                 3.3610                 2.5396
 Frc consts  --      0.8928                 1.3479                 1.0627
 IR Inten    --      0.2201                 6.8775                 2.0863

                     13                     14                     15
                      A                      A                      A
 Frequencies --    868.6797               899.3071               916.4835
 Red. masses --      2.2262                 2.1819                 2.8887
 Frc consts  --      0.9898                 1.0397                 1.4296
 IR Inten    --      4.1352                 7.8016                16.6839

                     16                     17                     18
                      A                      A                      A
 Frequencies --    944.9838               982.2269               985.4380
 Red. masses --      1.9923                 2.1822                 2.1587
 Frc consts  --      1.0482                 1.2404                 1.2351
 IR Inten    --     14.0126                 5.1649                 3.7268

                     19                     20                     21
                      A                      A                      A
 Frequencies --   1008.9961              1036.9704              1060.5076
 Red. masses --      2.0252                 2.2589                 2.3599
 Frc consts  --      1.2148                 1.4311                 1.5638
 IR Inten    --     26.2698                30.7604                16.8095

                     22                     23                     24
                      A                      A                      A
 Frequencies --   1061.2881              1092.6359              1121.1841
 Red. masses --      1.7297                 1.7396                 3.5431
 Frc consts  --      1.1478                 1.2236                 2.6241
 IR Inten    --     15.6047                20.7321                70.1331

                     25                     26                     27
                      A                      A                      A
 Frequencies --   1147.5122              1164.5845              1216.8976
 Red. masses --      2.2573                 1.8187                 1.1786
 Frc consts  --      1.7512                 1.4533                 1.0284
 IR Inten    --     30.3139                21.4532                 4.3190

                     28                     29                     30
                      A                      A                      A
 Frequencies --   1228.6199              1238.2310              1253.3897
 Red. masses --      1.6379                 1.4107                 1.4323
 Frc consts  --      1.4567                 1.2743                 1.3258
 IR Inten    --      6.0533                 1.2049                16.6196

                     31                     32                     33
                      A                      A                      A
 Frequencies --   1275.6226              1290.9764              1310.3442
 Red. masses --      1.5724                 1.3068                 1.5042
 Frc consts  --      1.5075                 1.2832                 1.5216
 IR Inten    --      2.6851                 1.0645                 2.4167

                     34                     35                     36
                      A                      A                      A
 Frequencies --   1319.7964              1344.3531              1363.0139
 Red. masses --      1.6102                 1.3939                 1.2736
 Frc consts  --      1.6525                 1.4842                 1.3941
 IR Inten    --      5.7028                 2.3941                 3.7879

                     37                     38                     39
                      A                      A                      A
 Frequencies --   1386.3132              1406.0176              1487.1904
 Red. masses --      1.4306                 1.3570                 1.1199
 Frc consts  --      1.6199                 1.5806                 1.4594
 IR Inten    --      3.3724                 4.5834                 3.5565

                     40                     41                     42
                      A                      A                      A
 Frequencies --   1504.8900              1507.8612              2996.0412
 Red. masses --      1.0920                 1.0905                 1.0685
 Frc consts  --      1.4570                 1.4608                 5.6511
 IR Inten    --      1.5298                 1.3558                65.1419

                     43                     44                     45
                      A                      A                      A
 Frequencies --   3010.2003              3066.8407              3073.8770
 Red. masses --      1.0644                 1.0585                 1.0991
 Frc consts  --      5.6826                 5.8656                 6.1187
 IR Inten    --     50.1228                30.0119                20.6654

                     46                     47                     48
                      A                      A                      A
 Frequencies --   3082.1739              3085.2913              3087.0969
 Red. masses --      1.0881                 1.0954                 1.0879
 Frc consts  --      6.0905                 6.1436                 6.1085
 IR Inten    --      6.9848                17.9803                41.1754

                     49                     50                     51
                      A                      A                      A
 Frequencies --   3092.5896              3100.6510              3124.4307
 Red. masses --      1.0871                 1.0908                 1.1088
 Frc consts  --      6.1257                 6.1787                 6.3776
 IR Inten    --    104.4791                22.8999                20.8529

 - Thermochemistry -
 -------------------
 Temperature   298.150 Kelvin.  Pressure   1.00000 Atm.
 Atom     1 has atomic number  6 and mass  12.00000

 Molecular mass:   126.06808 amu.
 Principal axes and moments of inertia in atomic units:
                           1         2         3
     Eigenvalues --   692.59062 856.80610 983.76392
           X            0.99668  -0.07295  -0.03626
           Y            0.06883   0.99217  -0.10424
           Z            0.04358   0.10140   0.99389
 This molecule is an asymmetric top.
 Rotational symmetry number  1.
 Warning -- assumption of classical behavior for rotation
           may cause significant error
 Rotational temperatures (Kelvin)      0.12506     0.10109     0.08804
 Rotational constants (GHZ):           2.60578     2.10636     1.83453
 Zero-point vibrational energy     429579.6 (Joules/Mol)
                                  102.67198 (Kcal/Mol)
 Warning -- explicit consideration of   7 degrees of freedom as
           vibrations may cause significant error
 Vibrational temperatures:    271.87   397.18   532.44   582.68   588.80
          (Kelvin)            777.94   861.53   967.26  1079.35  1147.53
                             1187.02  1212.51  1249.83  1293.90  1318.61
                             1359.62  1413.20  1417.82  1451.72  1491.97
                             1525.83  1526.96  1572.06  1613.13  1651.01
                             1675.58  1750.84  1767.71  1781.54  1803.35
                             1835.33  1857.42  1885.29  1898.89  1934.22
                             1961.07  1994.59  2022.94  2139.73  2165.20
                             2169.47  4310.63  4331.00  4412.49  4422.62
                             4434.56  4439.04  4441.64  4449.54  4461.14
                             4495.35

 Zero-point correction=                           0.163618 (Hartree/Particle)
 Thermal correction to Energy=                    0.169872
 Thermal correction to Enthalpy=                  0.170816
 Thermal correction to Gibbs Free Energy=         0.133352
 Sum of electronic and zero-point Energies=           -423.020066
 Sum of electronic and thermal Energies=              -423.013812
 Sum of electronic and thermal Enthalpies=            -423.012868
 Sum of electronic and thermal Free Energies=         -423.050332

                     E (Thermal)             CV                S
                      KCal/Mol        Cal/Mol-Kelvin    Cal/Mol-Kelvin
 Total                  106.596             26.768             78.849
 Electronic               0.000              0.000              0.000
 Translational            0.889              2.981             40.409
 Rotational               0.889              2.981             27.859
 Vibrational            104.819             20.807             10.582
 Vibration     1          0.633              1.855              2.238
 Vibration     2          0.678              1.718              1.558
 Vibration     3          0.742              1.534              1.080
 Vibration     4          0.770              1.459              0.945
 Vibration     5          0.774              1.450              0.929
 Vibration     6          0.896              1.160              0.564
 Vibration     7          0.957              1.034              0.452

 Normal termination of Gaussian 09 at Mon Jan 27 12:11:18 2020.
