 Gaussian 09, Revision D.01,
 Gaussian 09:  ES64L-G09RevD.01 24-Apr-2013

 -----------------------------
 # b3lyp 6-31G(2df,p) opt Freq
 -----------------------------

 -----
 titel
 -----
 Symbolic Z-matrix:
 Charge =  0 Multiplicity = 1

 SCF Done:  E(RB3LYP) =  -423.201496551     A.U. after   14 cycles
 Optimization completed.
    -- Stationary point found.
 Normal termination of Gaussian 09 at Tue Jan 28 02:21:03 2020.

 ----------------------------------------------------------------------
 #N Geom=AllCheck Guess=TCheck SCRF=Check GenChk RB3LYP/6-31G(2df,p) Fr
 eq
 ----------------------------------------------------------------------

 Structure from the checkpoint file:  "/scratch/puck/g09_5eaee4a1-cc1f-4444-a121-e2061fa066ca/Gau-86163.chk"
 -----
 titel
 -----
 Charge =  0 Multiplicity = 1

                         Standard orientation:
 ---------------------------------------------------------------------
 Center     Atomic      Atomic             Coordinates (Angstroms)
 Number     Number       Type             X           Y           Z
 ---------------------------------------------------------------------
      1          6           0       -3.248960   -0.571146   -0.413281
      2          6           0       -2.083035   -0.061756    0.403948
      3          6           0       -1.562268    1.340001    0.214376
      4          6           0       -0.732543    0.161352   -0.239472
      5          6           0        0.535923   -0.190998    0.487992
      6          6           0        1.244668   -1.525269    0.167454
      7          8           0        2.436261   -0.801285   -0.276500
      8          6           0        1.846537    0.418184   -0.043189
      9          8           0        2.304816    1.495807   -0.241324
     10          1           0       -3.239187   -1.664145   -0.489597
     11          1           0       -4.204316   -0.276048    0.034248
     12          1           0       -3.222210   -0.166217   -1.430520
     13          1           0       -2.052569   -0.434960    1.425372
     14          1           0       -2.019325    1.956565   -0.552132
     15          1           0       -1.226015    1.893185    1.084606
     16          1           0       -0.688646    0.000087   -1.314396
     17          1           0        0.428136   -0.008976    1.561806
     18          1           0        1.478774   -2.176725    1.011621
     19          1           0        0.814814   -2.101147   -0.655385
 ---------------------------------------------------------------------

 SCF Done:  E(RB3LYP) =  -423.201496551     A.U. after    1 cycles

 The electronic state is 1-A.
 Alpha  occ. eigenvalues --  -19.17846 -19.13206 -10.30396 -10.25249 -10.21671
 Alpha  occ. eigenvalues --  -10.20641 -10.20308 -10.19256 -10.18701  -1.10250
 Alpha  occ. eigenvalues --   -1.03004  -0.87723  -0.77606  -0.71722  -0.67564
 Alpha  occ. eigenvalues --   -0.60721  -0.58194  -0.54536  -0.51128  -0.50636
 Alpha  occ. eigenvalues --   -0.46984  -0.46279  -0.44776  -0.41796  -0.40296
 Alpha  occ. eigenvalues --   -0.39806  -0.39275  -0.36748  -0.36157  -0.35534
 Alpha  occ. eigenvalues --   -0.30143  -0.29889  -0.29138  -0.26129
 Alpha virt. eigenvalues --    0.01111   0.08539   0.08988   0.09295   0.10194
 Alpha virt. eigenvalues --    0.11774   0.12628   0.14388   0.14980   0.15808
 Alpha virt. eigenvalues --    0.16393   0.17539   0.18057   0.18257   0.22493

 Mulliken charges:
               1
     1  C   -0.409096
     2  C   -0.004578
     3  C   -0.287662
     4  C   -0.000813
     5  C   -0.211359
     6  C   -0.098319
     7  O   -0.240595
     8  C    0.447699
     9  O   -0.321073
    10  H    0.117764
    11  H    0.122600
    12  H    0.117964
    13  H    0.082998
    14  H    0.117946
    15  H    0.119113
    16  H    0.089474
    17  H    0.109195
    18  H    0.124111
    19  H    0.124632
 Sum of Mulliken charges =   0.00000

 Dipole moment (field-independent basis, Debye):
    X=             -3.3432    Y=             -2.3276    Z=              1.0675  Tot=              4.2112
 Quadrupole moment (field-independent basis, Debye-Ang):
   XX=            -62.0765   YY=            -54.7734   ZZ=            -50.5968
   XY=             -4.5070   XZ=              2.9894   YZ=             -0.0297

  Exact polarizability:  86.872   1.965  79.930  -0.264  -0.606  61.833
 Approx polarizability: 109.703   4.521 124.221  -3.764  -1.739  95.733

                      1                      2                      3
                      A                      A                      A
 Frequencies --     53.7268                98.7519               115.3317
 Red. masses --      3.3866                 4.5109                 4.3481
 Frc consts  --      0.0058                 0.0259                 0.0341
 IR Inten    --      1.6393                 1.9826                 3.0937

                      4                      5                      6
                      A                      A                      A
 Frequencies --    205.5336               211.4240               276.3312
 Red. masses --      2.9264                 1.1303                 2.9949
 Frc consts  --      0.0728                 0.0298                 0.1347
 IR Inten    --      0.7219                 0.0973                 0.2758

                      7                      8                      9
                      A                      A                      A
 Frequencies --    343.6959               355.0331               421.8537
 Red. masses --      2.5913                 2.7257                 2.6997
 Frc consts  --      0.1803                 0.2024                 0.2831
 IR Inten    --      0.7908                 0.6184                 0.3903

                     10                     11                     12
                      A                      A                      A
 Frequencies --    537.1930               669.9617               750.6847
 Red. masses --      3.9371                 4.3168                 3.8754
 Frc consts  --      0.6694                 1.1416                 1.2867
 IR Inten    --      4.9538                 3.7483                 1.7504

                     13                     14                     15
                      A                      A                      A
 Frequencies --    792.5798               827.4998               876.3529
 Red. masses --      2.3634                 1.8424                 1.7845
 Frc consts  --      0.8747                 0.7433                 0.8075
 IR Inten    --      2.4053                 1.9521                 1.8284

                     16                     17                     18
                      A                      A                      A
 Frequencies --    891.1939               924.2466               946.5413
 Red. masses --      2.6446                 1.5376                 3.0504
 Frc consts  --      1.2375                 0.7739                 1.6102
 IR Inten    --      2.0911                 1.6843                40.2539

                     19                     20                     21
                      A                      A                      A
 Frequencies --    964.8969              1016.5400              1043.9136
 Red. masses --      2.9615                 2.5597                 1.5537
 Frc consts  --      1.6245                 1.5585                 0.9975
 IR Inten    --     50.3791                 0.4703                19.9215

                     22                     23                     24
                      A                      A                      A
 Frequencies --   1071.1699              1096.2932              1110.0441
 Red. masses --      1.4781                 2.2400                 1.4837
 Frc consts  --      0.9992                 1.5862                 1.0771
 IR Inten    --      2.6026                 4.1561                25.1928

                     25                     26                     27
                      A                      A                      A
 Frequencies --   1114.3047              1137.2718              1157.1538
 Red. masses --      2.6177                 1.4758                 1.1573
 Frc consts  --      1.9151                 1.1246                 0.9130
 IR Inten    --    116.2148                 1.6187                 1.2430

                     28                     29                     30
                      A                      A                      A
 Frequencies --   1193.6267              1200.8705              1222.9041
 Red. masses --      1.6573                 1.8202                 1.5918
 Frc consts  --      1.3912                 1.5466                 1.4025
 IR Inten    --      1.0256                 1.1740                 1.7401

                     31                     32                     33
                      A                      A                      A
 Frequencies --   1234.3530              1280.3632              1342.0780
 Red. masses --      1.7239                 1.3246                 1.5369
 Frc consts  --      1.5475                 1.2794                 1.6310
 IR Inten    --      0.9853                11.1321                18.2828

                     34                     35                     36
                      A                      A                      A
 Frequencies --   1371.0474              1418.1396              1444.1090
 Red. masses --      1.4984                 1.2511                 1.5842
 Frc consts  --      1.6595                 1.4824                 1.9465
 IR Inten    --      7.3919                 2.1328                 0.2383

                     37                     38                     39
                      A                      A                      A
 Frequencies --   1492.7868              1494.2540              1505.3960
 Red. masses --      1.0807                 1.2075                 1.2530
 Frc consts  --      1.4189                 1.5885                 1.6730
 IR Inten    --      3.0512                 3.7825                 3.2910

                     40                     41                     42
                      A                      A                      A
 Frequencies --   1517.2235              1938.0269              3027.3213
 Red. masses --      1.0968                12.8426                 1.0352
 Frc consts  --      1.4876                28.4198                 5.5898
 IR Inten    --      2.6325               386.1854                32.4107

                     43                     44                     45
                      A                      A                      A
 Frequencies --   3066.4907              3070.3131              3090.4590
 Red. masses --      1.0767                 1.0636                 1.1012
 Frc consts  --      5.9653                 5.9073                 6.1970
 IR Inten    --     12.5721                19.9302                24.7782

                     46                     47                     48
                      A                      A                      A
 Frequencies --   3095.1547              3126.3258              3130.2480
 Red. masses --      1.0993                 1.0886                 1.1053
 Frc consts  --      6.2047                 6.2689                 6.3810
 IR Inten    --     15.1351                 9.9490                 5.4002

                     49                     50                     51
                      A                      A                      A
 Frequencies --   3134.3510              3134.6726              3218.2019
 Red. masses --      1.0665                 1.0835                 1.1164
 Frc consts  --      6.1733                 6.2728                 6.8124
 IR Inten    --     17.5135                33.3783                 8.7178

 - Thermochemistry -
 -------------------
 Temperature   298.150 Kelvin.  Pressure   1.00000 Atm.
 Atom     1 has atomic number  6 and mass  12.00000

 Molecular mass:   126.06808 amu.
 Principal axes and moments of inertia in atomic units:
                           1         2         3
     Eigenvalues --   514.544991893.427402250.39479
           X            0.99991  -0.00751   0.01093
           Y            0.00745   0.99996   0.00505
           Z           -0.01096  -0.00497   0.99993
 This molecule is an asymmetric top.
 Rotational symmetry number  1.
 Warning -- assumption of classical behavior for rotation
           may cause significant error
 Rotational temperatures (Kelvin)      0.16833     0.04574     0.03849
 Rotational constants (GHZ):           3.50745     0.95316     0.80197
 Zero-point vibrational energy     417246.9 (Joules/Mol)
                                   99.72441 (Kcal/Mol)
 Warning -- explicit consideration of  10 degrees of freedom as
           vibrations may cause significant error
 Vibrational temperatures:     77.30   142.08   165.94   295.72   304.19
          (Kelvin)            397.58   494.50   510.81   606.95   772.90
                              963.92  1080.07  1140.34  1190.59  1260.87
                             1282.23  1329.78  1361.86  1388.27  1462.57
                             1501.96  1541.17  1577.32  1597.10  1603.23
                             1636.28  1664.88  1717.36  1727.78  1759.48
                             1775.96  1842.15  1930.95  1972.63  2040.38
                             2077.75  2147.78  2149.90  2165.93  2182.94
                             2788.38  4355.63  4411.99  4417.49  4446.48
                             4453.23  4498.08  4503.72  4509.63  4510.09
                             4630.27

 Zero-point correction=                           0.158921 (Hartree/Particle)
 Thermal correction to Energy=                    0.167737
 Thermal correction to Enthalpy=                  0.168681
 Thermal correction to Gibbs Free Energy=         0.124563
 Sum of electronic and zero-point Energies=           -423.042576
 Sum of electronic and thermal Energies=              -423.033760
 Sum of electronic and thermal Enthalpies=            -423.032816
 Sum of electronic and thermal Free Energies=         -423.076933

                     E (Thermal)             CV                S
                      KCal/Mol        Cal/Mol-Kelvin    Cal/Mol-Kelvin
 Total                  105.256             32.201             92.854
 Electronic               0.000              0.000              0.000
 Translational            0.889              2.981             40.409
 Rotational               0.889              2.981             29.174
 Vibrational            103.479             26.240             23.271
 Vibration     1          0.596              1.976              4.675
 Vibration     2          0.604              1.950              3.479
 Vibration     3          0.608              1.937              3.177
 Vibration     4          0.640              1.832              2.083
 Vibration     5          0.643              1.823              2.031
 Vibration     6          0.678              1.717              1.556
 Vibration     7          0.722              1.588              1.195
 Vibration     8          0.731              1.565              1.144
 Vibration     9          0.784              1.423              0.886
 Vibration    10          0.892              1.168              0.571

 Normal termination of Gaussian 09 at Tue Jan 28 02:59:01 2020.
