 Gaussian 09, Revision D.01,
 Gaussian 09:  ES64L-G09RevD.01 24-Apr-2013

 -----------------------------
 # b3lyp 6-31G(2df,p) opt Freq
 -----------------------------

 -----
 titel
 -----
 Symbolic Z-matrix:
 Charge =  0 Multiplicity = 1

 SCF Done:  E(RB3LYP) =  -423.191459475     A.U. after   14 cycles
 Optimization completed.
    -- Stationary point found.
 Normal termination of Gaussian 09 at Tue Jan 28 02:52:27 2020.

 ----------------------------------------------------------------------
 #N Geom=AllCheck Guess=TCheck SCRF=Check GenChk RB3LYP/6-31G(2df,p) Fr
 eq
 ----------------------------------------------------------------------

 Structure from the checkpoint file:  "/scratch/puck/g09_c73cb8e3-e5d4-4c1f-b101-5fed599dd843/Gau-196317.chk"
 -----
 titel
 -----
 Charge =  0 Multiplicity = 1

                         Standard orientation:
 ---------------------------------------------------------------------
 Center     Atomic      Atomic             Coordinates (Angstroms)
 Number     Number       Type             X           Y           Z
 ---------------------------------------------------------------------
      1          6           0       -3.168622   -0.260337   -0.321809
      2          6           0       -1.666098   -0.106088   -0.479121
      3          6           0       -1.087516    1.267431   -0.051581
      4          6           0        0.246430    0.910763    0.581774
      5          6           0        0.191006   -0.553580    0.805004
      6          8           0       -1.009791   -1.087042    0.348546
      7          6           0        1.173154    0.004135   -0.242317
      8          6           0        2.606846   -0.015044    0.100531
      9          8           0        3.503746   -0.227009   -0.679355
     10          1           0       -3.693608    0.446080   -0.972431
     11          1           0       -3.480420   -1.272596   -0.592704
     12          1           0       -3.467881   -0.071956    0.713678
     13          1           0       -1.391353   -0.304039   -1.524794
     14          1           0       -1.008679    1.951802   -0.900620
     15          1           0       -1.727636    1.738282    0.703083
     16          1           0        0.699401    1.588848    1.296052
     17          1           0        0.573896   -1.064494    1.680391
     18          1           0        0.952567   -0.163658   -1.290824
     19          1           0        2.820861    0.180450    1.179764
 ---------------------------------------------------------------------

 SCF Done:  E(RB3LYP) =  -423.191459475     A.U. after    1 cycles

 The electronic state is 1-A.
 Alpha  occ. eigenvalues --  -19.15584 -19.12862 -10.26698 -10.25447 -10.24654
 Alpha  occ. eigenvalues --  -10.21252 -10.20274 -10.20274 -10.18597  -1.05949
 Alpha  occ. eigenvalues --   -1.03638  -0.86980  -0.79302  -0.72050  -0.66081
 Alpha  occ. eigenvalues --   -0.61136  -0.59120  -0.56913  -0.51324  -0.49874
 Alpha  occ. eigenvalues --   -0.47458  -0.44083  -0.42467  -0.42109  -0.41981
 Alpha  occ. eigenvalues --   -0.40204  -0.38809  -0.38377  -0.36568  -0.34001
 Alpha  occ. eigenvalues --   -0.33489  -0.29599  -0.25773  -0.23795
 Alpha virt. eigenvalues --   -0.01769   0.08328   0.08541   0.10895   0.12140
 Alpha virt. eigenvalues --    0.12390   0.13487   0.13947   0.15357   0.16394
 Alpha virt. eigenvalues --    0.17341   0.17537   0.17657   0.19736   0.22323

 Mulliken charges:
               1
     1  C   -0.409450
     2  C    0.140199
     3  C   -0.264874
     4  C   -0.106939
     5  C    0.107906
     6  O   -0.266747
     7  C   -0.163630
     8  C    0.153879
     9  O   -0.271861
    10  H    0.120186
    11  H    0.132577
    12  H    0.124611
    13  H    0.086806
    14  H    0.116435
    15  H    0.111819
    16  H    0.103261
    17  H    0.116396
    18  H    0.109764
    19  H    0.059661
 Sum of Mulliken charges =   0.00000

 Dipole moment (field-independent basis, Debye):
    X=             -3.0995    Y=              1.6800    Z=              1.1210  Tot=              3.6994
 Quadrupole moment (field-independent basis, Debye-Ang):
   XX=            -64.1143   YY=            -53.8878   ZZ=            -51.4683
   XY=             -0.3608   XZ=              6.7114   YZ=              0.1196

  Exact polarizability: 103.050  -1.993  63.616  -0.477   1.393  68.545
 Approx polarizability: 133.445  -2.656  99.163 -10.306   1.874 109.820

                      1                      2                      3
                      A                      A                      A
 Frequencies --     90.3007               101.8642               193.5321
 Red. masses --      3.7142                 5.5165                 3.7192
 Frc consts  --      0.0178                 0.0337                 0.0821
 IR Inten    --      0.9070                 4.0914                 5.5731

                      4                      5                      6
                      A                      A                      A
 Frequencies --    224.4946               240.0123               286.8600
 Red. masses --      1.6403                 1.2108                 2.6631
 Frc consts  --      0.0487                 0.0411                 0.1291
 IR Inten    --      2.6830                 0.5964                 2.7502

                      7                      8                      9
                      A                      A                      A
 Frequencies --    347.0352               367.3871               485.7506
 Red. masses --      3.9190                 2.5366                 2.7772
 Frc consts  --      0.2781                 0.2017                 0.3861
 IR Inten    --      1.7507                 0.6548                 0.6487

                     10                     11                     12
                      A                      A                      A
 Frequencies --    521.0280               651.5497               698.4707
 Red. masses --      4.1964                 3.7064                 5.2242
 Frc consts  --      0.6712                 0.9270                 1.5016
 IR Inten    --     33.7996                 9.1872                 7.9892

                     13                     14                     15
                      A                      A                      A
 Frequencies --    795.4392               825.8871               870.8511
 Red. masses --      4.1193                 3.0913                 1.7737
 Frc consts  --      1.5356                 1.2423                 0.7925
 IR Inten    --     21.7126                10.3707                41.3876

                     16                     17                     18
                      A                      A                      A
 Frequencies --    900.2092               923.2924               975.7094
 Red. masses --      1.6923                 2.0402                 1.7413
 Frc consts  --      0.8080                 1.0247                 0.9767
 IR Inten    --      6.5854                 9.3989                37.4842

                     19                     20                     21
                      A                      A                      A
 Frequencies --    991.1876              1025.5002              1046.9448
 Red. masses --      1.6969                 1.5763                 1.7629
 Frc consts  --      0.9822                 0.9767                 1.1385
 IR Inten    --     31.6939                 1.5302                 7.4043

                     22                     23                     24
                      A                      A                      A
 Frequencies --   1067.5515              1090.2461              1114.8937
 Red. masses --      1.5311                 1.7865                 2.2511
 Frc consts  --      1.0281                 1.2511                 1.6486
 IR Inten    --     17.1594                25.1578                11.0528

                     25                     26                     27
                      A                      A                      A
 Frequencies --   1148.8961              1153.6394              1156.8797
 Red. masses --      1.9206                 2.2257                 2.8294
 Frc consts  --      1.4937                 1.7452                 2.2311
 IR Inten    --      5.2668                 2.8369               200.4165

                     28                     29                     30
                      A                      A                      A
 Frequencies --   1207.4128              1225.4530              1254.8661
 Red. masses --      1.8921                 1.3842                 1.4329
 Frc consts  --      1.6252                 1.2247                 1.3294
 IR Inten    --      4.1872                 5.6498                 2.1583

                     31                     32                     33
                      A                      A                      A
 Frequencies --   1303.7944              1315.8858              1369.9600
 Red. masses --      1.5286                 1.3540                 1.3379
 Frc consts  --      1.5309                 1.3814                 1.4794
 IR Inten    --      7.1371                 0.1525                 5.9132

                     34                     35                     36
                      A                      A                      A
 Frequencies --   1393.3503              1412.0909              1415.4328
 Red. masses --      1.3533                 1.5431                 1.5413
 Frc consts  --      1.5480                 1.8129                 1.8194
 IR Inten    --     16.0963                 1.6564                29.8590

                     37                     38                     39
                      A                      A                      A
 Frequencies --   1447.0603              1484.1864              1491.9757
 Red. masses --      1.4168                 1.0527                 1.0900
 Frc consts  --      1.7479                 1.3662                 1.4296
 IR Inten    --     24.7684                 2.5207                 3.2054

                     40                     41                     42
                      A                      A                      A
 Frequencies --   1500.2930              1814.3474              2830.5818
 Red. masses --      1.0531                 9.9820                 1.0803
 Frc consts  --      1.3967                19.3602                 5.0998
 IR Inten    --      3.2204               300.8102               107.9982

                     43                     44                     45
                      A                      A                      A
 Frequencies --   2997.2234              3041.2651              3045.1790
 Red. masses --      1.0836                 1.0401                 1.0568
 Frc consts  --      5.7355                 5.6683                 5.7737
 IR Inten    --     28.4595                 8.1880                34.2450

                     46                     47                     48
                      A                      A                      A
 Frequencies --   3096.9550              3116.0775              3122.7858
 Red. masses --      1.1022                 1.1016                 1.1022
 Frc consts  --      6.2285                 6.3022                 6.3327
 IR Inten    --     14.6830                23.1813                19.2721

                     49                     50                     51
                      A                      A                      A
 Frequencies --   3174.6457              3180.6911              3190.1018
 Red. masses --      1.0899                 1.0893                 1.0927
 Frc consts  --      6.4720                 6.4932                 6.5519
 IR Inten    --      7.0227                 3.1219                12.0045

 - Thermochemistry -
 -------------------
 Temperature   298.150 Kelvin.  Pressure   1.00000 Atm.
 Atom     1 has atomic number  6 and mass  12.00000

 Molecular mass:   126.06808 amu.
 Principal axes and moments of inertia in atomic units:
                           1         2         3
     Eigenvalues --   375.073822042.855802139.88242
           X            0.99984  -0.00251   0.01786
           Y            0.00193   0.99948   0.03220
           Z           -0.01793  -0.03216   0.99932
 This molecule is an asymmetric top.
 Rotational symmetry number  1.
 Rotational temperatures (Kelvin)      0.23092     0.04240     0.04048
 Rotational constants (GHZ):           4.81170     0.88344     0.84338
 Zero-point vibrational energy     417060.2 (Joules/Mol)
                                   99.67979 (Kcal/Mol)
 Warning -- explicit consideration of  10 degrees of freedom as
           vibrations may cause significant error
 Vibrational temperatures:    129.92   146.56   278.45   323.00   345.32
          (Kelvin)            412.73   499.31   528.59   698.89   749.64
                              937.43  1004.94  1144.46  1188.27  1252.96
                             1295.20  1328.41  1403.83  1426.10  1475.46
                             1506.32  1535.97  1568.62  1604.08  1653.00
                             1659.83  1664.49  1737.20  1763.15  1805.47
                             1875.87  1893.26  1971.06  2004.72  2031.68
                             2036.49  2081.99  2135.41  2146.62  2158.58
                             2610.44  4072.57  4312.33  4375.70  4381.33
                             4455.82  4483.33  4492.99  4567.60  4576.30
                             4589.84

 Zero-point correction=                           0.158850 (Hartree/Particle)
 Thermal correction to Energy=                    0.167311
 Thermal correction to Enthalpy=                  0.168256
 Thermal correction to Gibbs Free Energy=         0.125567
 Sum of electronic and zero-point Energies=           -423.032610
 Sum of electronic and thermal Energies=              -423.024148
 Sum of electronic and thermal Enthalpies=            -423.023204
 Sum of electronic and thermal Free Energies=         -423.065892

                     E (Thermal)             CV                S
                      KCal/Mol        Cal/Mol-Kelvin    Cal/Mol-Kelvin
 Total                  104.989             31.804             89.845
 Electronic               0.000              0.000              0.000
 Translational            0.889              2.981             40.409
 Rotational               0.889              2.981             28.885
 Vibrational            103.212             25.842             20.552
 Vibration     1          0.602              1.956              3.654
 Vibration     2          0.604              1.948              3.418
 Vibration     3          0.635              1.849              2.194
 Vibration     4          0.649              1.804              1.923
 Vibration     5          0.657              1.779              1.803
 Vibration     6          0.684              1.698              1.492
 Vibration     7          0.725              1.581              1.180
 Vibration     8          0.740              1.539              1.091
 Vibration     9          0.842              1.282              0.695
 Vibration    10          0.876              1.203              0.608

 Optimization completed.
    -- Stationary point found.
 Normal termination of Gaussian 09 at Tue Jan 28 03:35:22 2020.
