 Gaussian 09, Revision D.01,
 Gaussian 09:  ES64L-G09RevD.01 24-Apr-2013

 -----------------------------
 # b3lyp 6-31G(2df,p) opt Freq
 -----------------------------

 -----
 titel
 -----
 Symbolic Z-matrix:
 Charge =  0 Multiplicity = 1

 SCF Done:  E(RB3LYP) =  -423.145458857     A.U. after   14 cycles
 Optimization completed.
    -- Stationary point found.
 Normal termination of Gaussian 09 at Tue Jan 28 12:09:34 2020.

 ----------------------------------------------------------------------
 #N Geom=AllCheck Guess=TCheck SCRF=Check GenChk RB3LYP/6-31G(2df,p) Fr
 eq
 ----------------------------------------------------------------------

 Structure from the checkpoint file:  "/scratch/puck/g09_0a7fcbc0-721d-4b27-aa5d-45c89ecf5937/Gau-128762.chk"
 -----
 titel
 -----
 Charge =  0 Multiplicity = 1

                         Standard orientation:
 ---------------------------------------------------------------------
 Center     Atomic      Atomic             Coordinates (Angstroms)
 Number     Number       Type             X           Y           Z
 ---------------------------------------------------------------------
      1          8           0       -2.543685   -0.873567    0.073595
      2          6           0       -2.144619    0.485990    0.084873
      3          6           0       -0.682533    0.567586   -0.192406
      4          6           0        0.171368   -0.420049   -0.441114
      5          6           0        0.586991   -1.804890   -0.023522
      6          8           0        1.878834   -1.245490    0.383647
      7          6           0        1.602258   -0.007263   -0.361649
      8          6           0        1.546176    1.368471    0.321748
      9          6           0        0.114076    1.871174   -0.067561
     10          1           0       -3.493730   -0.909953    0.215830
     11          1           0       -2.699720    1.076704   -0.666185
     12          1           0       -2.355029    0.960430    1.060789
     13          1           0        0.034192   -2.257196    0.804403
     14          1           0        0.716897   -2.539368   -0.829052
     15          1           0        2.193064   -0.006384   -1.288332
     16          1           0        1.599668    1.223655    1.405329
     17          1           0        2.342326    2.056941    0.024512
     18          1           0        0.131923    2.448354   -1.002100
     19          1           0       -0.313087    2.533169    0.694653
 ---------------------------------------------------------------------

 SCF Done:  E(RB3LYP) =  -423.145458857     A.U. after    1 cycles

 The electronic state is 1-A.
 Alpha  occ. eigenvalues --  -19.14160 -19.12553 -10.23827 -10.22776 -10.21981
 Alpha  occ. eigenvalues --  -10.19108 -10.18607 -10.18232 -10.17418  -1.02413
 Alpha  occ. eigenvalues --   -1.02134  -0.83464  -0.73972  -0.70794  -0.66772
 Alpha  occ. eigenvalues --   -0.63598  -0.57415  -0.51756  -0.51255  -0.47543
 Alpha  occ. eigenvalues --   -0.46723  -0.44692  -0.43988  -0.42650  -0.40136
 Alpha  occ. eigenvalues --   -0.36450  -0.35639  -0.34736  -0.33856  -0.32251
 Alpha  occ. eigenvalues --   -0.30077  -0.27763  -0.24528  -0.22450
 Alpha virt. eigenvalues --    0.01349   0.06815   0.08570   0.10642   0.12437
 Alpha virt. eigenvalues --    0.12807   0.13661   0.16588   0.16924   0.17189
 Alpha virt. eigenvalues --    0.17557   0.18781   0.19260   0.20805   0.22429

 Mulliken charges:
               1
     1  O   -0.414156
     2  C   -0.186600
     3  C    0.174428
     4  C    0.119527
     5  C   -0.148697
     6  O   -0.311976
     7  C    0.112724
     8  C   -0.248274
     9  C   -0.307268
    10  H    0.290527
    11  H    0.098581
    12  H    0.096463
    13  H    0.123932
    14  H    0.102871
    15  H    0.072717
    16  H    0.118057
    17  H    0.094189
    18  H    0.109013
    19  H    0.103942
 Sum of Mulliken charges =   0.00000

 Dipole moment (field-independent basis, Debye):
    X=             -2.5601    Y=              1.7257    Z=             -0.2422  Tot=              3.0969
 Quadrupole moment (field-independent basis, Debye-Ang):
   XX=            -48.2430   YY=            -52.2140   ZZ=            -53.3385
   XY=              2.1167   XZ=             -3.3445   YZ=              0.7667

  Exact polarizability:  88.822  -3.892  89.602  -4.379   1.519  58.770
 Approx polarizability: 124.042 -13.820 131.263  -6.223   3.077  92.910

                      1                      2                      3
                      A                      A                      A
 Frequencies --     74.9865               123.1777               169.9058
 Red. masses --      3.6848                 4.1585                 2.0677
 Frc consts  --      0.0122                 0.0372                 0.0352
 IR Inten    --      9.0228                 2.3142                13.7261

                      4                      5                      6
                      A                      A                      A
 Frequencies --    182.9923               241.0544               266.8523
 Red. masses --      2.5865                 1.1381                 2.3367
 Frc consts  --      0.0510                 0.0390                 0.0980
 IR Inten    --      9.2501                86.3115                 0.9256

                      7                      8                      9
                      A                      A                      A
 Frequencies --    383.3670               400.4315               462.1698
 Red. masses --      4.1761                 3.2321                 3.1224
 Frc consts  --      0.3616                 0.3053                 0.3930
 IR Inten    --      8.9837                 1.8330                 1.5452

                     10                     11                     12
                      A                      A                      A
 Frequencies --    589.8001               644.4722               687.8099
 Red. masses --      2.1565                 4.3891                 4.0851
 Frc consts  --      0.4420                 1.0741                 1.1387
 IR Inten    --      3.2052                11.6778                 3.8000

                     13                     14                     15
                      A                      A                      A
 Frequencies --    787.5413               852.3364               900.8974
 Red. masses --      3.4851                 1.7037                 2.6947
 Frc consts  --      1.2735                 0.7292                 1.2886
 IR Inten    --      6.4743                 9.6567                27.6902

                     16                     17                     18
                      A                      A                      A
 Frequencies --    918.6565               927.1607               959.0894
 Red. masses --      3.1612                 4.8923                 1.9891
 Frc consts  --      1.5718                 2.4778                 1.0780
 IR Inten    --     14.4513                63.4554                 5.0660

                     19                     20                     21
                      A                      A                      A
 Frequencies --   1000.0499              1035.5756              1062.3184
 Red. masses --      1.9374                 2.1868                 2.5107
 Frc consts  --      1.1416                 1.3817                 1.6693
 IR Inten    --      4.4852                 3.3121                11.9900

                     22                     23                     24
                      A                      A                      A
 Frequencies --   1065.0667              1087.8646              1121.5172
 Red. masses --      3.4288                 2.9373                 1.8653
 Frc consts  --      2.2917                 2.0481                 1.3824
 IR Inten    --     48.7319                12.4076                 8.5059

                     25                     26                     27
                      A                      A                      A
 Frequencies --   1137.9992              1152.6803              1176.3379
 Red. masses --      1.3480                 1.3326                 1.5356
 Frc consts  --      1.0285                 1.0432                 1.2520
 IR Inten    --      7.4921                 4.8344                 4.3351

                     28                     29                     30
                      A                      A                      A
 Frequencies --   1236.1185              1241.3744              1250.5080
 Red. masses --      1.8384                 1.2054                 1.1955
 Frc consts  --      1.6551                 1.0944                 1.1014
 IR Inten    --      3.0158                29.7178                26.1319

                     31                     32                     33
                      A                      A                      A
 Frequencies --   1267.7341              1283.3616              1325.8311
 Red. masses --      1.3680                 1.3021                 1.6125
 Frc consts  --      1.2954                 1.2635                 1.6700
 IR Inten    --      3.7737                 0.3746                 3.1499

                     34                     35                     36
                      A                      A                      A
 Frequencies --   1332.3275              1355.9509              1464.9322
 Red. masses --      1.6915                 1.3539                 1.5599
 Frc consts  --      1.7691                 1.4666                 1.9724
 IR Inten    --     10.6620                 9.5602                15.7501

                     37                     38                     39
                      A                      A                      A
 Frequencies --   1478.1221              1494.3954              1506.7682
 Red. masses --      1.0942                 1.0943                 1.0826
 Frc consts  --      1.4086                 1.4399                 1.4482
 IR Inten    --      2.5389                 1.5403                 3.0998

                     40                     41                     42
                      A                      A                      A
 Frequencies --   1510.8124              1783.1219              2935.0979
 Red. masses --      1.1050                 9.8327                 1.0547
 Frc consts  --      1.4861                18.4198                 5.3532
 IR Inten    --      0.8650                 1.5324                66.5775

                     43                     44                     45
                      A                      A                      A
 Frequencies --   2945.9824              3000.4551              3013.5652
 Red. masses --      1.1028                 1.0820                 1.0655
 Frc consts  --      5.6392                 5.7392                 5.7013
 IR Inten    --     52.6625                54.4337                69.6005

                     46                     47                     48
                      A                      A                      A
 Frequencies --   3016.0195              3051.1266              3061.0318
 Red. masses --      1.0655                 1.0737                 1.0808
 Frc consts  --      5.7107                 5.8890                 5.9665
 IR Inten    --     67.5174                22.1326                33.7969

                     49                     50                     51
                      A                      A                      A
 Frequencies --   3091.1460              3107.2871              3836.9872
 Red. masses --      1.1008                 1.1063                 1.0664
 Frc consts  --      6.1973                 6.2934                 9.2505
 IR Inten    --     26.1540                37.2595                25.6050

 - Thermochemistry -
 -------------------
 Temperature   298.150 Kelvin.  Pressure   1.00000 Atm.
 Atom     1 has atomic number  8 and mass  15.99491

 Molecular mass:   126.06808 amu.
 Principal axes and moments of inertia in atomic units:
                           1         2         3
     Eigenvalues --   708.315131214.218801806.30326
           X            0.99982   0.01655  -0.00927
           Y           -0.01647   0.99983   0.00879
           Z            0.00942  -0.00864   0.99992
 This molecule is an asymmetric top.
 Rotational symmetry number  1.
 Warning -- assumption of classical behavior for rotation
           may cause significant error
 Rotational temperatures (Kelvin)      0.12228     0.07133     0.04795
 Rotational constants (GHZ):           2.54794     1.48634     0.99914
 Zero-point vibrational energy     418705.9 (Joules/Mol)
                                  100.07312 (Kcal/Mol)
 Warning -- explicit consideration of  10 degrees of freedom as
           vibrations may cause significant error
 Vibrational temperatures:    107.89   177.23   244.46   263.28   346.82
          (Kelvin)            383.94   551.58   576.13   664.96   848.59
                              927.25   989.60  1133.09  1226.32  1296.19
                             1321.74  1333.98  1379.91  1438.85  1489.96
                             1528.44  1532.39  1565.19  1613.61  1637.33
                             1658.45  1692.49  1778.50  1786.06  1799.20
                             1823.98  1846.47  1907.57  1916.92  1950.91
                             2107.71  2126.69  2150.10  2167.90  2173.72
                             2565.51  4222.95  4238.61  4316.98  4335.84
                             4339.37  4389.89  4404.14  4447.46  4470.69
                             5520.56

 Zero-point correction=                           0.159477 (Hartree/Particle)
 Thermal correction to Energy=                    0.167954
 Thermal correction to Enthalpy=                  0.168898
 Thermal correction to Gibbs Free Energy=         0.126065
 Sum of electronic and zero-point Energies=           -422.985982
 Sum of electronic and thermal Energies=              -422.977505
 Sum of electronic and thermal Enthalpies=            -422.976561
 Sum of electronic and thermal Free Energies=         -423.019393

                     E (Thermal)             CV                S
                      KCal/Mol        Cal/Mol-Kelvin    Cal/Mol-Kelvin
 Total                  105.393             31.634             90.149
 Electronic               0.000              0.000              0.000
 Translational            0.889              2.981             40.409
 Rotational               0.889              2.981             28.831
 Vibrational            103.615             25.672             20.909
 Vibration     1          0.599              1.966              4.018
 Vibration     2          0.610              1.930              3.050
 Vibration     3          0.625              1.880              2.437
 Vibration     4          0.630              1.863              2.298
 Vibration     5          0.658              1.778              1.795
 Vibration     6          0.672              1.734              1.617
 Vibration     7          0.753              1.506              1.026
 Vibration     8          0.766              1.469              0.961
 Vibration     9          0.820              1.334              0.760
 Vibration    10          0.947              1.054              0.468

 Optimization completed.
    -- Stationary point found.
 Normal termination of Gaussian 09 at Tue Jan 28 13:00:19 2020.
