 Gaussian 09, Revision D.01,
 Gaussian 09:  ES64L-G09RevD.01 24-Apr-2013

 -----------------------------
 # b3lyp 6-31G(2df,p) opt Freq
 -----------------------------

 -----
 titel
 -----
 Symbolic Z-matrix:
 Charge =  0 Multiplicity = 1

 SCF Done:  E(RB3LYP) =  -423.183572415     A.U. after   12 cycles
 Optimization completed.
    -- Stationary point found.
 Normal termination of Gaussian 09 at Mon Jan 27 18:14:40 2020.

 ----------------------------------------------------------------------
 #N Geom=AllCheck Guess=TCheck SCRF=Check GenChk RB3LYP/6-31G(2df,p) Fr
 eq
 ----------------------------------------------------------------------

 Structure from the checkpoint file:  "/scratch/puck/g09_750c54d6-b400-48ed-b963-f8829b514da0/Gau-171116.chk"
 -----
 titel
 -----
 Charge =  0 Multiplicity = 1

                         Standard orientation:
 ---------------------------------------------------------------------
 Center     Atomic      Atomic             Coordinates (Angstroms)
 Number     Number       Type             X           Y           Z
 ---------------------------------------------------------------------
      1          6           0       -2.485425    0.121177   -0.423764
      2          6           0       -1.023953    0.013767   -0.112365
      3          8           0       -0.303117   -0.740282   -1.069616
      4          6           0        1.003186   -0.899752   -0.504019
      5          6           0        0.749826   -1.189432    0.991639
      6          6           0       -0.405661   -0.238931    1.258968
      7          6           0       -0.210525    1.094072    0.554294
      8          8           0        1.061040    1.455640    0.083017
      9          6           0        1.727653    0.434321   -0.661807
     10          1           0       -2.946713   -0.871405   -0.462063
     11          1           0       -2.997619    0.709486    0.342604
     12          1           0       -2.641840    0.608701   -1.391497
     13          1           0        1.515382   -1.696894   -1.046517
     14          1           0        0.449418   -2.229429    1.150853
     15          1           0        1.637235   -0.983969    1.598027
     16          1           0       -0.993781   -0.319187    2.166155
     17          1           0       -0.724508    1.967905    0.940249
     18          1           0        1.747192    0.708026   -1.725390
     19          1           0        2.761238    0.372560   -0.297310
 ---------------------------------------------------------------------

 SCF Done:  E(RB3LYP) =  -423.183572415     A.U. after    1 cycles

 The electronic state is 1-A.
 Alpha  occ. eigenvalues --  -19.14269 -19.14188 -10.23600 -10.23459 -10.23046
 Alpha  occ. eigenvalues --  -10.22684 -10.18954 -10.18369 -10.18089  -1.06386
 Alpha  occ. eigenvalues --   -1.01724  -0.84301  -0.78325  -0.72076  -0.67493
 Alpha  occ. eigenvalues --   -0.63735  -0.56360  -0.53999  -0.50834  -0.48704
 Alpha  occ. eigenvalues --   -0.46838  -0.45598  -0.42667  -0.41350  -0.40463
 Alpha  occ. eigenvalues --   -0.39045  -0.38205  -0.36640  -0.34822  -0.33789
 Alpha  occ. eigenvalues --   -0.32187  -0.30912  -0.23449  -0.21632
 Alpha virt. eigenvalues --    0.08254   0.10930   0.11534   0.12124   0.13364
 Alpha virt. eigenvalues --    0.14790   0.14966   0.15882   0.16630   0.16786
 Alpha virt. eigenvalues --    0.17825   0.18738   0.19001   0.20558   0.21520

 Mulliken charges:
               1
     1  C   -0.484632
     2  C    0.404562
     3  O   -0.295492
     4  C    0.019958
     5  C   -0.231349
     6  C   -0.195387
     7  C    0.049391
     8  O   -0.278156
     9  C   -0.056268
    10  H    0.126032
    11  H    0.119814
    12  H    0.130573
    13  H    0.085529
    14  H    0.107102
    15  H    0.109712
    16  H    0.084952
    17  H    0.101384
    18  H    0.103472
    19  H    0.098802
 Sum of Mulliken charges =   0.00000

 Dipole moment (field-independent basis, Debye):
    X=             -0.1050    Y=             -0.8799    Z=              0.8295  Tot=              1.2138
 Quadrupole moment (field-independent basis, Debye-Ang):
   XX=            -49.3477   YY=            -54.7106   ZZ=            -53.6035
   XY=             -3.9387   XZ=             -2.3775   YZ=             -0.9316

  Exact polarizability:  83.219  -3.148  68.970  -1.904  -1.270  69.095
 Approx polarizability: 110.888  -1.632 104.675  -0.662   0.844 105.792

                      1                      2                      3
                      A                      A                      A
 Frequencies --    155.9070               198.3379               233.6510
 Red. masses --      2.8579                 1.0553                 3.0809
 Frc consts  --      0.0409                 0.0245                 0.0991
 IR Inten    --      5.0575                 0.0623                 1.1068

                      4                      5                      6
                      A                      A                      A
 Frequencies --    294.3301               349.4970               408.7916
 Red. masses --      2.4764                 2.2831                 3.3266
 Frc consts  --      0.1264                 0.1643                 0.3275
 IR Inten    --      0.5090                 0.4805                 2.3096

                      7                      8                      9
                      A                      A                      A
 Frequencies --    534.8946               558.3464               602.0182
 Red. masses --      4.1499                 3.3994                 3.6754
 Frc consts  --      0.6996                 0.6244                 0.7848
 IR Inten    --      1.1679                 1.5572                 1.6097

                     10                     11                     12
                      A                      A                      A
 Frequencies --    671.9886               718.4031               774.6717
 Red. masses --      5.6881                 4.6356                 3.4295
 Frc consts  --      1.5134                 1.4096                 1.2126
 IR Inten    --      5.5142                14.8874                18.5620

                     13                     14                     15
                      A                      A                      A
 Frequencies --    840.6461               862.6218               871.0149
 Red. masses --      3.2645                 1.9781                 2.3525
 Frc consts  --      1.3593                 0.8672                 1.0516
 IR Inten    --      6.3163                10.1755                 8.1178

                     16                     17                     18
                      A                      A                      A
 Frequencies --    908.5257               929.4491               979.8528
 Red. masses --      2.1593                 2.4991                 1.7532
 Frc consts  --      1.0501                 1.2720                 0.9917
 IR Inten    --     19.8636                19.1144                 3.0580

                     19                     20                     21
                      A                      A                      A
 Frequencies --    994.4521              1014.4504              1046.9891
 Red. masses --      1.9443                 1.6859                 1.8257
 Frc consts  --      1.1329                 1.0222                 1.1791
 IR Inten    --     17.7007                 8.3409                12.4769

                     22                     23                     24
                      A                      A                      A
 Frequencies --   1063.5790              1087.1973              1105.1336
 Red. masses --      1.8982                 1.9031                 2.2370
 Frc consts  --      1.2652                 1.3253                 1.6097
 IR Inten    --      5.3429                 0.8182                37.4369

                     25                     26                     27
                      A                      A                      A
 Frequencies --   1123.6506              1141.4034              1210.7858
 Red. masses --      1.9478                 2.0998                 1.7462
 Frc consts  --      1.4489                 1.6118                 1.5082
 IR Inten    --     20.7195                29.5582                48.3339

                     28                     29                     30
                      A                      A                      A
 Frequencies --   1221.5418              1235.4105              1246.1895
 Red. masses --      1.7129                 2.3283                 1.3454
 Frc consts  --      1.5059                 2.0937                 1.2311
 IR Inten    --      0.6713                36.4856                37.9977

                     31                     32                     33
                      A                      A                      A
 Frequencies --   1308.6607              1320.8066              1342.1197
 Red. masses --      1.9599                 1.2842                 1.6371
 Frc consts  --      1.9776                 1.3199                 1.7375
 IR Inten    --     12.2210                 2.2065                 3.2120

                     34                     35                     36
                      A                      A                      A
 Frequencies --   1359.5596              1398.9515              1414.6875
 Red. masses --      1.5301                 1.4238                 1.2984
 Frc consts  --      1.6664                 1.6418                 1.5311
 IR Inten    --      3.4155                 3.5173                 5.0016

                     37                     38                     39
                      A                      A                      A
 Frequencies --   1456.8294              1477.2501              1492.5460
 Red. masses --      2.4356                 1.0471                 1.1188
 Frc consts  --      3.0456                 1.3463                 1.4685
 IR Inten    --      6.3288                 3.6733                 3.8450

                     40                     41                     42
                      A                      A                      A
 Frequencies --   1504.3976              1508.9864              3004.8090
 Red. masses --      1.1659                 1.0909                 1.0571
 Frc consts  --      1.5546                 1.4635                 5.6234
 IR Inten    --      3.4616                 0.4492                68.9058

                     43                     44                     45
                      A                      A                      A
 Frequencies --   3035.0722              3044.5134              3051.1506
 Red. masses --      1.0354                 1.1041                 1.0619
 Frc consts  --      5.6195                 6.0298                 5.8245
 IR Inten    --     28.0788                21.3191                44.1011

                     46                     47                     48
                      A                      A                      A
 Frequencies --   3095.3622              3100.0114              3100.3022
 Red. masses --      1.1023                 1.0943                 1.1001
 Frc consts  --      6.2227                 6.1960                 6.2303
 IR Inten    --     26.6358                26.0028                30.0357

                     49                     50                     51
                      A                      A                      A
 Frequencies --   3116.5773              3166.0628              3175.1887
 Red. masses --      1.1006                 1.0896                 1.0929
 Frc consts  --      6.2982                 6.4349                 6.4919
 IR Inten    --     15.1752                10.1846                20.8375

 - Thermochemistry -
 -------------------
 Temperature   298.150 Kelvin.  Pressure   1.00000 Atm.
 Atom     1 has atomic number  6 and mass  12.00000

 Molecular mass:   126.06808 amu.
 Principal axes and moments of inertia in atomic units:
                           1         2         3
     Eigenvalues --   647.280501018.107771099.78257
           X            0.99873  -0.05025  -0.00404
           Y            0.04943   0.99180  -0.11788
           Z            0.00993   0.11753   0.99302
 This molecule is an asymmetric top.
 Rotational symmetry number  1.
 Warning -- assumption of classical behavior for rotation
           may cause significant error
 Rotational temperatures (Kelvin)      0.13381     0.08507     0.07876
 Rotational constants (GHZ):           2.78819     1.77264     1.64100
 Zero-point vibrational energy     423822.4 (Joules/Mol)
                                  101.29599 (Kcal/Mol)
 Warning -- explicit consideration of   9 degrees of freedom as
           vibrations may cause significant error
 Vibrational temperatures:    224.32   285.36   336.17   423.47   502.85
          (Kelvin)            588.16   769.59   803.33   866.17   966.84
                             1033.62  1114.58  1209.50  1241.12  1253.19
                             1307.16  1337.27  1409.79  1430.79  1459.57
                             1506.38  1530.25  1564.23  1590.04  1616.68
                             1642.22  1742.05  1757.52  1777.48  1792.99
                             1882.87  1900.34  1931.01  1956.10  2012.78
                             2035.42  2096.05  2125.43  2147.44  2164.49
                             2171.09  4323.24  4366.79  4380.37  4389.92
                             4453.53  4460.22  4460.64  4484.05  4555.25
                             4568.38

 Zero-point correction=                           0.161425 (Hartree/Particle)
 Thermal correction to Energy=                    0.168609
 Thermal correction to Enthalpy=                  0.169554
 Thermal correction to Gibbs Free Energy=         0.130213
 Sum of electronic and zero-point Energies=           -423.022147
 Sum of electronic and thermal Energies=              -423.014963
 Sum of electronic and thermal Enthalpies=            -423.014019
 Sum of electronic and thermal Free Energies=         -423.053359

                     E (Thermal)             CV                S
                      KCal/Mol        Cal/Mol-Kelvin    Cal/Mol-Kelvin
 Total                  105.804             29.264             82.799
 Electronic               0.000              0.000              0.000
 Translational            0.889              2.981             40.409
 Rotational               0.889              2.981             28.074
 Vibrational            104.027             23.302             14.316
 Vibration     1          0.620              1.896              2.599
 Vibration     2          0.637              1.842              2.148
 Vibration     3          0.654              1.789              1.851
 Vibration     4          0.689              1.684              1.449
 Vibration     5          0.727              1.576              1.168
 Vibration     6          0.773              1.451              0.931
 Vibration     7          0.890              1.173              0.576
 Vibration     8          0.914              1.121              0.527
 Vibration     9          0.960              1.028              0.446

 Optimization completed.
    -- Stationary point found.
 Normal termination of Gaussian 09 at Mon Jan 27 19:01:23 2020.
