 Gaussian 09, Revision D.01,
 Gaussian 09:  ES64L-G09RevD.01 24-Apr-2013

 -----------------------------
 # b3lyp 6-31G(2df,p) opt Freq
 -----------------------------

 -----
 titel
 -----
 Symbolic Z-matrix:
 Charge =  0 Multiplicity = 1

 SCF Done:  E(RB3LYP) =  -423.172432697     A.U. after   14 cycles
 Optimization completed.
    -- Stationary point found.
 Normal termination of Gaussian 09 at Tue Jan 28 12:46:45 2020.

 ----------------------------------------------------------------------
 #N Geom=AllCheck Guess=TCheck SCRF=Check GenChk RB3LYP/6-31G(2df,p) Fr
 eq
 ----------------------------------------------------------------------

 Structure from the checkpoint file:  "/scratch/puck/g09_ca4b52ca-54cc-456a-9207-5e36055da7a0/Gau-10489.chk"
 -----
 titel
 -----
 Charge =  0 Multiplicity = 1

                         Standard orientation:
 ---------------------------------------------------------------------
 Center     Atomic      Atomic             Coordinates (Angstroms)
 Number     Number       Type             X           Y           Z
 ---------------------------------------------------------------------
      1          6           0        2.931827   -0.911173   -0.111230
      2          6           0        1.994064    0.291846    0.030019
      3          6           0        0.540062   -0.031061   -0.318735
      4          6           0       -0.272616   -0.802796    0.742699
      5          6           0       -1.695472   -0.909877    0.326187
      6          8           0       -2.093380   -0.953044   -1.013549
      7          6           0       -1.267616    0.407109    0.916187
      8          6           0       -0.410410    1.164522   -0.056541
      9          8           0       -0.332802    2.326842   -0.338580
     10          1           0        2.637953   -1.732559    0.551425
     11          1           0        2.927146   -1.296176   -1.136798
     12          1           0        3.961665   -0.637680    0.138209
     13          1           0        2.044532    0.686608    1.052881
     14          1           0        2.324507    1.104239   -0.626631
     15          1           0        0.470938   -0.454327   -1.325867
     16          1           0        0.157767   -1.402035    1.535681
     17          1           0       -2.333257   -1.481188    1.002381
     18          1           0       -1.948709   -1.848492   -1.338769
     19          1           0       -1.752121    0.819798    1.793008
 ---------------------------------------------------------------------

 SCF Done:  E(RB3LYP) =  -423.172432697     A.U. after    1 cycles

 The electronic state is 1-A.
 Alpha  occ. eigenvalues --  -19.15607 -19.12548 -10.26374 -10.25802 -10.21233
 Alpha  occ. eigenvalues --  -10.20401 -10.19553 -10.18850 -10.18016  -1.04452
 Alpha  occ. eigenvalues --   -1.03446  -0.89929  -0.78632  -0.70986  -0.64661
 Alpha  occ. eigenvalues --   -0.61638  -0.58967  -0.52793  -0.51180  -0.50352
 Alpha  occ. eigenvalues --   -0.45730  -0.44551  -0.43376  -0.42309  -0.40885
 Alpha  occ. eigenvalues --   -0.38117  -0.37032  -0.35939  -0.34643  -0.33429
 Alpha  occ. eigenvalues --   -0.31887  -0.29643  -0.27266  -0.23518
 Alpha virt. eigenvalues --   -0.00553   0.06889   0.08541   0.09588   0.10197
 Alpha virt. eigenvalues --    0.13434   0.13779   0.15021   0.15985   0.16361
 Alpha virt. eigenvalues --    0.17656   0.17929   0.19608   0.21048   0.22796

 Mulliken charges:
               1
     1  C   -0.389169
     2  C   -0.191170
     3  C   -0.114908
     4  C   -0.128216
     5  C    0.095608
     6  O   -0.413650
     7  C   -0.222167
     8  C    0.432790
     9  O   -0.331560
    10  H    0.113052
    11  H    0.117297
    12  H    0.118299
    13  H    0.099635
    14  H    0.120080
    15  H    0.088934
    16  H    0.104201
    17  H    0.100711
    18  H    0.289951
    19  H    0.110284
 Sum of Mulliken charges =   0.00000

 Dipole moment (field-independent basis, Debye):
    X=              0.5442    Y=             -4.1047    Z=              1.3305  Tot=              4.3492
 Quadrupole moment (field-independent basis, Debye-Ang):
   XX=            -52.9199   YY=            -56.8724   ZZ=            -50.9802
   XY=              3.7796   XZ=             -2.4246   YZ=              2.8657

  Exact polarizability:  84.318   0.586  78.755  -4.124  -0.689  66.287
 Approx polarizability: 108.664  -0.367 126.767  -3.789  -4.135 102.959

                      1                      2                      3
                      A                      A                      A
 Frequencies --     84.7600                97.9178               136.2242
 Red. masses --      3.8765                 2.5467                 4.8065
 Frc consts  --      0.0164                 0.0144                 0.0526
 IR Inten    --      1.0149                 0.9862                 2.6457

                      4                      5                      6
                      A                      A                      A
 Frequencies --    171.9961               240.4382               285.0720
 Red. masses --      1.9157                 1.6409                 1.7005
 Frc consts  --      0.0334                 0.0559                 0.0814
 IR Inten    --      2.0155                 0.7527                30.8483

                      7                      8                      9
                      A                      A                      A
 Frequencies --    299.6150               359.9663               412.5554
 Red. masses --      1.5787                 3.0925                 3.9799
 Frc consts  --      0.0835                 0.2361                 0.3991
 IR Inten    --     85.3484                 8.4858                 6.2381

                     10                     11                     12
                      A                      A                      A
 Frequencies --    495.9006               601.3624               655.9434
 Red. masses --      3.5007                 4.9457                 4.1477
 Frc consts  --      0.5072                 1.0538                 1.0515
 IR Inten    --      3.4067                 3.6992                 4.5462

                     13                     14                     15
                      A                      A                      A
 Frequencies --    669.2680               747.6298               792.7126
 Red. masses --      3.8665                 1.9395                 1.6185
 Frc consts  --      1.0204                 0.6387                 0.5992
 IR Inten    --      5.5017                 0.6205                 6.3248

                     16                     17                     18
                      A                      A                      A
 Frequencies --    854.7043               878.8562               915.6756
 Red. masses --      2.6160                 1.7873                 1.4275
 Frc consts  --      1.1259                 0.8134                 0.7052
 IR Inten    --      3.4320                 4.5594                21.6938

                     19                     20                     21
                      A                      A                      A
 Frequencies --    939.3012               978.1240               987.8376
 Red. masses --      2.7939                 2.9303                 2.0926
 Frc consts  --      1.4523                 1.6518                 1.2031
 IR Inten    --     17.7883                35.5978                 3.2969

                     22                     23                     24
                      A                      A                      A
 Frequencies --   1002.7821              1065.5992              1071.4362
 Red. masses --      1.4637                 1.9710                 1.3543
 Frc consts  --      0.8672                 1.3186                 0.9160
 IR Inten    --      7.6939                 0.6469                 2.8223

                     25                     26                     27
                      A                      A                      A
 Frequencies --   1110.6463              1123.5492              1147.4031
 Red. masses --      2.4229                 1.7003                 2.2808
 Frc consts  --      1.7609                 1.2646                 1.7692
 IR Inten    --     43.9491                 7.6705                 1.9095

                     28                     29                     30
                      A                      A                      A
 Frequencies --   1201.8712              1220.7647              1259.3461
 Red. masses --      2.0230                 1.5454                 1.4357
 Frc consts  --      1.7217                 1.3570                 1.3415
 IR Inten    --     36.2917                14.8247                 8.7302

                     31                     32                     33
                      A                      A                      A
 Frequencies --   1286.4091              1288.1730              1316.8183
 Red. masses --      1.3538                 1.5425                 1.5989
 Frc consts  --      1.3200                 1.5081                 1.6335
 IR Inten    --     79.7815                10.4590                 2.3837

                     34                     35                     36
                      A                      A                      A
 Frequencies --   1341.7546              1378.3875              1411.8821
 Red. masses --      1.4719                 1.5369                 1.2333
 Frc consts  --      1.5612                 1.7205                 1.4485
 IR Inten    --      2.5778                 6.8334                 1.4249

                     37                     38                     39
                      A                      A                      A
 Frequencies --   1446.0377              1485.3043              1498.2985
 Red. masses --      1.8178                 1.0634                 1.0407
 Frc consts  --      2.2395                 1.3822                 1.3765
 IR Inten    --     26.3097                 1.0190                 5.4870

                     40                     41                     42
                      A                      A                      A
 Frequencies --   1505.4332              1878.6280              3026.7710
 Red. masses --      1.0671                12.4854                 1.0632
 Frc consts  --      1.4249                25.9618                 5.7387
 IR Inten    --      2.9860               304.6532                12.4970

                     43                     44                     45
                      A                      A                      A
 Frequencies --   3030.7596              3056.5807              3070.1318
 Red. masses --      1.0365                 1.0831                 1.0975
 Frc consts  --      5.6092                 5.9622                 6.0948
 IR Inten    --     26.7172                13.8016                 7.5762

                     46                     47                     48
                      A                      A                      A
 Frequencies --   3094.9822              3099.4299              3104.2072
 Red. masses --      1.0865                 1.1020                 1.1010
 Frc consts  --      6.1321                 6.2371                 6.2511
 IR Inten    --     31.3703                46.5034                33.2120

                     49                     50                     51
                      A                      A                      A
 Frequencies --   3187.6630              3196.4071              3802.3085
 Red. masses --      1.0902                 1.0963                 1.0660
 Frc consts  --      6.5269                 6.5995                 9.0804
 IR Inten    --      9.6429                 6.5962                26.8437

 - Thermochemistry -
 -------------------
 Temperature   298.150 Kelvin.  Pressure   1.00000 Atm.
 Atom     1 has atomic number  6 and mass  12.00000

 Molecular mass:   126.06808 amu.
 Principal axes and moments of inertia in atomic units:
                           1         2         3
     Eigenvalues --   764.236341382.455011783.05800
           X            0.99984  -0.01203  -0.01317
           Y            0.01219   0.99986   0.01166
           Z            0.01303  -0.01182   0.99985
 This molecule is an asymmetric top.
 Rotational symmetry number  1.
 Warning -- assumption of classical behavior for rotation
           may cause significant error
 Rotational temperatures (Kelvin)      0.11333     0.06265     0.04858
 Rotational constants (GHZ):           2.36150     1.30546     1.01216
 Zero-point vibrational energy     414599.5 (Joules/Mol)
                                   99.09166 (Kcal/Mol)
 Warning -- explicit consideration of  11 degrees of freedom as
           vibrations may cause significant error
 Vibrational temperatures:    121.95   140.88   196.00   247.46   345.94
          (Kelvin)            410.15   431.08   517.91   593.57   713.49
                              865.23   943.76   962.93  1075.67  1140.54
                             1229.73  1264.48  1317.45  1351.44  1407.30
                             1421.28  1442.78  1533.16  1541.56  1597.97
                             1616.53  1650.86  1729.22  1756.41  1811.92
                             1850.85  1853.39  1894.61  1930.48  1983.19
                             2031.38  2080.52  2137.02  2155.71  2165.98
                             2702.92  4354.84  4360.58  4397.73  4417.23
                             4452.98  4459.38  4466.26  4586.33  4598.91
                             5470.67

 Zero-point correction=                           0.157913 (Hartree/Particle)
 Thermal correction to Energy=                    0.166933
 Thermal correction to Enthalpy=                  0.167877
 Thermal correction to Gibbs Free Energy=         0.123925
 Sum of electronic and zero-point Energies=           -423.014520
 Sum of electronic and thermal Energies=              -423.005500
 Sum of electronic and thermal Enthalpies=            -423.004555
 Sum of electronic and thermal Free Energies=         -423.048508

                     E (Thermal)             CV                S
                      KCal/Mol        Cal/Mol-Kelvin    Cal/Mol-Kelvin
 Total                  104.752             33.589             92.506
 Electronic               0.000              0.000              0.000
 Translational            0.889              2.981             40.409
 Rotational               0.889              2.981             29.023
 Vibrational            102.975             27.627             23.074
 Vibration     1          0.601              1.960              3.778
 Vibration     2          0.603              1.951              3.495
 Vibration     3          0.614              1.917              2.856
 Vibration     4          0.626              1.877              2.414
 Vibration     5          0.658              1.779              1.800
 Vibration     6          0.683              1.701              1.503
 Vibration     7          0.692              1.674              1.419
 Vibration     8          0.734              1.555              1.122
 Vibration     9          0.776              1.443              0.918
 Vibration    10          0.851              1.259              0.668
 Vibration    11          0.960              1.029              0.447

 Optimization completed.
    -- Stationary point found.
 Normal termination of Gaussian 09 at Tue Jan 28 14:47:54 2020.
