 Gaussian 09, Revision D.01,
 Gaussian 09:  ES64L-G09RevD.01 24-Apr-2013

 -----------------------------
 # b3lyp 6-31G(2df,p) opt Freq
 -----------------------------

 -----
 titel
 -----
 Symbolic Z-matrix:
 Charge =  0 Multiplicity = 1

 SCF Done:  E(RB3LYP) =  -423.148294710     A.U. after   14 cycles
 Optimization completed.
    -- Stationary point found.
 Normal termination of Gaussian 09 at Mon Jan 27 13:55:44 2020.

 ----------------------------------------------------------------------
 #N Geom=AllCheck Guess=TCheck SCRF=Check GenChk RB3LYP/6-31G(2df,p) Fr
 eq
 ----------------------------------------------------------------------

 Structure from the checkpoint file:  "/scratch/puck/g09_dcc87ed1-e02b-458b-a998-029e392ad6dc/Gau-39759.chk"
 -----
 titel
 -----
 Charge =  0 Multiplicity = 1

                         Standard orientation:
 ---------------------------------------------------------------------
 Center     Atomic      Atomic             Coordinates (Angstroms)
 Number     Number       Type             X           Y           Z
 ---------------------------------------------------------------------
      1          8           0        4.055264    0.143976   -0.097761
      2          6           0        2.989383   -0.124725    0.393202
      3          6           0        1.701902   -0.317791   -0.370749
      4          6           0        0.585733    0.609144    0.140341
      5          6           0       -0.757201    0.273577   -0.487166
      6          8           0       -1.174634   -1.081054   -0.127390
      7          6           0       -2.281233   -0.553821    0.610319
      8          6           0       -3.228039    0.170422   -0.291746
      9          6           0       -1.979790    0.869807    0.208780
     10          1           0        2.884603   -0.249441    1.497847
     11          1           0        1.898859   -0.168748   -1.436351
     12          1           0        1.371714   -1.354732   -0.218625
     13          1           0        0.495852    0.521549    1.230320
     14          1           0        0.828469    1.656189   -0.082202
     15          1           0       -0.716088    0.390321   -1.578588
     16          1           0       -2.533738   -1.022746    1.554108
     17          1           0       -3.314337   -0.133191   -1.331503
     18          1           0       -4.150971    0.508504    0.169620
     19          1           0       -1.993927    1.789251    0.778690
 ---------------------------------------------------------------------

 SCF Done:  E(RB3LYP) =  -423.148294710     A.U. after    1 cycles

 The electronic state is 1-A.
 Alpha  occ. eigenvalues --  -19.14467 -19.13694 -10.26946 -10.24749 -10.24691
 Alpha  occ. eigenvalues --  -10.20350 -10.20070 -10.19695 -10.19410  -1.05785
 Alpha  occ. eigenvalues --   -1.04376  -0.83911  -0.80547  -0.72000  -0.63319
 Alpha  occ. eigenvalues --   -0.61296  -0.57346  -0.54601  -0.52321  -0.50023
 Alpha  occ. eigenvalues --   -0.47761  -0.46386  -0.43953  -0.42405  -0.41163
 Alpha  occ. eigenvalues --   -0.38764  -0.38153  -0.36676  -0.35512  -0.34891
 Alpha  occ. eigenvalues --   -0.32299  -0.28358  -0.25016  -0.24287
 Alpha virt. eigenvalues --   -0.01852   0.07713   0.09795   0.10521   0.10874
 Alpha virt. eigenvalues --    0.12017   0.12690   0.14028   0.14701   0.15144
 Alpha virt. eigenvalues --    0.16738   0.16881   0.19167   0.20323   0.21051

 Mulliken charges:
               1
     1  O   -0.238295
     2  C    0.157147
     3  C   -0.274582
     4  C   -0.218732
     5  C    0.131194
     6  O   -0.302668
     7  C    0.110588
     8  C   -0.304382
     9  C   -0.138701
    10  H    0.068769
    11  H    0.119207
    12  H    0.142491
    13  H    0.107837
    14  H    0.110994
    15  H    0.084310
    16  H    0.106161
    17  H    0.118763
    18  H    0.118109
    19  H    0.101790
 Sum of Mulliken charges =   0.00000

 Dipole moment (field-independent basis, Debye):
    X=             -3.2705    Y=              0.9578    Z=              1.0586  Tot=              3.5685
 Quadrupole moment (field-independent basis, Debye-Ang):
   XX=            -65.5977   YY=            -54.0110   ZZ=            -50.7904
   XY=             -3.1336   XZ=              0.2741   YZ=             -0.5586

  Exact polarizability: 101.794   1.651  62.169  -1.876  -1.551  68.122
 Approx polarizability: 127.142   4.930 101.222  -6.783  -4.058 104.181

                      1                      2                      3
                      A                      A                      A
 Frequencies --     52.4514                65.7046               109.2610
 Red. masses --      5.2215                 3.7880                 2.6149
 Frc consts  --      0.0085                 0.0096                 0.0184
 IR Inten    --      4.2010                 3.7915                 1.9710

                      4                      5                      6
                      A                      A                      A
 Frequencies --    135.7510               220.1612               293.2196
 Red. masses --      3.6709                 2.5437                 3.2241
 Frc consts  --      0.0399                 0.0726                 0.1633
 IR Inten    --      2.3152                 2.0151                 1.5363

                      7                      8                      9
                      A                      A                      A
 Frequencies --    333.6964               467.4455               511.7327
 Red. masses --      3.2716                 2.5497                 2.7238
 Frc consts  --      0.2146                 0.3283                 0.4203
 IR Inten    --      1.4932                 3.8508                 2.6537

                     10                     11                     12
                      A                      A                      A
 Frequencies --    528.2306               743.0303               760.1762
 Red. masses --      2.6852                 1.6620                 1.5900
 Frc consts  --      0.4414                 0.5406                 0.5413
 IR Inten    --     14.8506                 2.6106                 8.3563

                     13                     14                     15
                      A                      A                      A
 Frequencies --    794.3646               840.1374               861.7335
 Red. masses --      1.7527                 1.8169                 2.9487
 Frc consts  --      0.6516                 0.7556                 1.2901
 IR Inten    --      6.6530                 1.7046                17.3482

                     16                     17                     18
                      A                      A                      A
 Frequencies --    921.5774               930.7402               965.6290
 Red. masses --      2.3599                 1.9276                 2.4932
 Frc consts  --      1.1809                 0.9838                 1.3697
 IR Inten    --     36.3793                11.9649                 1.9524

                     19                     20                     21
                      A                      A                      A
 Frequencies --    984.8244              1008.5639              1038.2769
 Red. masses --      2.0373                 2.7149                 1.4358
 Frc consts  --      1.1642                 1.6271                 0.9119
 IR Inten    --     14.6820                14.0806                10.9703

                     22                     23                     24
                      A                      A                      A
 Frequencies --   1046.0820              1055.3864              1080.8415
 Red. masses --      1.8516                 1.6671                 1.9874
 Frc consts  --      1.1938                 1.0940                 1.3679
 IR Inten    --     57.3684                 8.6218                19.0594

                     25                     26                     27
                      A                      A                      A
 Frequencies --   1087.9793              1094.9336              1147.3429
 Red. masses --      1.7803                 1.9640                 2.7982
 Frc consts  --      1.2416                 1.3873                 2.1703
 IR Inten    --     27.6588                 0.4491                 1.8034

                     28                     29                     30
                      A                      A                      A
 Frequencies --   1202.4411              1207.3932              1230.6406
 Red. masses --      1.4882                 1.8663                 1.2429
 Frc consts  --      1.2678                 1.6030                 1.1090
 IR Inten    --     20.7199                11.6599                 0.0183

                     31                     32                     33
                      A                      A                      A
 Frequencies --   1260.7898              1295.6080              1318.4859
 Red. masses --      1.3416                 1.3627                 1.4210
 Frc consts  --      1.2565                 1.3477                 1.4554
 IR Inten    --      0.2810                 9.1733                 3.1664

                     34                     35                     36
                      A                      A                      A
 Frequencies --   1335.7498              1374.2136              1404.2444
 Red. masses --      1.5772                 1.6085                 1.5717
 Frc consts  --      1.6580                 1.7897                 1.8260
 IR Inten    --     23.7391                 1.3694                 8.3671

                     37                     38                     39
                      A                      A                      A
 Frequencies --   1432.6586              1463.9864              1473.1749
 Red. masses --      1.1997                 1.0853                 1.2694
 Frc consts  --      1.4508                 1.3704                 1.6232
 IR Inten    --      6.6442                 1.6146                 4.1972

                     40                     41                     42
                      A                      A                      A
 Frequencies --   1484.0252              1836.5067              2845.3801
 Red. masses --      1.1008                10.0611                 1.0813
 Frc consts  --      1.4284                19.9930                 5.1581
 IR Inten    --      6.2282               209.1227               111.1020

                     43                     44                     45
                      A                      A                      A
 Frequencies --   3016.2177              3021.0323              3029.1906
 Red. masses --      1.0833                 1.0593                 1.0618
 Frc consts  --      5.8067                 5.6964                 5.7407
 IR Inten    --     30.7101                 7.9464                24.0151

                     46                     47                     48
                      A                      A                      A
 Frequencies --   3066.0034              3102.7561              3115.4900
 Red. masses --      1.1019                 1.1003                 1.0540
 Frc consts  --      6.1028                 6.2412                 6.0277
 IR Inten    --     20.6040                21.5648                13.3058

                     49                     50                     51
                      A                      A                      A
 Frequencies --   3181.1241              3199.8058              3210.8235
 Red. masses --      1.0915                 1.1029                 1.1100
 Frc consts  --      6.5080                 6.6532                 6.7422
 IR Inten    --     20.7744                 2.4708                14.1684

 - Thermochemistry -
 -------------------
 Temperature   298.150 Kelvin.  Pressure   1.00000 Atm.
 Atom     1 has atomic number  8 and mass  15.99491

 Molecular mass:   126.06808 amu.
 Principal axes and moments of inertia in atomic units:
                           1         2         3
     Eigenvalues --   267.198342689.124502768.45673
           X            0.99998  -0.00625   0.00161
           Y            0.00624   0.99997   0.00555
           Z           -0.00164  -0.00554   0.99998
 This molecule is an asymmetric top.
 Rotational symmetry number  1.
 Rotational temperatures (Kelvin)      0.32416     0.03221     0.03129
 Rotational constants (GHZ):           6.75431     0.67113     0.65189
 Zero-point vibrational energy     413830.2 (Joules/Mol)
                                   98.90780 (Kcal/Mol)
 Warning -- explicit consideration of  10 degrees of freedom as
           vibrations may cause significant error
 Vibrational temperatures:     75.47    94.53   157.20   195.32   316.76
          (Kelvin)            421.88   480.11   672.55   736.27   760.01
                             1069.05  1093.72  1142.91  1208.77  1239.84
                             1325.94  1339.13  1389.32  1416.94  1451.10
                             1493.85  1505.08  1518.46  1555.09  1565.36
                             1575.36  1650.77  1730.04  1737.17  1770.62
                             1813.99  1864.09  1897.00  1921.84  1977.18
                             2020.39  2061.27  2106.35  2119.57  2135.18
                             2642.32  4093.86  4339.66  4346.59  4358.32
                             4411.29  4464.17  4482.49  4576.92  4603.80
                             4619.65

 Zero-point correction=                           0.157620 (Hartree/Particle)
 Thermal correction to Energy=                    0.166412
 Thermal correction to Enthalpy=                  0.167356
 Thermal correction to Gibbs Free Energy=         0.122857
 Sum of electronic and zero-point Energies=           -422.990675
 Sum of electronic and thermal Energies=              -422.981883
 Sum of electronic and thermal Enthalpies=            -422.980938
 Sum of electronic and thermal Free Energies=         -423.025437

                     E (Thermal)             CV                S
                      KCal/Mol        Cal/Mol-Kelvin    Cal/Mol-Kelvin
 Total                  104.425             31.849             93.656
 Electronic               0.000              0.000              0.000
 Translational            0.889              2.981             40.409
 Rotational               0.889              2.981             29.077
 Vibrational            102.648             25.887             24.170
 Vibration     1          0.596              1.977              4.723
 Vibration     2          0.597              1.971              4.278
 Vibration     3          0.606              1.942              3.282
 Vibration     4          0.614              1.918              2.863
 Vibration     5          0.647              1.810              1.958
 Vibration     6          0.688              1.686              1.455
 Vibration     7          0.715              1.608              1.242
 Vibration     8          0.825              1.322              0.745
 Vibration     9          0.867              1.224              0.629
 Vibration    10          0.883              1.188              0.591

 Optimization completed.
    -- Stationary point found.
 Normal termination of Gaussian 09 at Mon Jan 27 14:31:26 2020.
