 Gaussian 09, Revision D.01,
 Gaussian 09:  ES64L-G09RevD.01 24-Apr-2013

 -----------------------------
 # b3lyp 6-31G(2df,p) opt Freq
 -----------------------------

 -----
 titel
 -----
 Symbolic Z-matrix:
 Charge =  0 Multiplicity = 1

 SCF Done:  E(RB3LYP) =  -423.214667868     A.U. after   14 cycles
 SCF Done:  E(RB3LYP) =  -423.214668002     A.U. after    7 cycles
 SCF Done:  E(RB3LYP) =  -423.214668070     A.U. after    6 cycles
 SCF Done:  E(RB3LYP) =  -423.214668090     A.U. after    6 cycles
 Optimization completed.
    -- Stationary point found.
 Normal termination of Gaussian 09 at Mon Jan 27 10:30:11 2020.

 ----------------------------------------------------------------------
 #N Geom=AllCheck Guess=TCheck SCRF=Check GenChk RB3LYP/6-31G(2df,p) Fr
 eq
 ----------------------------------------------------------------------

 Structure from the checkpoint file:  "/scratch/puck/g09_a7cd8923-67f8-44e4-8257-86702b9f36a3/Gau-91833.chk"
 -----
 titel
 -----
 Charge =  0 Multiplicity = 1

                         Standard orientation:
 ---------------------------------------------------------------------
 Center     Atomic      Atomic             Coordinates (Angstroms)
 Number     Number       Type             X           Y           Z
 ---------------------------------------------------------------------
      1          6           0       -2.980534   -0.133296    0.397854
      2          8           0       -1.943894    0.489006   -0.364847
      3          6           0       -0.707249    0.007144   -0.176383
      4          6           0        0.479587    0.658498   -0.048276
      5          6           0        0.691399    2.138272   -0.000410
      6          6           0        1.476652   -0.388898    0.027545
      7          6           0        2.953589   -0.201769    0.175533
      8          6           0        0.802106   -1.563020   -0.049900
      9          8           0       -0.545884   -1.342017   -0.182444
     10          1           0       -2.771694   -0.059425    1.471826
     11          1           0       -3.896893    0.409947    0.162722
     12          1           0       -3.095589   -1.185807    0.122875
     13          1           0       -0.268309    2.660900   -0.019977
     14          1           0        1.224148    2.443695    0.908190
     15          1           0        1.282530    2.496117   -0.852359
     16          1           0        3.470859   -1.164178    0.222124
     17          1           0        3.374717    0.363184   -0.664593
     18          1           0        3.200718    0.354469    1.087676
     19          1           0        1.104438   -2.596400   -0.015940
 ---------------------------------------------------------------------

 SCF Done:  E(RB3LYP) =  -423.214668090     A.U. after    1 cycles

 The electronic state is 1-A.
 Alpha  occ. eigenvalues --  -19.19100 -19.16979 -10.26432 -10.23529 -10.21071
 Alpha  occ. eigenvalues --  -10.18118 -10.17716 -10.17654 -10.16993  -1.11084
 Alpha  occ. eigenvalues --   -1.04854  -0.81100  -0.75448  -0.71247  -0.68690
 Alpha  occ. eigenvalues --   -0.67162  -0.56321  -0.55338  -0.50395  -0.47769
 Alpha  occ. eigenvalues --   -0.46639  -0.44532  -0.43158  -0.42068  -0.40301
 Alpha  occ. eigenvalues --   -0.39673  -0.39332  -0.37380  -0.36579  -0.35315
 Alpha  occ. eigenvalues --   -0.34079  -0.30348  -0.24752  -0.19227
 Alpha virt. eigenvalues --    0.03766   0.08333   0.09643   0.10696   0.12883
 Alpha virt. eigenvalues --    0.14194   0.15014   0.15484   0.15922   0.16363
 Alpha virt. eigenvalues --    0.17060   0.17634   0.19531   0.23057   0.23585

 Mulliken charges:
               1
     1  C   -0.252538
     2  O   -0.268439
     3  C    0.361322
     4  C    0.021413
     5  C   -0.509799
     6  C    0.190937
     7  C   -0.500595
     8  C   -0.130176
     9  O   -0.195664
    10  H    0.123309
    11  H    0.134994
    12  H    0.139671
    13  H    0.132597
    14  H    0.121481
    15  H    0.124592
    16  H    0.123401
    17  H    0.128153
    18  H    0.126851
    19  H    0.128492
 Sum of Mulliken charges =   0.00000

 Dipole moment (field-independent basis, Debye):
    X=             -0.0682    Y=             -0.1387    Z=              0.9244  Tot=              0.9372
 Quadrupole moment (field-independent basis, Debye-Ang):
   XX=            -46.1552   YY=            -51.7974   ZZ=            -54.5449
   XY=              0.1963   XZ=             -1.9279   YZ=              0.0992

  Exact polarizability: 103.750   1.458  84.632   0.169   0.418  51.854
 Approx polarizability: 140.254   5.967 130.655   3.162   0.622  80.167

                      1                      2                      3
                      A                      A                      A
 Frequencies --     39.3810               127.1709               132.5908
 Red. masses --      2.7045                 1.3028                 1.4513
 Frc consts  --      0.0025                 0.0124                 0.0150
 IR Inten    --      4.8500                 0.3344                 0.4606

                      4                      5                      6
                      A                      A                      A
 Frequencies --    145.4258               169.0384               218.7335
 Red. masses --      1.0582                 1.3234                 2.5703
 Frc consts  --      0.0132                 0.0223                 0.0725
 IR Inten    --      0.1211                 1.0796                 1.9356

                      7                      8                      9
                      A                      A                      A
 Frequencies --    223.7159               282.1159               310.2700
 Red. masses --      3.0638                 3.4449                 3.4154
 Frc consts  --      0.0903                 0.1615                 0.1937
 IR Inten    --      1.9324                 2.3416                 2.2930

                     10                     11                     12
                      A                      A                      A
 Frequencies --    394.9744               529.2861               565.7715
 Red. masses --      5.2684                 3.8992                 4.5691
 Frc consts  --      0.4842                 0.6436                 0.8617
 IR Inten    --      1.8172                 2.2890                 7.8307

                     13                     14                     15
                      A                      A                      A
 Frequencies --    625.8760               680.1063               698.7254
 Red. masses --      2.9746                 1.8833                 3.0642
 Frc consts  --      0.6865                 0.5133                 0.8814
 IR Inten    --      6.5109                16.2808                 4.3673

                     16                     17                     18
                      A                      A                      A
 Frequencies --    720.5240               750.3613               926.8756
 Red. masses --      4.5262                 5.2416                 2.6465
 Frc consts  --      1.3845                 1.7388                 1.3396
 IR Inten    --     13.0189                 2.3457                 3.2133

                     19                     20                     21
                      A                      A                      A
 Frequencies --   1010.0367              1037.0089              1055.2101
 Red. masses --      1.4987                 3.6073                 1.3925
 Frc consts  --      0.9008                 2.2856                 0.9135
 IR Inten    --      6.0883                45.4588                 0.8189

                     22                     23                     24
                      A                      A                      A
 Frequencies --   1074.1570              1130.9924              1137.5339
 Red. masses --      1.5080                 2.8050                 3.8570
 Frc consts  --      1.0251                 2.1140                 2.9406
 IR Inten    --      0.3666                74.7380                 7.3441

                     25                     26                     27
                      A                      A                      A
 Frequencies --   1161.6429              1180.7219              1212.1396
 Red. masses --      2.8019                 1.5338                 1.5505
 Frc consts  --      2.2277                 1.2599                 1.3422
 IR Inten    --     35.1455                20.3362                 1.8938

                     28                     29                     30
                      A                      A                      A
 Frequencies --   1279.7112              1314.1976              1406.7347
 Red. masses --      1.9731                 3.7291                 1.7189
 Frc consts  --      1.9038                 3.7946                 2.0041
 IR Inten    --     53.8676                59.5037                56.3909

                     31                     32                     33
                      A                      A                      A
 Frequencies --   1416.7686              1430.1994              1479.2671
 Red. masses --      1.3342                 1.7647                 1.0511
 Frc consts  --      1.5779                 2.1268                 1.3551
 IR Inten    --      6.9796                40.2277                 1.3063

                     34                     35                     36
                      A                      A                      A
 Frequencies --   1481.5725              1486.6007              1489.1613
 Red. masses --      1.2070                 1.0489                 1.0566
 Frc consts  --      1.5609                 1.3657                 1.3805
 IR Inten    --     11.0954                 1.4287                10.4552

                     37                     38                     39
                      A                      A                      A
 Frequencies --   1493.8869              1502.0360              1505.2542
 Red. masses --      1.2010                 1.0966                 1.0514
 Frc consts  --      1.5791                 1.4576                 1.4036
 IR Inten    --      1.9668                 0.1220                18.8386

                     40                     41                     42
                      A                      A                      A
 Frequencies --   1620.1977              1702.1258              3020.0878
 Red. masses --      5.8006                 8.3575                 1.0388
 Frc consts  --      8.9714                14.2663                 5.5821
 IR Inten    --     48.6205               139.7326                34.0364

                     43                     44                     45
                      A                      A                      A
 Frequencies --   3023.7743              3024.8297              3064.5510
 Red. masses --      1.0368                 1.0354                 1.0998
 Frc consts  --      5.5852                 5.5818                 6.0854
 IR Inten    --     74.8528                20.1050                22.0014

                     46                     47                     48
                      A                      A                      A
 Frequencies --   3071.3432              3099.8755              3108.5301
 Red. masses --      1.0996                 1.1016                 1.0991
 Frc consts  --      6.1113                 6.2368                 6.2573
 IR Inten    --     20.5597                27.9570                20.9181

                     49                     50                     51
                      A                      A                      A
 Frequencies --   3116.8955              3143.3666              3275.8652
 Red. masses --      1.0974                 1.1035                 1.0978
 Frc consts  --      6.2812                 6.4240                 6.9410
 IR Inten    --     11.2900                20.5242                 0.6535

 - Thermochemistry -
 -------------------
 Temperature   298.150 Kelvin.  Pressure   1.00000 Atm.
 Atom     1 has atomic number  6 and mass  12.00000

 Molecular mass:   126.06808 amu.
 Principal axes and moments of inertia in atomic units:
                           1         2         3
     Eigenvalues --   587.817441452.497541963.33378
           X            0.99988   0.01340  -0.00775
           Y           -0.01341   0.99991  -0.00108
           Z            0.00774   0.00118   0.99997
 This molecule is an asymmetric top.
 Rotational symmetry number  1.
 Warning -- assumption of classical behavior for rotation
           may cause significant error
 Rotational temperatures (Kelvin)      0.14735     0.05963     0.04412
 Rotational constants (GHZ):           3.07024     1.24251     0.91922
 Zero-point vibrational energy     413293.1 (Joules/Mol)
                                   98.77943 (Kcal/Mol)
 Warning -- explicit consideration of  12 degrees of freedom as
           vibrations may cause significant error
 Vibrational temperatures:     56.66   182.97   190.77   209.24   243.21
          (Kelvin)            314.71   321.88   405.90   446.41   568.28
                              761.52   814.02   900.49   978.52  1005.31
                             1036.67  1079.60  1333.57  1453.22  1492.02
                             1518.21  1545.47  1627.24  1636.66  1671.34
                             1698.79  1744.00  1841.22  1890.83  2023.97
                             2038.41  2057.74  2128.33  2131.65  2138.88
                             2142.57  2149.37  2161.09  2165.72  2331.10
                             2448.98  4345.23  4350.53  4352.05  4409.20
                             4418.97  4460.02  4472.48  4484.51  4522.60
                             4713.23

 Zero-point correction=                           0.157415 (Hartree/Particle)
 Thermal correction to Energy=                    0.167263
 Thermal correction to Enthalpy=                  0.168208
 Thermal correction to Gibbs Free Energy=         0.122117
 Sum of electronic and zero-point Energies=           -423.057253
 Sum of electronic and thermal Energies=              -423.047405
 Sum of electronic and thermal Enthalpies=            -423.046461
 Sum of electronic and thermal Free Energies=         -423.092551

                     E (Thermal)             CV                S
                      KCal/Mol        Cal/Mol-Kelvin    Cal/Mol-Kelvin
 Total                  104.959             34.700             97.006
 Electronic               0.000              0.000              0.000
 Translational            0.889              2.981             40.409
 Rotational               0.889              2.981             28.907
 Vibrational            103.182             28.738             27.690
 Vibration     1          0.594              1.981              5.290
 Vibration     2          0.611              1.926              2.988
 Vibration     3          0.613              1.921              2.908
 Vibration     4          0.617              1.908              2.731
 Vibration     5          0.625              1.881              2.446
 Vibration     6          0.647              1.813              1.970
 Vibration     7          0.649              1.805              1.929
 Vibration     8          0.681              1.707              1.521
 Vibration     9          0.699              1.654              1.361
 Vibration    10          0.762              1.481              0.981
 Vibration    11          0.884              1.185              0.589
 Vibration    12          0.922              1.105              0.512

 Normal termination of Gaussian 09 at Mon Jan 27 11:06:00 2020.
