 Gaussian 09, Revision D.01,
 Gaussian 09:  ES64L-G09RevD.01 24-Apr-2013

 -----------------------------
 # b3lyp 6-31G(2df,p) opt Freq
 -----------------------------

 -----
 titel
 -----
 Symbolic Z-matrix:
 Charge =  0 Multiplicity = 1

 SCF Done:  E(RB3LYP) =  -423.177804738     A.U. after   14 cycles
 Optimization completed.
    -- Stationary point found.
 Normal termination of Gaussian 09 at Mon Jan 27 17:24:42 2020.

 ----------------------------------------------------------------------
 #N Geom=AllCheck Guess=TCheck SCRF=Check GenChk RB3LYP/6-31G(2df,p) Fr
 eq
 ----------------------------------------------------------------------

 Structure from the checkpoint file:  "/scratch/puck/g09_56e65cdd-0667-4987-8e36-97368347f1ef/Gau-179585.chk"
 -----
 titel
 -----
 Charge =  0 Multiplicity = 1

                         Standard orientation:
 ---------------------------------------------------------------------
 Center     Atomic      Atomic             Coordinates (Angstroms)
 Number     Number       Type             X           Y           Z
 ---------------------------------------------------------------------
      1          6           0       -0.905151    1.084797    1.516655
      2          6           0       -0.451518    0.538630    0.165099
      3          6           0       -0.893687    1.459608   -0.980188
      4          6           0       -0.839231   -0.927830   -0.212898
      5          8           0       -1.909140   -1.426691   -0.436990
      6          6           0        0.571494   -1.369482   -0.392979
      7          6           0        1.369885   -1.034538    0.877308
      8          6           0        1.022382    0.089744   -0.004852
      9          8           0        2.023168    0.863308   -0.539050
     10          1           0       -0.530895    2.102345    1.675034
     11          1           0       -1.998686    1.117578    1.558925
     12          1           0       -0.559870    0.467126    2.350102
     13          1           0       -1.982560    1.555666   -0.985821
     14          1           0       -0.464014    2.461087   -0.862008
     15          1           0       -0.599213    1.066357   -1.960712
     16          1           0        0.951448   -2.087077   -1.109907
     17          1           0        0.930330   -1.165546    1.861544
     18          1           0        2.407144   -1.347844    0.807809
     19          1           0        1.689049    1.291793   -1.335515
 ---------------------------------------------------------------------

 SCF Done:  E(RB3LYP) =  -423.177804738     A.U. after    1 cycles

 The electronic state is 1-A.
 Alpha  occ. eigenvalues --  -19.16892 -19.12607 -10.26270 -10.26145 -10.20677
 Alpha  occ. eigenvalues --  -10.20660 -10.20054 -10.19173 -10.18217  -1.05765
 Alpha  occ. eigenvalues --   -1.03553  -0.89949  -0.79184  -0.70044  -0.67837
 Alpha  occ. eigenvalues --   -0.62694  -0.58520  -0.52542  -0.50788  -0.49538
 Alpha  occ. eigenvalues --   -0.46334  -0.43993  -0.42781  -0.41506  -0.40343
 Alpha  occ. eigenvalues --   -0.39167  -0.38028  -0.37922  -0.37310  -0.35328
 Alpha  occ. eigenvalues --   -0.33436  -0.30376  -0.25256  -0.23336
 Alpha virt. eigenvalues --   -0.00789   0.05511   0.09631   0.10602   0.11600
 Alpha virt. eigenvalues --    0.12435   0.13803   0.14544   0.15923   0.16962
 Alpha virt. eigenvalues --    0.18588   0.18951   0.19475   0.20782   0.21036

 Mulliken charges:
               1
     1  C   -0.456805
     2  C    0.087414
     3  C   -0.458987
     4  C    0.421997
     5  O   -0.339407
     6  C   -0.293685
     7  C   -0.332365
     8  C    0.408227
     9  O   -0.450834
    10  H    0.120511
    11  H    0.133784
    12  H    0.119101
    13  H    0.143100
    14  H    0.120001
    15  H    0.114644
    16  H    0.111488
    17  H    0.124355
    18  H    0.134029
    19  H    0.293432
 Sum of Mulliken charges =   0.00000

 Dipole moment (field-independent basis, Debye):
    X=              1.6983    Y=              1.6457    Z=             -0.2149  Tot=              2.3745
 Quadrupole moment (field-independent basis, Debye-Ang):
   XX=            -60.5353   YY=            -53.7562   ZZ=            -49.6778
   XY=             -6.4351   XZ=             -2.3565   YZ=             -2.7562

  Exact polarizability:  81.150  -2.241  77.867   2.025   0.041  69.117
 Approx polarizability: 127.359   7.760 115.659   5.504   1.494 101.863

                      1                      2                      3
                      A                      A                      A
 Frequencies --    107.1121               170.6641               181.2247
 Red. masses --      5.6046                 1.5743                 1.5864
 Frc consts  --      0.0379                 0.0270                 0.0307
 IR Inten    --      4.7701                 0.5506                 0.4579

                      4                      5                      6
                      A                      A                      A
 Frequencies --    212.8632               234.9447               277.7574
 Red. masses --      1.4425                 2.8780                 1.6430
 Frc consts  --      0.0385                 0.0936                 0.0747
 IR Inten    --      0.1125                 3.1936                 1.9530

                      7                      8                      9
                      A                      A                      A
 Frequencies --    291.3470               339.9914               388.7628
 Red. masses --      2.9948                 1.7873                 1.5522
 Frc consts  --      0.1498                 0.1217                 0.1382
 IR Inten    --      0.7663                25.5604                73.6637

                     10                     11                     12
                      A                      A                      A
 Frequencies --    408.6568               484.4294               522.6115
 Red. masses --      2.7502                 3.6373                 3.0159
 Frc consts  --      0.2706                 0.5029                 0.4853
 IR Inten    --      8.3081                 3.8403                 2.3755

                     13                     14                     15
                      A                      A                      A
 Frequencies --    597.0882               679.4974               707.6825
 Red. masses --      4.9246                 3.9014                 3.2746
 Frc consts  --      1.0344                 1.0613                 0.9662
 IR Inten    --      7.6348                 5.3968                 0.4225

                     16                     17                     18
                      A                      A                      A
 Frequencies --    739.8904               762.5113               872.0006
 Red. masses --      4.1021                 3.7890                 2.6341
 Frc consts  --      1.3231                 1.2980                 1.1801
 IR Inten    --     17.2452                 6.7081                20.0212

                     19                     20                     21
                      A                      A                      A
 Frequencies --    931.7372               955.6963               958.2860
 Red. masses --      1.5279                 1.4690                 1.4018
 Frc consts  --      0.7815                 0.7905                 0.7585
 IR Inten    --     20.8754                 8.6981                 0.4842

                     22                     23                     24
                      A                      A                      A
 Frequencies --    987.6423              1010.2765              1041.9717
 Red. masses --      1.4990                 1.4232                 1.9573
 Frc consts  --      0.8615                 0.8559                 1.2520
 IR Inten    --     11.0407                 0.7314                23.3457

                     25                     26                     27
                      A                      A                      A
 Frequencies --   1073.5866              1114.9142              1174.5453
 Red. masses --      1.7241                 1.5765                 2.4517
 Frc consts  --      1.1708                 1.1546                 1.9928
 IR Inten    --     23.9402                 2.8741                14.3130

                     28                     29                     30
                      A                      A                      A
 Frequencies --   1190.3976              1194.7245              1240.6651
 Red. masses --      2.1304                 3.1941                 2.2370
 Frc consts  --      1.7787                 2.6861                 2.0287
 IR Inten    --     25.3351                11.1809                13.5347

                     31                     32                     33
                      A                      A                      A
 Frequencies --   1265.5922              1345.3247              1391.2035
 Red. masses --      2.3007                 3.0572                 1.2570
 Frc consts  --      2.1712                 3.2601                 1.4334
 IR Inten    --     94.0096               145.3047                 5.4254

                     34                     35                     36
                      A                      A                      A
 Frequencies --   1415.7461              1429.6375              1481.7227
 Red. masses --      1.2226                 1.7584                 1.0684
 Frc consts  --      1.4437                 2.1175                 1.3820
 IR Inten    --      6.1216                 6.1417                 2.2819

                     37                     38                     39
                      A                      A                      A
 Frequencies --   1486.1312              1501.2880              1506.2894
 Red. masses --      1.0540                 1.1418                 1.0847
 Frc consts  --      1.3716                 1.5162                 1.4500
 IR Inten    --      2.7875                 3.5629                 7.1629

                     40                     41                     42
                      A                      A                      A
 Frequencies --   1514.2194              1867.8376              3020.5396
 Red. masses --      1.2916                12.2677                 1.0370
 Frc consts  --      1.7448                25.2168                 5.5744
 IR Inten    --     25.7306               289.1224                21.3476

                     43                     44                     45
                      A                      A                      A
 Frequencies --   3033.4238              3083.5898              3098.8589
 Red. masses --      1.0363                 1.1015                 1.1005
 Frc consts  --      5.6183                 6.1708                 6.2265
 IR Inten    --     20.8561                23.0622                15.1310

                     46                     47                     48
                      A                      A                      A
 Frequencies --   3110.9066              3115.9672              3121.1558
 Red. masses --      1.0988                 1.0983                 1.0572
 Frc consts  --      6.2653                 6.2829                 6.0679
 IR Inten    --     11.8130                14.5580                22.1934

                     49                     50                     51
                      A                      A                      A
 Frequencies --   3193.1184              3207.0569              3796.5000
 Red. masses --      1.0958                 1.1132                 1.0654
 Frc consts  --      6.5827                 6.7457                 9.0473
 IR Inten    --      3.4373                 6.3914                24.9861

 - Thermochemistry -
 -------------------
 Temperature   298.150 Kelvin.  Pressure   1.00000 Atm.
 Atom     1 has atomic number  6 and mass  12.00000

 Molecular mass:   126.06808 amu.
 Principal axes and moments of inertia in atomic units:
                           1         2         3
     Eigenvalues --   848.974491063.515491324.41235
           X            0.97693  -0.21340  -0.00855
           Y            0.21314   0.97672  -0.02432
           Z            0.01354   0.02194   0.99967
 This molecule is an asymmetric top.
 Rotational symmetry number  1.
 Warning -- assumption of classical behavior for rotation
           may cause significant error
 Rotational temperatures (Kelvin)      0.10202     0.08144     0.06540
 Rotational constants (GHZ):           2.12579     1.69696     1.36267
 Zero-point vibrational energy     411752.2 (Joules/Mol)
                                   98.41113 (Kcal/Mol)
 Warning -- explicit consideration of  13 degrees of freedom as
           vibrations may cause significant error
 Vibrational temperatures:    154.11   245.55   260.74   306.26   338.03
          (Kelvin)            399.63   419.18   489.17   559.34   587.97
                              696.99   751.92   859.08   977.64  1018.20
                             1064.54  1097.08  1254.61  1340.56  1375.03
                             1378.76  1421.00  1453.56  1499.16  1544.65
                             1604.11  1689.91  1712.71  1718.94  1785.04
                             1820.90  1935.62  2001.63  2036.94  2056.93
                             2131.87  2138.21  2160.02  2167.21  2178.62
                             2687.40  4345.88  4364.41  4436.59  4458.56
                             4475.90  4483.18  4490.64  4594.18  4614.23
                             5462.31

 Zero-point correction=                           0.156828 (Hartree/Particle)
 Thermal correction to Energy=                    0.166015
 Thermal correction to Enthalpy=                  0.166959
 Thermal correction to Gibbs Free Energy=         0.123635
 Sum of electronic and zero-point Energies=           -423.020977
 Sum of electronic and thermal Energies=              -423.011790
 Sum of electronic and thermal Enthalpies=            -423.010846
 Sum of electronic and thermal Free Energies=         -423.054170

                     E (Thermal)             CV                S
                      KCal/Mol        Cal/Mol-Kelvin    Cal/Mol-Kelvin
 Total                  104.176             35.209             91.184
 Electronic               0.000              0.000              0.000
 Translational            0.889              2.981             40.409
 Rotational               0.889              2.981             28.571
 Vibrational            102.398             29.247             22.204
 Vibration     1          0.606              1.944              3.321
 Vibration     2          0.626              1.879              2.428
 Vibration     3          0.630              1.865              2.316
 Vibration     4          0.644              1.821              2.019
 Vibration     5          0.655              1.787              1.841
 Vibration     6          0.679              1.715              1.547
 Vibration     7          0.687              1.690              1.466
 Vibration     8          0.720              1.596              1.212
 Vibration     9          0.757              1.494              1.005
 Vibration    10          0.773              1.451              0.931
 Vibration    11          0.841              1.285              0.698
 Vibration    12          0.878              1.200              0.604
 Vibration    13          0.955              1.038              0.455

 Normal termination of Gaussian 09 at Mon Jan 27 18:08:30 2020.
