 Gaussian 09, Revision D.01,
 Gaussian 09:  ES64L-G09RevD.01 24-Apr-2013

 -----------------------------
 # b3lyp 6-31G(2df,p) opt Freq
 -----------------------------

 -----
 titel
 -----
 Symbolic Z-matrix:
 Charge =  0 Multiplicity = 1

 SCF Done:  E(RB3LYP) =  -423.134368604     A.U. after   14 cycles
 Optimization completed.
    -- Stationary point found.
 Normal termination of Gaussian 09 at Mon Jan 27 17:51:46 2020.

 ----------------------------------------------------------------------
 #N Geom=AllCheck Guess=TCheck SCRF=Check GenChk RB3LYP/6-31G(2df,p) Fr
 eq
 ----------------------------------------------------------------------

 Structure from the checkpoint file:  "/scratch/puck/g09_ce6f7cae-ba10-4dc1-b450-b7e225de702d/Gau-45630.chk"
 -----
 titel
 -----
 Charge =  0 Multiplicity = 1

                         Standard orientation:
 ---------------------------------------------------------------------
 Center     Atomic      Atomic             Coordinates (Angstroms)
 Number     Number       Type             X           Y           Z
 ---------------------------------------------------------------------
      1          6           0       -1.178422    1.900434   -0.208107
      2          6           0       -0.934692    0.444693    0.003696
      3          8           0       -1.716724   -0.285719    0.963990
      4          6           0       -1.655383   -0.780259   -0.386118
      5          6           0       -0.359741   -1.589257   -0.497885
      6          6           0        0.414359   -0.308646   -0.046522
      7          6           0        1.438403   -0.238026    1.097961
      8          6           0        2.377798    0.353773    0.029634
      9          8           0        1.369922    0.198995   -0.997424
     10          1           0       -2.245926    2.100567   -0.332068
     11          1           0       -0.819801    2.485498    0.646761
     12          1           0       -0.642941    2.240121   -1.099257
     13          1           0       -2.597567   -0.907224   -0.907258
     14          1           0       -0.290689   -2.475307    0.138448
     15          1           0       -0.088311   -1.837745   -1.527229
     16          1           0        1.167893    0.419573    1.925694
     17          1           0        1.742630   -1.207172    1.496327
     18          1           0        2.656038    1.405157    0.168723
     19          1           0        3.279155   -0.225944   -0.198623
 ---------------------------------------------------------------------

 SCF Done:  E(RB3LYP) =  -423.134368604     A.U. after    1 cycles

 The electronic state is 1-A.
 Alpha  occ. eigenvalues --  -19.14683 -19.13510 -10.24065 -10.23410 -10.23281
 Alpha  occ. eigenvalues --  -10.23216 -10.18725 -10.18433 -10.18403  -1.07404
 Alpha  occ. eigenvalues --   -1.03799  -0.79154  -0.74206  -0.74066  -0.66189
 Alpha  occ. eigenvalues --   -0.61382  -0.59088  -0.51068  -0.49646  -0.49194
 Alpha  occ. eigenvalues --   -0.47489  -0.44955  -0.42497  -0.41748  -0.40901
 Alpha  occ. eigenvalues --   -0.39186  -0.37894  -0.36456  -0.34436  -0.32086
 Alpha  occ. eigenvalues --   -0.31034  -0.29087  -0.25777  -0.23479
 Alpha virt. eigenvalues --    0.07545   0.08648   0.10172   0.11613   0.12168
 Alpha virt. eigenvalues --    0.13112   0.13887   0.14385   0.15321   0.16482
 Alpha virt. eigenvalues --    0.17219   0.17928   0.19162   0.19921   0.20422

 Mulliken charges:
               1
     1  C   -0.518512
     2  C    0.355109
     3  O   -0.294731
     4  C   -0.046073
     5  C   -0.329160
     6  C    0.411663
     7  C   -0.352409
     8  C   -0.077963
     9  O   -0.322744
    10  H    0.132731
    11  H    0.126935
    12  H    0.141887
    13  H    0.102928
    14  H    0.105647
    15  H    0.120200
    16  H    0.118075
    17  H    0.115623
    18  H    0.104385
    19  H    0.106408
 Sum of Mulliken charges =   0.00000

 Dipole moment (field-independent basis, Debye):
    X=              0.7214    Y=              0.1604    Z=             -0.0922  Tot=              0.7447
 Quadrupole moment (field-independent basis, Debye-Ang):
   XX=            -51.5476   YY=            -50.1390   ZZ=            -55.9743
   XY=             -0.5332   XZ=              5.9555   YZ=              1.4110

  Exact polarizability:  83.522   2.346  77.859   2.634   2.580  63.123
 Approx polarizability: 110.833   5.925 109.184  -1.050   3.519 102.295

                      1                      2                      3
                      A                      A                      A
 Frequencies --     77.0454               117.4026               183.7193
 Red. masses --      2.2085                 2.9955                 1.9682
 Frc consts  --      0.0077                 0.0243                 0.0391
 IR Inten    --      0.6101                 3.6055                 3.1123

                      4                      5                      6
                      A                      A                      A
 Frequencies --    194.4943               222.5171               322.9780
 Red. masses --      1.3394                 2.8114                 2.4031
 Frc consts  --      0.0299                 0.0820                 0.1477
 IR Inten    --      1.2707                 0.7237                 4.3087

                      7                      8                      9
                      A                      A                      A
 Frequencies --    420.7787               446.4353               470.5791
 Red. masses --      2.8793                 3.9282                 3.4655
 Frc consts  --      0.3004                 0.4613                 0.4521
 IR Inten    --      0.4435                 5.3541                 2.4019

                     10                     11                     12
                      A                      A                      A
 Frequencies --    553.9293               653.7543               761.6856
 Red. masses --      4.0602                 3.4173                 3.6772
 Frc consts  --      0.7340                 0.8605                 1.2570
 IR Inten    --      4.1251                 0.8539                 4.7002

                     13                     14                     15
                      A                      A                      A
 Frequencies --    779.3858               853.8496               864.1402
 Red. masses --      1.2394                 2.2151                 3.1856
 Frc consts  --      0.4436                 0.9515                 1.4015
 IR Inten    --      0.8091                 7.1579                33.4762

                     16                     17                     18
                      A                      A                      A
 Frequencies --    871.4405               911.4725               929.1143
 Red. masses --      2.9482                 2.0696                 2.0787
 Frc consts  --      1.3191                 1.0130                 1.0573
 IR Inten    --      0.3005                 2.3558                12.2829

                     19                     20                     21
                      A                      A                      A
 Frequencies --    969.0263               975.9698              1017.7034
 Red. masses --      1.4679                 2.7015                 7.4328
 Frc consts  --      0.8121                 1.5161                 4.5357
 IR Inten    --      2.1722                 4.9230               110.4791

                     22                     23                     24
                      A                      A                      A
 Frequencies --   1041.8417              1087.1929              1105.9101
 Red. masses --      1.9148                 2.3406                 1.8279
 Frc consts  --      1.2246                 1.6300                 1.3172
 IR Inten    --      5.0401                29.1040                 4.2160

                     25                     26                     27
                      A                      A                      A
 Frequencies --   1127.1887              1157.9426              1165.9486
 Red. masses --      2.2797                 2.0723                 1.2416
 Frc consts  --      1.7066                 1.6371                 0.9945
 IR Inten    --     11.1561                29.7616                 3.6095

                     28                     29                     30
                      A                      A                      A
 Frequencies --   1205.4651              1207.0999              1216.1743
 Red. masses --      1.6729                 1.4747                 1.6377
 Frc consts  --      1.4323                 1.2661                 1.4272
 IR Inten    --      0.8399                 5.1234                 5.0871

                     31                     32                     33
                      A                      A                      A
 Frequencies --   1258.3420              1266.1984              1313.3525
 Red. masses --      1.6226                 1.5812                 2.9965
 Frc consts  --      1.5138                 1.4937                 3.0453
 IR Inten    --     11.9069                 5.9347                20.3885

                     34                     35                     36
                      A                      A                      A
 Frequencies --   1353.2184              1398.1148              1451.0302
 Red. masses --      1.4790                 1.2825                 1.4789
 Frc consts  --      1.5957                 1.4770                 1.8346
 IR Inten    --      3.1852                 4.3606                 4.8096

                     37                     38                     39
                      A                      A                      A
 Frequencies --   1472.9191              1483.4214              1487.6539
 Red. masses --      1.3500                 1.3717                 1.1104
 Frc consts  --      1.7256                 1.7784                 1.4479
 IR Inten    --      7.4748                 9.2865                10.1172

                     40                     41                     42
                      A                      A                      A
 Frequencies --   1496.0753              1530.4667              3023.3466
 Red. masses --      1.2408                 1.1112                 1.0556
 Frc consts  --      1.6363                 1.5335                 5.6852
 IR Inten    --      3.6840                 1.0067                84.4152

                     43                     44                     45
                      A                      A                      A
 Frequencies --   3034.9225              3060.1600              3065.6005
 Red. masses --      1.0379                 1.0576                 1.1110
 Frc consts  --      5.6326                 5.8350                 6.1519
 IR Inten    --     20.6700                21.8561                34.1403

                     46                     47                     48
                      A                      A                      A
 Frequencies --   3081.8232              3100.2082              3123.0513
 Red. masses --      1.0596                 1.0967                 1.1081
 Frc consts  --      5.9291                 6.2103                 6.3677
 IR Inten    --     19.2993                13.5206                11.8330

                     49                     50                     51
                      A                      A                      A
 Frequencies --   3126.7353              3135.4151              3183.2581
 Red. masses --      1.1020                 1.1086                 1.0943
 Frc consts  --      6.3479                 6.4214                 6.5332
 IR Inten    --     10.6940                17.9151                23.1289

 - Thermochemistry -
 -------------------
 Temperature   298.150 Kelvin.  Pressure   1.00000 Atm.
 Atom     1 has atomic number  6 and mass  12.00000

 Molecular mass:   126.06808 amu.
 Principal axes and moments of inertia in atomic units:
                           1         2         3
     Eigenvalues --   641.264471180.369591384.13547
           X            0.99899  -0.02409   0.03802
           Y            0.02352   0.99961   0.01537
           Z           -0.03837  -0.01446   0.99916
 This molecule is an asymmetric top.
 Rotational symmetry number  1.
 Warning -- assumption of classical behavior for rotation
           may cause significant error
 Rotational temperatures (Kelvin)      0.13507     0.07338     0.06258
 Rotational constants (GHZ):           2.81435     1.52896     1.30388
 Zero-point vibrational energy     414850.0 (Joules/Mol)
                                   99.15152 (Kcal/Mol)
 Warning -- explicit consideration of  10 degrees of freedom as
           vibrations may cause significant error
 Vibrational temperatures:    110.85   168.92   264.33   279.83   320.15
          (Kelvin)            464.69   605.41   642.32   677.06   796.98
                              940.61  1095.89  1121.36  1228.50  1243.30
                             1253.81  1311.40  1336.79  1394.21  1404.20
                             1464.25  1498.98  1564.23  1591.16  1621.77
                             1666.02  1677.54  1734.39  1736.75  1749.80
                             1810.47  1821.77  1889.62  1946.98  2011.57
                             2087.71  2119.20  2134.31  2140.40  2152.52
                             2202.00  4349.92  4366.57  4402.88  4410.71
                             4434.05  4460.50  4493.37  4498.67  4511.16
                             4579.99

 Zero-point correction=                           0.158008 (Hartree/Particle)
 Thermal correction to Energy=                    0.166373
 Thermal correction to Enthalpy=                  0.167317
 Thermal correction to Gibbs Free Energy=         0.124943
 Sum of electronic and zero-point Energies=           -422.976361
 Sum of electronic and thermal Energies=              -422.967995
 Sum of electronic and thermal Enthalpies=            -422.967051
 Sum of electronic and thermal Free Energies=         -423.009426

                     E (Thermal)             CV                S
                      KCal/Mol        Cal/Mol-Kelvin    Cal/Mol-Kelvin
 Total                  104.401             31.743             89.185
 Electronic               0.000              0.000              0.000
 Translational            0.889              2.981             40.409
 Rotational               0.889              2.981             28.440
 Vibrational            102.623             25.781             20.336
 Vibration     1          0.599              1.964              3.965
 Vibration     2          0.608              1.935              3.143
 Vibration     3          0.631              1.862              2.290
 Vibration     4          0.635              1.848              2.185
 Vibration     5          0.648              1.807              1.939
 Vibration     6          0.708              1.629              1.295
 Vibration     7          0.783              1.425              0.889
 Vibration     8          0.806              1.369              0.807
 Vibration     9          0.828              1.315              0.736
 Vibration    10          0.909              1.131              0.536

 Optimization completed.
    -- Stationary point found.
 Normal termination of Gaussian 09 at Mon Jan 27 18:34:10 2020.
