 Gaussian 09, Revision D.01,
 Gaussian 09:  ES64L-G09RevD.01 24-Apr-2013

 -----------------------------
 # b3lyp 6-31G(2df,p) opt Freq
 -----------------------------

 -----
 titel
 -----
 Symbolic Z-matrix:
 Charge =  0 Multiplicity = 1

 SCF Done:  E(RB3LYP) =  -423.219531982     A.U. after   14 cycles
 Optimization completed.
    -- Stationary point found.
 Normal termination of Gaussian 09 at Mon Jan 27 10:21:53 2020.

 ----------------------------------------------------------------------
 #N Geom=AllCheck Guess=TCheck SCRF=Check GenChk RB3LYP/6-31G(2df,p) Fr
 eq
 ----------------------------------------------------------------------

 Structure from the checkpoint file:  "/scratch/puck/g09_00d52998-5c2a-4d6d-b5ba-4cf98e8d6bce/Gau-14496.chk"
 -----
 titel
 -----
 Charge =  0 Multiplicity = 1

                         Standard orientation:
 ---------------------------------------------------------------------
 Center     Atomic      Atomic             Coordinates (Angstroms)
 Number     Number       Type             X           Y           Z
 ---------------------------------------------------------------------
      1          6           0       -2.400837   -0.996152    0.083545
      2          6           0       -1.460673    0.182897    0.343006
      3          8           0       -1.823959    1.323465   -0.441316
      4          6           0       -0.009398   -0.164205    0.142425
      5          6           0        1.125359    0.595759    0.063403
      6          6           0        1.243500    2.086235    0.176812
      7          6           0        2.204020   -0.335251   -0.126767
      8          6           0        1.649955   -1.572970   -0.145087
      9          8           0        0.305238   -1.491215    0.014327
     10          1           0       -2.192955   -1.826677    0.763030
     11          1           0       -3.432088   -0.665483    0.227374
     12          1           0       -2.290281   -1.366620   -0.940817
     13          1           0       -1.611770    0.526500    1.374695
     14          1           0       -1.577832    1.130300   -1.353394
     15          1           0        1.838769    2.499066   -0.645516
     16          1           0        0.259530    2.556810    0.154471
     17          1           0        1.744902    2.375693    1.108204
     18          1           0        3.251610   -0.097863   -0.235079
     19          1           0        2.048323   -2.567602   -0.261084
 ---------------------------------------------------------------------

 SCF Done:  E(RB3LYP) =  -423.219531982     A.U. after    1 cycles

 The electronic state is 1-A.
 Alpha  occ. eigenvalues --  -19.19833 -19.13746 -10.24136 -10.22443 -10.22085
 Alpha  occ. eigenvalues --  -10.18265 -10.17640 -10.17493 -10.17420  -1.10104
 Alpha  occ. eigenvalues --   -1.01823  -0.80398  -0.77561  -0.72394  -0.68993
 Alpha  occ. eigenvalues --   -0.62900  -0.57995  -0.54983  -0.51222  -0.46937
 Alpha  occ. eigenvalues --   -0.46618  -0.43951  -0.43283  -0.41297  -0.40183
 Alpha  occ. eigenvalues --   -0.39590  -0.37623  -0.37033  -0.36734  -0.34815
 Alpha  occ. eigenvalues --   -0.33070  -0.27496  -0.26213  -0.21370
 Alpha virt. eigenvalues --    0.01582   0.06528   0.09217   0.11484   0.12644
 Alpha virt. eigenvalues --    0.13480   0.14761   0.15658   0.16912   0.17694
 Alpha virt. eigenvalues --    0.17975   0.18653   0.19872   0.20161   0.24088

 Mulliken charges:
               1
     1  C   -0.388642
     2  C    0.010545
     3  O   -0.416697
     4  C    0.241820
     5  C    0.155113
     6  C   -0.517110
     7  C   -0.258178
     8  C   -0.027154
     9  O   -0.182811
    10  H    0.127296
    11  H    0.120759
    12  H    0.114631
    13  H    0.105295
    14  H    0.276646
    15  H    0.122598
    16  H    0.149375
    17  H    0.126452
    18  H    0.108153
    19  H    0.131909
 Sum of Mulliken charges =   0.00000

 Dipole moment (field-independent basis, Debye):
    X=              0.8578    Y=             -0.6060    Z=             -0.5042  Tot=              1.1650
 Quadrupole moment (field-independent basis, Debye-Ang):
   XX=            -51.6160   YY=            -53.8017   ZZ=            -51.5393
   XY=              1.6563   XZ=             -0.1427   YZ=             -0.1670

  Exact polarizability:  95.101   0.642  87.196  -2.813   1.377  54.341
 Approx polarizability: 134.713   1.408 133.555  -5.093   1.819  85.287

                      1                      2                      3
                      A                      A                      A
 Frequencies --     32.6666               135.3992               163.8318
 Red. masses --      3.3931                 1.0528                 3.5656
 Frc consts  --      0.0021                 0.0114                 0.0564
 IR Inten    --      1.0583                 1.1450                 0.1584

                      4                      5                      6
                      A                      A                      A
 Frequencies --    189.3259               243.5974               267.0941
 Red. masses --      3.4794                 1.1636                 2.7192
 Frc consts  --      0.0735                 0.0407                 0.1143
 IR Inten    --      1.8135                 0.3490                 1.0797

                      7                      8                      9
                      A                      A                      A
 Frequencies --    290.7716               316.1258               384.1019
 Red. masses --      2.8079                 1.2213                 3.0537
 Frc consts  --      0.1399                 0.0719                 0.2654
 IR Inten    --      1.2697                82.6881                39.9840

                     10                     11                     12
                      A                      A                      A
 Frequencies --    443.1436               497.3516               616.2834
 Red. masses --      3.5324                 2.9803                 4.4971
 Frc consts  --      0.4087                 0.4343                 1.0063
 IR Inten    --      4.7194                18.8117                15.4688

                     13                     14                     15
                      A                      A                      A
 Frequencies --    623.6382               673.7586               726.2624
 Red. masses --      3.8347                 4.4894                 2.2547
 Frc consts  --      0.8787                 1.2007                 0.7007
 IR Inten    --      2.9393                 3.2468                 5.1174

                     16                     17                     18
                      A                      A                      A
 Frequencies --    754.8839               825.0027               890.5935
 Red. masses --      1.6120                 1.2333                 2.9081
 Frc consts  --      0.5412                 0.4946                 1.3590
 IR Inten    --     25.8331                 5.3688                13.9295

                     19                     20                     21
                      A                      A                      A
 Frequencies --    912.8349               990.3295              1018.4266
 Red. masses --      4.0515                 1.6273                 1.5952
 Frc consts  --      1.9891                 0.9403                 0.9748
 IR Inten    --     11.8004                 1.5142                24.8864

                     22                     23                     24
                      A                      A                      A
 Frequencies --   1060.7660              1067.4265              1080.0793
 Red. masses --      2.0686                 1.4983                 2.0007
 Frc consts  --      1.3714                 1.0058                 1.3751
 IR Inten    --     12.9012                 0.6356                27.9607

                     25                     26                     27
                      A                      A                      A
 Frequencies --   1093.4512              1146.9504              1187.2402
 Red. masses --      2.1346                 2.7885                 2.2845
 Frc consts  --      1.5037                 2.1613                 1.8972
 IR Inten    --     78.4027                 7.3194                12.6455

                     28                     29                     30
                      A                      A                      A
 Frequencies --   1256.5272              1277.7421              1281.4323
 Red. masses --      3.8133                 1.5369                 1.8249
 Frc consts  --      3.5473                 1.4784                 1.7655
 IR Inten    --      2.5837                12.4091                 0.8752

                     31                     32                     33
                      A                      A                      A
 Frequencies --   1345.0476              1402.5323              1412.1818
 Red. masses --      1.4300                 1.2799                 1.2286
 Frc consts  --      1.5242                 1.4833                 1.4436
 IR Inten    --     25.7092                 6.4443                14.1612

                     34                     35                     36
                      A                      A                      A
 Frequencies --   1421.6717              1432.0728              1488.8693
 Red. masses --      1.1988                 3.1166                 1.0575
 Frc consts  --      1.4276                 3.7659                 1.3812
 IR Inten    --     40.6660                14.0566                 6.9051

                     37                     38                     39
                      A                      A                      A
 Frequencies --   1491.7381              1494.3953              1501.9212
 Red. masses --      1.0605                 1.1126                 1.0470
 Frc consts  --      1.3905                 1.4639                 1.3915
 IR Inten    --      1.4425                 1.7449                 3.9870

                     40                     41                     42
                      A                      A                      A
 Frequencies --   1537.2327              1648.5548              3020.9785
 Red. masses --      4.8836                 7.0479                 1.0831
 Frc consts  --      6.7994                11.2854                 5.8238
 IR Inten    --      8.1474                 3.6471                21.1158

                     43                     44                     45
                      A                      A                      A
 Frequencies --   3028.3542              3044.3220              3075.0297
 Red. masses --      1.0405                 1.0358                 1.0988
 Frc consts  --      5.6225                 5.6558                 6.1218
 IR Inten    --     37.4002                14.3308                19.6571

                     46                     47                     48
                      A                      A                      A
 Frequencies --   3116.8754              3133.5511              3141.2724
 Red. masses --      1.1001                 1.1031                 1.0970
 Frc consts  --      6.2968                 6.3817                 6.3776
 IR Inten    --     25.3757                18.0319                 3.1581

                     49                     50                     51
                      A                      A                      A
 Frequencies --   3245.7333              3279.9953              3793.0930
 Red. masses --      1.0907                 1.1045                 1.0659
 Frc consts  --      6.7702                 7.0012                 9.0354
 IR Inten    --      2.8224                 1.6933                14.0446

 - Thermochemistry -
 -------------------
 Temperature   298.150 Kelvin.  Pressure   1.00000 Atm.
 Atom     1 has atomic number  6 and mass  12.00000

 Molecular mass:   126.06808 amu.
 Principal axes and moments of inertia in atomic units:
                           1         2         3
     Eigenvalues --   743.227661201.262311853.03064
           X            0.99663   0.08200  -0.00266
           Y           -0.08198   0.99662   0.00549
           Z            0.00311  -0.00526   0.99998
 This molecule is an asymmetric top.
 Rotational symmetry number  1.
 Warning -- assumption of classical behavior for rotation
           may cause significant error
 Rotational temperatures (Kelvin)      0.11654     0.07210     0.04674
 Rotational constants (GHZ):           2.42825     1.50237     0.97394
 Zero-point vibrational energy     415717.0 (Joules/Mol)
                                   99.35875 (Kcal/Mol)
 Warning -- explicit consideration of  12 degrees of freedom as
           vibrations may cause significant error
 Vibrational temperatures:     47.00   194.81   235.72   272.40   350.48
          (Kelvin)            384.29   418.35   454.83   552.64   637.58
                              715.58   886.69   897.28   969.39  1044.93
                             1086.11  1186.99  1281.36  1313.36  1424.86
                             1465.29  1526.20  1535.79  1553.99  1573.23
                             1650.20  1708.17  1807.86  1838.38  1843.69
                             1935.22  2017.93  2031.81  2045.47  2060.43
                             2142.15  2146.28  2150.10  2160.93  2211.73
                             2371.90  4346.51  4357.12  4380.09  4424.28
                             4484.48  4508.48  4519.58  4669.88  4719.18
                             5457.41

 Zero-point correction=                           0.158338 (Hartree/Particle)
 Thermal correction to Energy=                    0.167639
 Thermal correction to Enthalpy=                  0.168583
 Thermal correction to Gibbs Free Energy=         0.123812
 Sum of electronic and zero-point Energies=           -423.061194
 Sum of electronic and thermal Energies=              -423.051893
 Sum of electronic and thermal Enthalpies=            -423.050949
 Sum of electronic and thermal Free Energies=         -423.095720

                     E (Thermal)             CV                S
                      KCal/Mol        Cal/Mol-Kelvin    Cal/Mol-Kelvin
 Total                  105.195             34.394             94.229
 Electronic               0.000              0.000              0.000
 Translational            0.889              2.981             40.409
 Rotational               0.889              2.981             28.894
 Vibrational            103.418             28.432             24.926
 Vibration     1          0.594              1.983              5.661
 Vibration     2          0.613              1.918              2.868
 Vibration     3          0.623              1.887              2.505
 Vibration     4          0.633              1.855              2.234
 Vibration     5          0.659              1.773              1.776
 Vibration     6          0.672              1.734              1.615
 Vibration     7          0.687              1.691              1.469
 Vibration     8          0.703              1.643              1.330
 Vibration     9          0.753              1.504              1.023
 Vibration    10          0.803              1.376              0.817
 Vibration    11          0.853              1.256              0.665
 Vibration    12          0.976              0.997              0.422

 Normal termination of Gaussian 09 at Mon Jan 27 11:00:25 2020.
