 Gaussian 09, Revision D.01,
 Gaussian 09:  ES64L-G09RevD.01 24-Apr-2013

 -----------------------------
 # b3lyp 6-31G(2df,p) opt Freq
 -----------------------------

 -----
 titel
 -----
 Symbolic Z-matrix:
 Charge =  0 Multiplicity = 1

 SCF Done:  E(RB3LYP) =  -423.211762293     A.U. after   14 cycles
 Optimization completed.
    -- Stationary point found.
 Normal termination of Gaussian 09 at Mon Jan 27 22:03:32 2020.

 ----------------------------------------------------------------------
 #N Geom=AllCheck Guess=TCheck SCRF=Check GenChk RB3LYP/6-31G(2df,p) Fr
 eq
 ----------------------------------------------------------------------

 Structure from the checkpoint file:  "/scratch/puck/g09_4bdbd91c-2164-419d-8ce9-83381765cc20/Gau-53251.chk"
 -----
 titel
 -----
 Charge =  0 Multiplicity = 1

                         Standard orientation:
 ---------------------------------------------------------------------
 Center     Atomic      Atomic             Coordinates (Angstroms)
 Number     Number       Type             X           Y           Z
 ---------------------------------------------------------------------
      1          6           0        0.097485    2.472998   -0.058744
      2          6           0       -0.265449    1.013099   -0.034278
      3          6           0        0.601233   -0.021626   -0.018035
      4          6           0        0.120133   -1.459721   -0.043883
      5          8           0       -1.243482   -1.598088   -0.385534
      6          6           0       -2.060527   -0.709412    0.347231
      7          6           0       -1.751424    0.736695   -0.037548
      8          6           0        2.061911    0.127761    0.047792
      9          8           0        2.822079   -0.818841    0.087074
     10          1           0       -0.416829    2.966433   -0.892944
     11          1           0       -0.258280    2.965553    0.855001
     12          1           0        1.163628    2.671263   -0.158416
     13          1           0        0.692000   -2.021847   -0.786838
     14          1           0        0.326918   -1.931372    0.932295
     15          1           0       -3.097121   -0.968290    0.114776
     16          1           0       -1.910663   -0.850277    1.430886
     17          1           0       -2.150473    0.953104   -1.038691
     18          1           0       -2.257660    1.430475    0.646817
     19          1           0        2.459530    1.161631    0.069579
 ---------------------------------------------------------------------

 SCF Done:  E(RB3LYP) =  -423.211762293     A.U. after    1 cycles

 The electronic state is 1-A.
 Alpha  occ. eigenvalues --  -19.14230 -19.12982 -10.26312 -10.23482 -10.22948
 Alpha  occ. eigenvalues --  -10.22303 -10.20026 -10.19980 -10.19507  -1.04072
 Alpha  occ. eigenvalues --   -1.03433  -0.83820  -0.77561  -0.72780  -0.67543
 Alpha  occ. eigenvalues --   -0.62982  -0.59503  -0.52482  -0.49665  -0.48780
 Alpha  occ. eigenvalues --   -0.47243  -0.45129  -0.43830  -0.41893  -0.41695
 Alpha  occ. eigenvalues --   -0.40215  -0.39320  -0.38928  -0.37613  -0.35548
 Alpha  occ. eigenvalues --   -0.31333  -0.26335  -0.25629  -0.24350
 Alpha virt. eigenvalues --   -0.05408   0.06198   0.08253   0.09259   0.11540
 Alpha virt. eigenvalues --    0.12989   0.13766   0.14639   0.15887   0.16567
 Alpha virt. eigenvalues --    0.17209   0.18649   0.20317   0.21678   0.22420

 Mulliken charges:
               1
     1  C   -0.488728
     2  C    0.211155
     3  C    0.077612
     4  C   -0.155768
     5  O   -0.242928
     6  C   -0.092523
     7  C   -0.283941
     8  C    0.089427
     9  O   -0.279357
    10  H    0.137679
    11  H    0.137474
    12  H    0.137668
    13  H    0.135910
    14  H    0.108220
    15  H    0.110894
    16  H    0.091573
    17  H    0.126903
    18  H    0.108498
    19  H    0.070232
 Sum of Mulliken charges =   0.00000

 Dipole moment (field-independent basis, Debye):
    X=             -2.5468    Y=              3.1900    Z=              0.5717  Tot=              4.1218
 Quadrupole moment (field-independent basis, Debye-Ang):
   XX=            -59.2988   YY=            -53.2292   ZZ=            -52.8113
   XY=              1.8746   XZ=             -1.6238   YZ=             -1.0723

  Exact polarizability:  99.307 -12.281  90.866   0.000  -1.306  54.806
 Approx polarizability: 149.889 -36.032 138.280   2.186  -0.523  87.144

                      1                      2                      3
                      A                      A                      A
 Frequencies --    105.2145               126.8939               146.4519
 Red. masses --      3.2182                 2.4699                 1.2567
 Frc consts  --      0.0210                 0.0234                 0.0159
 IR Inten    --      2.3642                 0.8201                 0.3244

                      4                      5                      6
                      A                      A                      A
 Frequencies --    172.1302               228.3354               318.3617
 Red. masses --      1.7649                 5.9670                 2.6320
 Frc consts  --      0.0308                 0.1833                 0.1572
 IR Inten    --      2.9438                 6.4121                 2.4060

                      7                      8                      9
                      A                      A                      A
 Frequencies --    332.5991               346.1130               439.0715
 Red. masses --      2.5152                 2.0931                 4.6745
 Frc consts  --      0.1639                 0.1477                 0.5309
 IR Inten    --      3.3443                 6.0267                 2.1093

                     10                     11                     12
                      A                      A                      A
 Frequencies --    464.1257               511.8241               588.7568
 Red. masses --      2.8981                 3.0864                 3.6930
 Frc consts  --      0.3678                 0.4764                 0.7542
 IR Inten    --      0.1645                 0.1980                 1.0480

                     13                     14                     15
                      A                      A                      A
 Frequencies --    663.5313               745.6916               854.0539
 Red. masses --      3.1206                 4.3111                 2.0115
 Frc consts  --      0.8095                 1.4124                 0.8645
 IR Inten    --     27.9904                14.1826                 5.3803

                     16                     17                     18
                      A                      A                      A
 Frequencies --    894.5712               963.5082               976.1520
 Red. masses --      2.3931                 1.5003                 2.0317
 Frc consts  --      1.1283                 0.8206                 1.1406
 IR Inten    --      5.9977                 0.6500                 7.7994

                     19                     20                     21
                      A                      A                      A
 Frequencies --   1022.6273              1029.4000              1046.0801
 Red. masses --      2.1699                 1.5162                 1.9225
 Frc consts  --      1.3370                 0.9466                 1.2395
 IR Inten    --     12.2611                 0.6255                 4.9854

                     22                     23                     24
                      A                      A                      A
 Frequencies --   1091.8555              1119.3750              1158.3219
 Red. masses --      2.3464                 3.1203                 4.9693
 Frc consts  --      1.6481                 2.3036                 3.9283
 IR Inten    --      2.6000                 1.9562                37.8580

                     25                     26                     27
                      A                      A                      A
 Frequencies --   1167.2816              1228.1149              1251.8521
 Red. masses --      3.0811                 1.1846                 1.3570
 Frc consts  --      2.4734                 1.0527                 1.2529
 IR Inten    --     16.4237                 6.0812                 7.3468

                     28                     29                     30
                      A                      A                      A
 Frequencies --   1279.0353              1316.7961              1367.1176
 Red. masses --      2.0031                 1.2731                 1.4474
 Frc consts  --      1.9307                 1.3006                 1.5939
 IR Inten    --     81.0766                18.9299                 1.0307

                     31                     32                     33
                      A                      A                      A
 Frequencies --   1392.1410              1405.1705              1421.1912
 Red. masses --      1.5454                 1.3609                 1.4146
 Frc consts  --      1.7646                 1.5832                 1.6834
 IR Inten    --     16.2853                 9.2503                19.8640

                     34                     35                     36
                      A                      A                      A
 Frequencies --   1436.8886              1457.8529              1478.8328
 Red. masses --      1.1980                 1.0944                 1.0598
 Frc consts  --      1.4573                 1.3705                 1.3655
 IR Inten    --      5.5437                 3.8326                 5.9880

                     37                     38                     39
                      A                      A                      A
 Frequencies --   1481.4702              1488.6374              1502.9867
 Red. masses --      1.0798                 1.0835                 1.0966
 Frc consts  --      1.3964                 1.4147                 1.4595
 IR Inten    --      3.7697                 9.8161                 2.3365

                     40                     41                     42
                      A                      A                      A
 Frequencies --   1699.8616              1765.2577              2926.7654
 Red. masses --      6.5561                10.4102                 1.0822
 Frc consts  --     11.1615                19.1129                 5.4616
 IR Inten    --     74.9212               241.0878                96.4638

                     43                     44                     45
                      A                      A                      A
 Frequencies --   2959.5053              2967.3135              3009.9005
 Red. masses --      1.0727                 1.0715                 1.0601
 Frc consts  --      5.5357                 5.5584                 5.6587
 IR Inten    --     27.3889                65.5846                15.7140

                     46                     47                     48
                      A                      A                      A
 Frequencies --   3026.4684              3045.1272              3069.5469
 Red. masses --      1.0433                 1.0981                 1.0980
 Frc consts  --      5.6304                 5.9994                 6.0953
 IR Inten    --     27.3855                24.1688                14.4928

                     49                     50                     51
                      A                      A                      A
 Frequencies --   3088.9892              3094.2788              3153.2628
 Red. masses --      1.0923                 1.0884                 1.0947
 Frc consts  --      6.1410                 6.1397                 6.4131
 IR Inten    --     38.0171                 9.7615                15.9831

 - Thermochemistry -
 -------------------
 Temperature   298.150 Kelvin.  Pressure   1.00000 Atm.
 Atom     1 has atomic number  6 and mass  12.00000

 Molecular mass:   126.06808 amu.
 Principal axes and moments of inertia in atomic units:
                           1         2         3
     Eigenvalues --   802.738591208.014841934.47898
           X            0.99993   0.00855  -0.00774
           Y           -0.00863   0.99991  -0.00977
           Z            0.00766   0.00984   0.99992
 This molecule is an asymmetric top.
 Rotational symmetry number  1.
 Warning -- assumption of classical behavior for rotation
           may cause significant error
 Rotational temperatures (Kelvin)      0.10790     0.07170     0.04477
 Rotational constants (GHZ):           2.24823     1.49397     0.93293
 Zero-point vibrational energy     417656.4 (Joules/Mol)
                                   99.82227 (Kcal/Mol)
 Warning -- explicit consideration of  12 degrees of freedom as
           vibrations may cause significant error
 Vibrational temperatures:    151.38   182.57   210.71   247.66   328.52
          (Kelvin)            458.05   478.54   497.98   631.73   667.77
                              736.40   847.09   954.67  1072.88  1228.79
                             1287.09  1386.27  1404.46  1471.33  1481.08
                             1505.07  1570.93  1610.53  1666.56  1679.46
                             1766.98  1801.13  1840.24  1894.57  1966.97
                             2002.98  2021.72  2044.77  2067.36  2097.52
                             2127.71  2131.50  2141.81  2162.46  2445.72
                             2539.81  4210.96  4258.06  4269.30  4330.57
                             4354.41  4381.25  4416.39  4444.36  4451.97
                             4536.84

 Zero-point correction=                           0.159077 (Hartree/Particle)
 Thermal correction to Energy=                    0.167872
 Thermal correction to Enthalpy=                  0.168816
 Thermal correction to Gibbs Free Energy=         0.125527
 Sum of electronic and zero-point Energies=           -423.052685
 Sum of electronic and thermal Energies=              -423.043890
 Sum of electronic and thermal Enthalpies=            -423.042946
 Sum of electronic and thermal Free Energies=         -423.086236

                     E (Thermal)             CV                S
                      KCal/Mol        Cal/Mol-Kelvin    Cal/Mol-Kelvin
 Total                  105.341             32.471             91.111
 Electronic               0.000              0.000              0.000
 Translational            0.889              2.981             40.409
 Rotational               0.889              2.981             29.019
 Vibrational            103.564             26.509             21.683
 Vibration     1          0.605              1.945              3.355
 Vibration     2          0.611              1.926              2.993
 Vibration     3          0.617              1.907              2.718
 Vibration     4          0.626              1.877              2.412
 Vibration     5          0.651              1.798              1.892
 Vibration     6          0.705              1.638              1.319
 Vibration     7          0.715              1.610              1.247
 Vibration     8          0.724              1.583              1.184
 Vibration     9          0.799              1.385              0.830
 Vibration    10          0.822              1.330              0.754
 Vibration    11          0.867              1.224              0.629
 Vibration    12          0.946              1.056              0.469

 Optimization completed.
    -- Stationary point found.
 Normal termination of Gaussian 09 at Mon Jan 27 22:50:00 2020.
