 Gaussian 09, Revision D.01,
 Gaussian 09:  ES64L-G09RevD.01 24-Apr-2013

 -----------------------------
 # b3lyp 6-31G(2df,p) opt Freq
 -----------------------------

 -----
 titel
 -----
 Symbolic Z-matrix:
 Charge =  0 Multiplicity = 1

 SCF Done:  E(RB3LYP) =  -423.126253487     A.U. after   14 cycles
 Optimization completed.
    -- Stationary point found.
 Normal termination of Gaussian 09 at Mon Jan 27 23:07:27 2020.

 ----------------------------------------------------------------------
 #N Geom=AllCheck Guess=TCheck SCRF=Check GenChk RB3LYP/6-31G(2df,p) Fr
 eq
 ----------------------------------------------------------------------

 Structure from the checkpoint file:  "/scratch/puck/g09_63306848-84ec-4cd3-af08-62a54598e547/Gau-18433.chk"
 -----
 titel
 -----
 Charge =  0 Multiplicity = 1

                         Standard orientation:
 ---------------------------------------------------------------------
 Center     Atomic      Atomic             Coordinates (Angstroms)
 Number     Number       Type             X           Y           Z
 ---------------------------------------------------------------------
      1          6           0        1.183862    1.916245   -0.104822
      2          6           0        0.795946    0.674670    0.682693
      3          6           0        1.675556   -0.577092    0.516609
      4          8           0        1.642764   -0.924431   -0.869097
      5          6           0        0.560681   -1.366329   -0.040641
      6          6           0       -0.403939   -0.192742    0.132930
      7          6           0       -1.694128   -0.365942    0.959524
      8          6           0       -2.398876    0.157428   -0.307522
      9          8           0       -1.140699    0.274903   -1.005586
     10          1           0        1.401228    1.652531   -1.141864
     11          1           0        0.367824    2.645131   -0.106253
     12          1           0        2.067827    2.395796    0.328941
     13          1           0        0.626741    0.905883    1.740522
     14          1           0        2.533138   -0.901327    1.094512
     15          1           0        0.354076   -2.431346   -0.018654
     16          1           0       -1.932081   -1.395394    1.236319
     17          1           0       -1.770914    0.269610    1.843598
     18          1           0       -3.075649   -0.547806   -0.803345
     19          1           0       -2.903323    1.125717   -0.208937
 ---------------------------------------------------------------------

 SCF Done:  E(RB3LYP) =  -423.126253487     A.U. after    1 cycles

 The electronic state is 1-A.
 Alpha  occ. eigenvalues --  -19.15192 -19.13351 -10.24253 -10.23647 -10.23349
 Alpha  occ. eigenvalues --  -10.23265 -10.19407 -10.19194 -10.16787  -1.08010
 Alpha  occ. eigenvalues --   -1.03824  -0.80576  -0.74487  -0.71057  -0.65810
 Alpha  occ. eigenvalues --   -0.62053  -0.58523  -0.53172  -0.51010  -0.49395
 Alpha  occ. eigenvalues --   -0.46738  -0.44929  -0.43796  -0.41711  -0.39353
 Alpha  occ. eigenvalues --   -0.38388  -0.36932  -0.36158  -0.34236  -0.31847
 Alpha  occ. eigenvalues --   -0.30270  -0.29545  -0.26494  -0.23554
 Alpha virt. eigenvalues --    0.06851   0.08993   0.09633   0.10509   0.11720
 Alpha virt. eigenvalues --    0.12871   0.14562   0.15106   0.16005   0.16689
 Alpha virt. eigenvalues --    0.17189   0.17731   0.18963   0.19974   0.20771

 Mulliken charges:
               1
     1  C   -0.397247
     2  C   -0.117739
     3  C    0.023065
     4  O   -0.240103
     5  C   -0.056285
     6  C    0.447781
     7  C   -0.366986
     8  C   -0.071247
     9  O   -0.306372
    10  H    0.144684
    11  H    0.116571
    12  H    0.108335
    13  H    0.071900
    14  H    0.103189
    15  H    0.100488
    16  H    0.113059
    17  H    0.114178
    18  H    0.106969
    19  H    0.105760
 Sum of Mulliken charges =   0.00000

 Dipole moment (field-independent basis, Debye):
    X=             -1.2389    Y=             -0.3689    Z=              2.9464  Tot=              3.2175
 Quadrupole moment (field-independent basis, Debye-Ang):
   XX=            -50.3887   YY=            -51.0604   ZZ=            -55.7725
   XY=              1.2995   XZ=              1.9355   YZ=             -0.4499

  Exact polarizability:  86.047   1.516  74.864   2.718   1.035  63.258
 Approx polarizability: 115.604   2.229 104.650   1.877   3.609 102.949

                      1                      2                      3
                      A                      A                      A
 Frequencies --     82.1250               112.7850               189.5816
 Red. masses --      2.2262                 3.5059                 1.0561
 Frc consts  --      0.0088                 0.0263                 0.0224
 IR Inten    --      0.7491                 1.0772                 0.0419

                      4                      5                      6
                      A                      A                      A
 Frequencies --    203.6713               249.6150               271.3967
 Red. masses --      3.6349                 3.7529                 2.7574
 Frc consts  --      0.0888                 0.1378                 0.1197
 IR Inten    --      2.9726                 1.3254                 1.4198

                      7                      8                      9
                      A                      A                      A
 Frequencies --    415.0719               470.8168               553.9793
 Red. masses --      3.8894                 3.4407                 3.8194
 Frc consts  --      0.3948                 0.4494                 0.6906
 IR Inten    --      0.0977                 1.4784                 6.0160

                     10                     11                     12
                      A                      A                      A
 Frequencies --    618.0501               745.1497               787.4482
 Red. masses --      4.5995                 2.9116                 1.2266
 Frc consts  --      1.0352                 0.9525                 0.4481
 IR Inten    --     11.6177                 0.1603                 0.0335

                     13                     14                     15
                      A                      A                      A
 Frequencies --    842.4050               856.6448               863.2141
 Red. masses --      3.2776                 1.7139                 3.0608
 Frc consts  --      1.3704                 0.7410                 1.3438
 IR Inten    --      4.9277                19.1057                19.0285

                     16                     17                     18
                      A                      A                      A
 Frequencies --    867.3018               893.6297               972.1098
 Red. masses --      3.2760                 2.1479                 2.6083
 Frc consts  --      1.4519                 1.0106                 1.4523
 IR Inten    --      5.4633                 2.4618                 4.5176

                     19                     20                     21
                      A                      A                      A
 Frequencies --    985.0140               995.1996              1023.0012
 Red. masses --      2.1845                 1.7733                 5.2741
 Frc consts  --      1.2488                 1.0348                 3.2520
 IR Inten    --     37.5625                15.5286                93.8328

                     22                     23                     24
                      A                      A                      A
 Frequencies --   1045.2417              1060.8306              1106.4395
 Red. masses --      1.4210                 1.6855                 2.3974
 Frc consts  --      0.9147                 1.1175                 1.7292
 IR Inten    --     11.4852                11.8164                 2.8393

                     25                     26                     27
                      A                      A                      A
 Frequencies --   1145.5189              1152.9332              1165.4482
 Red. masses --      2.7623                 1.7056                 1.6704
 Frc consts  --      2.1356                 1.3358                 1.3367
 IR Inten    --     35.5324                 5.4942                 3.2388

                     28                     29                     30
                      A                      A                      A
 Frequencies --   1176.8806              1217.5809              1232.7515
 Red. masses --      1.7127                 1.2898                 1.3842
 Frc consts  --      1.3976                 1.1266                 1.2394
 IR Inten    --      2.1059                 2.0369                 0.8603

                     31                     32                     33
                      A                      A                      A
 Frequencies --   1242.7886              1260.1056              1307.3263
 Red. masses --      1.5495                 1.5050                 2.5271
 Frc consts  --      1.4100                 1.4080                 2.5447
 IR Inten    --      2.5845                 4.3585                21.9270

                     34                     35                     36
                      A                      A                      A
 Frequencies --   1348.4682              1359.1535              1376.8874
 Red. masses --      1.4887                 1.6412                 2.9638
 Frc consts  --      1.5950                 1.7863                 3.3105
 IR Inten    --      4.3730                 2.0775                13.1218

                     37                     38                     39
                      A                      A                      A
 Frequencies --   1409.7745              1487.6704              1488.6666
 Red. masses --      1.3219                 1.0476                 1.1000
 Frc consts  --      1.5479                 1.3660                 1.4363
 IR Inten    --      2.6819                 3.1820                 4.6559

                     40                     41                     42
                      A                      A                      A
 Frequencies --   1500.3262              1532.5836              3023.3963
 Red. masses --      1.0500                 1.1098                 1.0552
 Frc consts  --      1.3925                 1.5358                 5.6829
 IR Inten    --      5.8180                 1.0293                87.8451

                     43                     44                     45
                      A                      A                      A
 Frequencies --   3039.2926              3047.1677              3064.2119
 Red. masses --      1.0433                 1.0778                 1.1106
 Frc consts  --      5.6778                 5.8963                 6.1439
 IR Inten    --     25.8034                23.3261                29.1151

                     46                     47                     48
                      A                      A                      A
 Frequencies --   3072.0232              3103.7693              3126.3560
 Red. masses --      1.0604                 1.1005                 1.1084
 Frc consts  --      5.8961                 6.2461                 6.3830
 IR Inten    --     27.5871                21.9290                19.7700

                     49                     50                     51
                      A                      A                      A
 Frequencies --   3135.6447              3168.9790              3191.0562
 Red. masses --      1.0998                 1.0895                 1.0988
 Frc consts  --      6.3712                 6.4461                 6.5923
 IR Inten    --     12.0695                18.0839                22.3788

 - Thermochemistry -
 -------------------
 Temperature   298.150 Kelvin.  Pressure   1.00000 Atm.
 Atom     1 has atomic number  6 and mass  12.00000

 Molecular mass:   126.06808 amu.
 Principal axes and moments of inertia in atomic units:
                           1         2         3
     Eigenvalues --   644.321801180.873101391.05444
           X            0.99915   0.04116   0.00036
           Y           -0.04114   0.99877  -0.02766
           Z           -0.00150   0.02762   0.99962
 This molecule is an asymmetric top.
 Rotational symmetry number  1.
 Warning -- assumption of classical behavior for rotation
           may cause significant error
 Rotational temperatures (Kelvin)      0.13443     0.07335     0.06226
 Rotational constants (GHZ):           2.80099     1.52831     1.29739
 Zero-point vibrational energy     416225.6 (Joules/Mol)
                                   99.48030 (Kcal/Mol)
 Warning -- explicit consideration of  10 degrees of freedom as
           vibrations may cause significant error
 Vibrational temperatures:    118.16   162.27   272.77   293.04   359.14
          (Kelvin)            390.48   597.20   677.40   797.05   889.24
                             1072.10  1132.96  1212.03  1232.52  1241.97
                             1247.85  1285.73  1398.65  1417.21  1431.87
                             1471.87  1503.87  1526.30  1591.92  1648.14
                             1658.81  1676.82  1693.27  1751.83  1773.65
                             1788.09  1813.01  1880.95  1940.14  1955.52
                             1981.03  2028.35  2140.42  2141.86  2158.63
                             2205.04  4349.99  4372.86  4384.19  4408.71
                             4419.95  4465.63  4498.12  4511.49  4559.45
                             4591.21

 Zero-point correction=                           0.158532 (Hartree/Particle)
 Thermal correction to Energy=                    0.166722
 Thermal correction to Enthalpy=                  0.167666
 Thermal correction to Gibbs Free Energy=         0.125600
 Sum of electronic and zero-point Energies=           -422.967722
 Sum of electronic and thermal Energies=              -422.959531
 Sum of electronic and thermal Enthalpies=            -422.958587
 Sum of electronic and thermal Free Energies=         -423.000654

                     E (Thermal)             CV                S
                      KCal/Mol        Cal/Mol-Kelvin    Cal/Mol-Kelvin
 Total                  104.620             31.108             88.537
 Electronic               0.000              0.000              0.000
 Translational            0.889              2.981             40.409
 Rotational               0.889              2.981             28.450
 Vibrational            102.842             25.146             19.678
 Vibration     1          0.600              1.961              3.839
 Vibration     2          0.607              1.939              3.220
 Vibration     3          0.633              1.854              2.232
 Vibration     4          0.639              1.835              2.100
 Vibration     5          0.662              1.763              1.733
 Vibration     6          0.675              1.726              1.587
 Vibration     7          0.778              1.438              0.909
 Vibration     8          0.828              1.315              0.735
 Vibration     9          0.909              1.131              0.536
 Vibration    10          0.978              0.994              0.420

 Normal termination of Gaussian 09 at Mon Jan 27 23:54:42 2020.
