 Gaussian 09, Revision D.01,
 Gaussian 09:  ES64L-G09RevD.01 24-Apr-2013

 -----------------------------
 # b3lyp 6-31G(2df,p) opt Freq
 -----------------------------

 -----
 titel
 -----
 Symbolic Z-matrix:
 Charge =  0 Multiplicity = 1

 SCF Done:  E(RB3LYP) =  -423.204498019     A.U. after   14 cycles
 Optimization completed.
    -- Stationary point found.
 Normal termination of Gaussian 09 at Tue Jan 28 12:40:37 2020.

 ----------------------------------------------------------------------
 #N Geom=AllCheck Guess=TCheck SCRF=Check GenChk RB3LYP/6-31G(2df,p) Fr
 eq
 ----------------------------------------------------------------------

 Structure from the checkpoint file:  "/scratch/puck/g09_f3e7aace-44ac-479a-ac4d-dfeefeadf093/Gau-106727.chk"
 -----
 titel
 -----
 Charge =  0 Multiplicity = 1

                         Standard orientation:
 ---------------------------------------------------------------------
 Center     Atomic      Atomic             Coordinates (Angstroms)
 Number     Number       Type             X           Y           Z
 ---------------------------------------------------------------------
      1          6           0       -0.119275    2.051521    0.896523
      2          8           0        0.084110    1.675476   -0.456216
      3          6           0        0.015282    0.291158   -0.713901
      4          6           0       -1.288045   -0.408982   -0.240668
      5          8           0       -2.387964    0.073082   -0.274955
      6          6           0       -0.905919   -1.778812    0.333019
      7          6           0        0.592449   -1.681425    0.446720
      8          6           0        1.101232   -0.568695   -0.093536
      9          6           0        2.538571   -0.167288   -0.176940
     10          1           0        0.569104    1.530893    1.577341
     11          1           0        0.076613    3.124567    0.950508
     12          1           0       -1.149409    1.861171    1.220271
     13          1           0        0.054115    0.219008   -1.811597
     14          1           0       -1.426838   -1.963643    1.280041
     15          1           0       -1.235585   -2.568282   -0.357261
     16          1           0        1.189229   -2.461415    0.908835
     17          1           0        3.184461   -0.874157    0.350834
     18          1           0        2.869449   -0.112960   -1.222042
     19          1           0        2.693926    0.831500    0.245131
 ---------------------------------------------------------------------

 SCF Done:  E(RB3LYP) =  -423.204498019     A.U. after    1 cycles

 The electronic state is 1-A.
 Alpha  occ. eigenvalues --  -19.14598 -19.13787 -10.27077 -10.23974 -10.22212
 Alpha  occ. eigenvalues --  -10.19825 -10.19721 -10.19287 -10.18873  -1.05283
 Alpha  occ. eigenvalues --   -1.03017  -0.84955  -0.75209  -0.72632  -0.66462
 Alpha  occ. eigenvalues --   -0.65462  -0.54483  -0.54082  -0.49634  -0.47747
 Alpha  occ. eigenvalues --   -0.45411  -0.44900  -0.44270  -0.42271  -0.41254
 Alpha  occ. eigenvalues --   -0.40734  -0.38978  -0.37760  -0.36852  -0.35937
 Alpha  occ. eigenvalues --   -0.31937  -0.27742  -0.25425  -0.23171
 Alpha virt. eigenvalues --   -0.02626   0.00869   0.09441   0.11220   0.12196
 Alpha virt. eigenvalues --    0.13263   0.14547   0.14945   0.16175   0.16520
 Alpha virt. eigenvalues --    0.17732   0.17911   0.18892   0.20052   0.22382

 Mulliken charges:
               1
     1  C   -0.253544
     2  O   -0.235123
     3  C   -0.067119
     4  C    0.365654
     5  O   -0.300329
     6  C   -0.370514
     7  C   -0.176955
     8  C    0.283396
     9  C   -0.490628
    10  H    0.106552
    11  H    0.130042
    12  H    0.131250
    13  H    0.112620
    14  H    0.134732
    15  H    0.137081
    16  H    0.097846
    17  H    0.123268
    18  H    0.131607
    19  H    0.140162
 Sum of Mulliken charges =   0.00000

 Dipole moment (field-independent basis, Debye):
    X=              2.3628    Y=             -1.6703    Z=              0.9361  Tot=              3.0412
 Quadrupole moment (field-independent basis, Debye-Ang):
   XX=            -58.7601   YY=            -51.0358   ZZ=            -51.3460
   XY=              1.4181   XZ=             -1.0181   YZ=              2.3859

  Exact polarizability:  85.223   3.867  85.789  -1.986  -4.938  61.614
 Approx polarizability: 120.842   5.805 126.666  -4.400 -13.318  97.482

                      1                      2                      3
                      A                      A                      A
 Frequencies --     58.5016               110.1512               154.6251
 Red. masses --      3.9957                 1.8963                 1.0891
 Frc consts  --      0.0081                 0.0136                 0.0153
 IR Inten    --      2.1410                 2.2580                 1.0918

                      4                      5                      6
                      A                      A                      A
 Frequencies --    167.5760               198.9974               240.8962
 Red. masses --      1.4643                 3.1067                 2.2106
 Frc consts  --      0.0242                 0.0725                 0.0756
 IR Inten    --      0.3493                 2.5950                 5.1705

                      7                      8                      9
                      A                      A                      A
 Frequencies --    256.8006               309.3638               396.0793
 Red. masses --      2.6795                 4.3144                 3.2114
 Frc consts  --      0.1041                 0.2433                 0.2968
 IR Inten    --      3.5906                 3.0907                 0.8962

                     10                     11                     12
                      A                      A                      A
 Frequencies --    465.5749               527.0883               561.2049
 Red. masses --      2.8689                 4.5009                 3.6838
 Frc consts  --      0.3664                 0.7367                 0.6836
 IR Inten    --      2.1161                 6.0549                 3.4277

                     13                     14                     15
                      A                      A                      A
 Frequencies --    650.3905               680.7177               790.6305
 Red. masses --      4.2898                 6.1761                 2.1143
 Frc consts  --      1.0692                 1.6862                 0.7787
 IR Inten    --      8.0362                 2.0756                 2.1998

                     16                     17                     18
                      A                      A                      A
 Frequencies --    816.5156               889.5306               960.1486
 Red. masses --      1.4045                 3.0720                 3.1492
 Frc consts  --      0.5517                 1.4322                 1.7105
 IR Inten    --      9.6129                 6.7566                32.9379

                     19                     20                     21
                      A                      A                      A
 Frequencies --    971.8716               985.5247              1032.5652
 Red. masses --      1.8276                 2.6259                 1.6105
 Frc consts  --      1.0171                 1.5027                 1.0117
 IR Inten    --      8.4099                 3.4354                 1.4982

                     22                     23                     24
                      A                      A                      A
 Frequencies --   1063.3643              1082.3190              1145.7800
 Red. masses --      1.7452                 2.4624                 1.3465
 Frc consts  --      1.1627                 1.6995                 1.0415
 IR Inten    --     27.0469                54.5730                 8.8145

                     25                     26                     27
                      A                      A                      A
 Frequencies --   1171.7134              1186.1324              1200.0534
 Red. masses --      2.3705                 1.6311                 1.7453
 Frc consts  --      1.9175                 1.3521                 1.4809
 IR Inten    --     51.9753                27.8248                 2.2736

                     28                     29                     30
                      A                      A                      A
 Frequencies --   1227.1792              1256.0076              1287.0826
 Red. masses --      1.6558                 2.0876                 1.7042
 Frc consts  --      1.4692                 1.9403                 1.6633
 IR Inten    --     26.1972                 6.4348                13.4471

                     31                     32                     33
                      A                      A                      A
 Frequencies --   1338.8902              1357.0983              1413.9774
 Red. masses --      2.0393                 1.3702                 1.2843
 Frc consts  --      2.1538                 1.4868                 1.5128
 IR Inten    --      2.9236                 6.4116                 1.9366

                     34                     35                     36
                      A                      A                      A
 Frequencies --   1451.0984              1474.2343              1475.2833
 Red. masses --      1.0901                 1.0461                 1.1282
 Frc consts  --      1.3524                 1.3395                 1.4468
 IR Inten    --      5.1069                 6.0345                 1.5877

                     37                     38                     39
                      A                      A                      A
 Frequencies --   1486.7758              1489.5936              1514.5577
 Red. masses --      1.0612                 1.0628                 1.0482
 Frc consts  --      1.3822                 1.3894                 1.4166
 IR Inten    --      7.5062                 4.7885                 5.0332

                     40                     41                     42
                      A                      A                      A
 Frequencies --   1713.6953              1855.5933              2995.2226
 Red. masses --      7.1331                12.7830                 1.0730
 Frc consts  --     12.3422                25.9328                 5.6714
 IR Inten    --      2.9085               179.4090                40.0778

                     43                     44                     45
                      A                      A                      A
 Frequencies --   3000.8273              3016.3391              3024.4395
 Red. masses --      1.0462                 1.0654                 1.0392
 Frc consts  --      5.5507                 5.7109                 5.6006
 IR Inten    --     15.2170                17.9597                22.7297

                     46                     47                     48
                      A                      A                      A
 Frequencies --   3057.3873              3066.4614              3077.6191
 Red. masses --      1.0944                 1.0976                 1.0950
 Frc consts  --      6.0275                 6.0807                 6.1107
 IR Inten    --     10.7903                35.9120                13.7223

                     49                     50                     51
                      A                      A                      A
 Frequencies --   3115.1968              3123.6307              3180.5386
 Red. masses --      1.1015                 1.0999                 1.0932
 Frc consts  --      6.2978                 6.3232                 6.5153
 IR Inten    --     18.1153                22.9394                14.9296

 - Thermochemistry -
 -------------------
 Temperature   298.150 Kelvin.  Pressure   1.00000 Atm.
 Atom     1 has atomic number  6 and mass  12.00000

 Molecular mass:   126.06808 amu.
 Principal axes and moments of inertia in atomic units:
                           1         2         3
     Eigenvalues --   878.767481025.320581635.84830
           X            0.99952   0.02876  -0.01109
           Y           -0.02853   0.99939   0.01993
           Z            0.01165  -0.01960   0.99974
 This molecule is an asymmetric top.
 Rotational symmetry number  1.
 Warning -- assumption of classical behavior for rotation
           may cause significant error
 Rotational temperatures (Kelvin)      0.09856     0.08447     0.05295
 Rotational constants (GHZ):           2.05372     1.76017     1.10324
 Zero-point vibrational energy     413147.4 (Joules/Mol)
                                   98.74459 (Kcal/Mol)
 Warning -- explicit consideration of  12 degrees of freedom as
           vibrations may cause significant error
 Vibrational temperatures:     84.17   158.48   222.47   241.10   286.31
          (Kelvin)            346.60   369.48   445.10   569.87   669.86
                              758.36   807.45   935.77   979.40  1137.54
                             1174.78  1279.83  1381.44  1398.30  1417.95
                             1485.63  1529.94  1557.21  1648.52  1685.83
                             1706.58  1726.61  1765.64  1807.11  1851.82
                             1926.36  1952.56  2034.40  2087.80  2121.09
                             2122.60  2139.14  2143.19  2179.11  2465.62
                             2669.78  4309.45  4317.52  4339.83  4351.49
                             4398.89  4411.95  4428.00  4482.07  4494.20
                             4576.08

 Zero-point correction=                           0.157360 (Hartree/Particle)
 Thermal correction to Energy=                    0.166724
 Thermal correction to Enthalpy=                  0.167668
 Thermal correction to Gibbs Free Energy=         0.122965
 Sum of electronic and zero-point Energies=           -423.047138
 Sum of electronic and thermal Energies=              -423.037774
 Sum of electronic and thermal Enthalpies=            -423.036830
 Sum of electronic and thermal Free Energies=         -423.081533

                     E (Thermal)             CV                S
                      KCal/Mol        Cal/Mol-Kelvin    Cal/Mol-Kelvin
 Total                  104.621             33.858             94.086
 Electronic               0.000              0.000              0.000
 Translational            0.889              2.981             40.409
 Rotational               0.889              2.981             28.779
 Vibrational            102.843             27.896             24.898
 Vibration     1          0.596              1.974              4.507
 Vibration     2          0.606              1.941              3.266
 Vibration     3          0.620              1.898              2.615
 Vibration     4          0.624              1.882              2.463
 Vibration     5          0.637              1.841              2.142
 Vibration     6          0.658              1.778              1.796
 Vibration     7          0.666              1.751              1.683
 Vibration     8          0.699              1.656              1.366
 Vibration     9          0.763              1.479              0.977
 Vibration    10          0.823              1.326              0.750
 Vibration    11          0.882              1.190              0.594
 Vibration    12          0.917              1.115              0.521

 Normal termination of Gaussian 09 at Tue Jan 28 13:22:53 2020.
