 Gaussian 09, Revision D.01,
 Gaussian 09:  ES64L-G09RevD.01 24-Apr-2013

 -----------------------------
 # b3lyp 6-31G(2df,p) opt Freq
 -----------------------------

 -----
 titel
 -----
 Symbolic Z-matrix:
 Charge =  0 Multiplicity = 1

 SCF Done:  E(RB3LYP) =  -423.159905213     A.U. after   14 cycles
 Optimization completed.
    -- Stationary point found.
 Normal termination of Gaussian 09 at Mon Jan 27 14:07:28 2020.

 ----------------------------------------------------------------------
 #N Geom=AllCheck Guess=TCheck SCRF=Check GenChk RB3LYP/6-31G(2df,p) Fr
 eq
 ----------------------------------------------------------------------

 Structure from the checkpoint file:  "/scratch/puck/g09_165ab9f8-7365-4fed-8a7e-e75e4ef69fcc/Gau-4428.chk"
 -----
 titel
 -----
 Charge =  0 Multiplicity = 1

                         Standard orientation:
 ---------------------------------------------------------------------
 Center     Atomic      Atomic             Coordinates (Angstroms)
 Number     Number       Type             X           Y           Z
 ---------------------------------------------------------------------
      1          6           0        4.093327   -0.000008   -0.193131
      2          6           0        2.654165   -0.000110    0.018133
      3          6           0        1.463038   -0.000020    0.179157
      4          6           0        0.025277   -0.000015    0.420706
      5          8           0       -0.535206   -1.170549   -0.135252
      6          6           0       -1.933891   -1.241165    0.118213
      7          6           0       -2.640650    0.000012   -0.430473
      8          6           0       -1.933872    1.241184    0.118204
      9          8           0       -0.535180    1.170549   -0.135216
     10          1           0        4.635459   -0.067838    0.756236
     11          1           0        4.399695   -0.848331   -0.814559
     12          1           0        4.416418    0.916842   -0.697816
     13          1           0       -0.179334   -0.000033    1.511429
     14          1           0       -2.285668   -2.159681   -0.357813
     15          1           0       -2.112566   -1.328943    1.203997
     16          1           0       -2.578420    0.000002   -1.523472
     17          1           0       -3.698654    0.000027   -0.145233
     18          1           0       -2.285619    2.159693   -0.357859
     19          1           0       -2.112582    1.328994    1.203979
 ---------------------------------------------------------------------

 SCF Done:  E(RB3LYP) =  -423.159905213     A.U. after    1 cycles

 The electronic state is 1-A.
 Alpha  occ. eigenvalues --  -19.14293 -19.14293 -10.29372 -10.23226 -10.23226
 Alpha  occ. eigenvalues --  -10.20409 -10.18628 -10.17972 -10.16639  -1.07315
 Alpha  occ. eigenvalues --   -1.00358  -0.80197  -0.77249  -0.71765  -0.67625
 Alpha  occ. eigenvalues --   -0.66105  -0.58424  -0.53216  -0.49678  -0.48212
 Alpha  occ. eigenvalues --   -0.46645  -0.45105  -0.43924  -0.42665  -0.42639
 Alpha  occ. eigenvalues --   -0.41751  -0.39358  -0.35768  -0.33449  -0.31789
 Alpha  occ. eigenvalues --   -0.27093  -0.26307  -0.25577  -0.25414
 Alpha virt. eigenvalues --    0.04414   0.04833   0.09690   0.11161   0.11923
 Alpha virt. eigenvalues --    0.14006   0.14025   0.15431   0.15522   0.17682
 Alpha virt. eigenvalues --    0.18115   0.18401   0.19293   0.19584   0.21762

 Mulliken charges:
               1
     1  C   -0.505689
     2  C    0.221702
     3  C   -0.037502
     4  C    0.014227
     5  O   -0.247022
     6  C   -0.071914
     7  C   -0.206310
     8  C   -0.071915
     9  O   -0.247029
    10  H    0.150173
    11  H    0.154289
    12  H    0.154220
    13  H    0.073276
    14  H    0.113145
    15  H    0.088672
    16  H    0.117971
    17  H    0.097889
    18  H    0.113145
    19  H    0.088673
 Sum of Mulliken charges =   0.00000

 Dipole moment (field-independent basis, Debye):
    X=             -0.7730    Y=              0.0009    Z=              0.7771  Tot=              1.0961
 Quadrupole moment (field-independent basis, Debye-Ang):
   XX=            -38.2041   YY=            -55.0451   ZZ=            -52.7710
   XY=              0.0040   XZ=             -0.9084   YZ=              0.0005

  Exact polarizability: 118.597  -0.001  65.645  -2.968  -0.004  61.011
 Approx polarizability: 153.431  -0.003  93.435  -8.075  -0.005  92.462

                      1                      2                      3
                      A                      A                      A
 Frequencies --     20.5460                82.3100                88.2137
 Red. masses --      1.0294                 3.5981                 3.9612
 Frc consts  --      0.0003                 0.0144                 0.0182
 IR Inten    --      0.0218                 4.8043                 3.9123

                      4                      5                      6
                      A                      A                      A
 Frequencies --    205.5468               259.2177               305.7875
 Red. masses --      3.3549                 2.8028                 3.8138
 Frc consts  --      0.0835                 0.1110                 0.2101
 IR Inten    --      0.4593                 1.2253                 1.2749

                      7                      8                      9
                      A                      A                      A
 Frequencies --    328.3858               368.2091               424.9014
 Red. masses --      2.4827                 2.9723                 4.3616
 Frc consts  --      0.1577                 0.2374                 0.4639
 IR Inten    --      0.5297                 1.8412                 2.5804

                     10                     11                     12
                      A                      A                      A
 Frequencies --    455.9610               536.3542               538.4155
 Red. masses --      5.6893                 6.9818                 2.3175
 Frc consts  --      0.6969                 1.1834                 0.3958
 IR Inten    --      4.6226                 0.0848                 0.1707

                     13                     14                     15
                      A                      A                      A
 Frequencies --    641.6206               840.9026               868.7593
 Red. masses --      3.6163                 3.1530                 3.0916
 Frc consts  --      0.8772                 1.3136                 1.3748
 IR Inten    --      4.2750                 0.4536                 9.0447

                     16                     17                     18
                      A                      A                      A
 Frequencies --    899.0446               942.9126               959.0735
 Red. masses --      1.4201                 2.6604                 3.6447
 Frc consts  --      0.6763                 1.3936                 1.9752
 IR Inten    --      3.6780                19.7136                15.9704

                     19                     20                     21
                      A                      A                      A
 Frequencies --    991.8577              1012.4674              1052.7675
 Red. masses --      3.3235                 3.4384                 1.4215
 Frc consts  --      1.9264                 2.0767                 0.9282
 IR Inten    --     48.1105               119.0615                 0.2702

                     22                     23                     24
                      A                      A                      A
 Frequencies --   1054.7326              1066.8038              1131.0643
 Red. masses --      1.4083                 3.6996                 4.1389
 Frc consts  --      0.9230                 2.4807                 3.1197
 IR Inten    --      0.8076                 3.5251               154.3956

                     25                     26                     27
                      A                      A                      A
 Frequencies --   1171.3547              1195.2142              1237.7827
 Red. masses --      2.7600                 2.3521                 1.2882
 Frc consts  --      2.2312                 1.9797                 1.1629
 IR Inten    --     99.4830                58.0318                 4.1071

                     28                     29                     30
                      A                      A                      A
 Frequencies --   1260.2149              1303.9063              1368.0840
 Red. masses --      1.2595                 1.1293                 1.1780
 Frc consts  --      1.1786                 1.1312                 1.2990
 IR Inten    --     26.1375                30.5142                 0.1666

                     31                     32                     33
                      A                      A                      A
 Frequencies --   1370.1837              1405.6165              1408.9963
 Red. masses --      1.3952                 1.2245                 1.4185
 Frc consts  --      1.5433                 1.4254                 1.6592
 IR Inten    --      0.0467                 8.0258               127.4444

                     34                     35                     36
                      A                      A                      A
 Frequencies --   1414.4655              1421.0459              1468.2337
 Red. masses --      1.2556                 1.5795                 1.0995
 Frc consts  --      1.4801                 1.8792                 1.3965
 IR Inten    --      9.2077                58.3577                 4.4028

                     37                     38                     39
                      A                      A                      A
 Frequencies --   1476.1737              1476.9150              1494.2473
 Red. masses --      1.0394                 1.0395                 1.0916
 Frc consts  --      1.3345                 1.3359                 1.4361
 IR Inten    --      5.8865                 5.8124                 1.9972

                     40                     41                     42
                      A                      A                      A
 Frequencies --   1504.2718              2389.8529              2883.0430
 Red. masses --      1.1038                11.9074                 1.0785
 Frc consts  --      1.4716                40.0691                 5.2818
 IR Inten    --      6.3355                48.4493                50.6170

                     43                     44                     45
                      A                      A                      A
 Frequencies --   2956.5452              2963.8729              3030.6040
 Red. masses --      1.0709                 1.0712                 1.0347
 Frc consts  --      5.5155                 5.5441                 5.5991
 IR Inten    --     19.7497                97.6232                26.7359

                     46                     47                     48
                      A                      A                      A
 Frequencies --   3043.6559              3091.3463              3092.9465
 Red. masses --      1.0596                 1.0980                 1.1003
 Frc consts  --      5.7832                 6.1824                 6.2018
 IR Inten    --     20.7394                28.4346                 8.8280

                     49                     50                     51
                      A                      A                      A
 Frequencies --   3094.3374              3096.0371              3101.2504
 Red. masses --      1.1002                 1.0913                 1.0988
 Frc consts  --      6.2064                 6.1632                 6.2264
 IR Inten    --      7.2935                42.3742                29.5997

 - Thermochemistry -
 -------------------
 Temperature   298.150 Kelvin.  Pressure   1.00000 Atm.
 Atom     1 has atomic number  6 and mass  12.00000

 Molecular mass:   126.06808 amu.
 Principal axes and moments of inertia in atomic units:
                           1         2         3
     Eigenvalues --   396.428552179.812452464.33505
           X            0.99999   0.00000  -0.00416
           Y            0.00000   1.00000   0.00000
           Z            0.00416   0.00000   0.99999
 This molecule is an asymmetric top.
 Rotational symmetry number  1.
 Rotational temperatures (Kelvin)      0.21849     0.03973     0.03515
 Rotational constants (GHZ):           4.55250     0.82793     0.73234
 Zero-point vibrational energy     417473.1 (Joules/Mol)
                                   99.77847 (Kcal/Mol)
 Warning -- explicit consideration of  12 degrees of freedom as
           vibrations may cause significant error
 Vibrational temperatures:     29.56   118.43   126.92   295.74   372.96
          (Kelvin)            439.96   472.47   529.77   611.34   656.03
                              771.69   774.66   923.15  1209.87  1249.95
                             1293.52  1356.64  1379.89  1427.06  1456.71
                             1514.70  1517.52  1534.89  1627.35  1685.32
                             1719.64  1780.89  1813.17  1876.03  1968.37
                             1971.39  2022.37  2027.23  2035.10  2044.57
                             2112.46  2123.88  2124.95  2149.89  2164.31
                             3438.46  4148.05  4253.80  4264.35  4360.36
                             4379.14  4447.75  4450.05  4452.06  4454.50
                             4462.00

 Zero-point correction=                           0.159007 (Hartree/Particle)
 Thermal correction to Energy=                    0.168110
 Thermal correction to Enthalpy=                  0.169054
 Thermal correction to Gibbs Free Energy=         0.123509
 Sum of electronic and zero-point Energies=           -423.000898
 Sum of electronic and thermal Energies=              -422.991795
 Sum of electronic and thermal Enthalpies=            -422.990851
 Sum of electronic and thermal Free Energies=         -423.036396

                     E (Thermal)             CV                S
                      KCal/Mol        Cal/Mol-Kelvin    Cal/Mol-Kelvin
 Total                  105.491             32.735             95.858
 Electronic               0.000              0.000              0.000
 Translational            0.889              2.981             40.409
 Rotational               0.889              2.981             29.145
 Vibrational            103.713             26.774             26.305
 Vibration     1          0.593              1.986              6.581
 Vibration     2          0.600              1.961              3.835
 Vibration     3          0.601              1.957              3.699
 Vibration     4          0.640              1.832              2.083
 Vibration     5          0.668              1.747              1.667
 Vibration     6          0.696              1.663              1.385
 Vibration     7          0.712              1.619              1.268
 Vibration     8          0.741              1.538              1.087
 Vibration     9          0.787              1.416              0.875
 Vibration    10          0.814              1.348              0.778
 Vibration    11          0.891              1.170              0.573
 Vibration    12          0.893              1.165              0.569

 Optimization completed on the basis of negligible forces.
    -- Stationary point found.
 Normal termination of Gaussian 09 at Mon Jan 27 15:39:11 2020.
