 Gaussian 09, Revision D.01,
 Gaussian 09:  ES64L-G09RevD.01 24-Apr-2013

 -----------------------------
 # b3lyp 6-31G(2df,p) opt Freq
 -----------------------------

 -----
 titel
 -----
 Symbolic Z-matrix:
 Charge =  0 Multiplicity = 1

 SCF Done:  E(RB3LYP) =  -423.200322231     A.U. after   14 cycles
 Optimization completed.
    -- Stationary point found.
 Normal termination of Gaussian 09 at Tue Jan 28 09:16:01 2020.

 ----------------------------------------------------------------------
 #N Geom=AllCheck Guess=TCheck SCRF=Check GenChk RB3LYP/6-31G(2df,p) Fr
 eq
 ----------------------------------------------------------------------

 Structure from the checkpoint file:  "/scratch/puck/g09_26e8485e-4322-486a-8ad9-c3c5660d254d/Gau-82394.chk"
 -----
 titel
 -----
 Charge =  0 Multiplicity = 1

                         Standard orientation:
 ---------------------------------------------------------------------
 Center     Atomic      Atomic             Coordinates (Angstroms)
 Number     Number       Type             X           Y           Z
 ---------------------------------------------------------------------
      1          6           0        2.761297   -0.648259    0.038575
      2          6           0        1.399225   -0.942658   -0.606073
      3          6           0        0.276768   -0.210969    0.075028
      4          6           0       -0.459352   -0.702303    1.340747
      5          6           0       -1.231376   -0.358252    0.118286
      6          6           0       -2.213731   -1.165295   -0.658909
      7          8           0       -1.401054    1.099172    0.101005
      8          6           0       -0.029359    1.260125   -0.040566
      9          8           0        0.562758    2.271002   -0.245755
     10          1           0        2.974255    0.424126    0.010284
     11          1           0        2.777936   -0.967780    1.085487
     12          1           0        3.563798   -1.171350   -0.489558
     13          1           0        1.425893   -0.657893   -1.664772
     14          1           0        1.194224   -2.019955   -0.578951
     15          1           0       -0.313475   -1.761585    1.536958
     16          1           0       -0.532624   -0.074613    2.223305
     17          1           0       -1.915276   -2.217434   -0.667285
     18          1           0       -3.209813   -1.099331   -0.208697
     19          1           0       -2.279379   -0.809906   -1.691296
 ---------------------------------------------------------------------

 SCF Done:  E(RB3LYP) =  -423.200322231     A.U. after    1 cycles

 The electronic state is 1-A.
 Alpha  occ. eigenvalues --  -19.17123 -19.13246 -10.30485 -10.26550 -10.21686
 Alpha  occ. eigenvalues --  -10.21286 -10.20285 -10.20206 -10.18093  -1.10355
 Alpha  occ. eigenvalues --   -1.03161  -0.86637  -0.77710  -0.74876  -0.66680
 Alpha  occ. eigenvalues --   -0.62616  -0.59229  -0.52712  -0.50058  -0.48819
 Alpha  occ. eigenvalues --   -0.46351  -0.45068  -0.42843  -0.42339  -0.42017
 Alpha  occ. eigenvalues --   -0.40466  -0.39407  -0.38258  -0.36318  -0.35441
 Alpha  occ. eigenvalues --   -0.33807  -0.29665  -0.27097  -0.26413
 Alpha virt. eigenvalues --    0.00777   0.07668   0.09077   0.09726   0.11653
 Alpha virt. eigenvalues --    0.12879   0.13802   0.14657   0.15205   0.16079
 Alpha virt. eigenvalues --    0.17142   0.17389   0.18288   0.20001   0.21064

 Mulliken charges:
               1
     1  C   -0.377022
     2  C   -0.299106
     3  C    0.064497
     4  C   -0.371430
     5  C    0.399628
     6  C   -0.488273
     7  O   -0.303585
     8  C    0.440770
     9  O   -0.336936
    10  H    0.147225
    11  H    0.118674
    12  H    0.114434
    13  H    0.115304
    14  H    0.101140
    15  H    0.125158
    16  H    0.132799
    17  H    0.132142
    18  H    0.143624
    19  H    0.140957
 Sum of Mulliken charges =   0.00000

 Dipole moment (field-independent basis, Debye):
    X=             -0.3440    Y=             -4.3120    Z=              0.2264  Tot=              4.3316
 Quadrupole moment (field-independent basis, Debye-Ang):
   XX=            -52.6731   YY=            -59.4272   ZZ=            -51.0853
   XY=              0.6623   XZ=              0.4103   YZ=              0.8690

  Exact polarizability:  84.793   5.000  77.079  -0.620  -2.462  66.112
 Approx polarizability: 116.645  10.293 118.886  -3.510  -7.463  99.331

                      1                      2                      3
                      A                      A                      A
 Frequencies --     61.5304               119.1878               145.8839
 Red. masses --      2.5354                 3.0250                 4.6837
 Frc consts  --      0.0057                 0.0253                 0.0587
 IR Inten    --      0.8418                 0.4596                 0.5408

                      4                      5                      6
                      A                      A                      A
 Frequencies --    195.3727               206.1356               247.4827
 Red. masses --      1.1062                 1.4084                 2.4956
 Frc consts  --      0.0249                 0.0353                 0.0901
 IR Inten    --      0.5698                 0.6845                 0.3034

                      7                      8                      9
                      A                      A                      A
 Frequencies --    282.2729               349.8257               410.6679
 Red. masses --      1.7564                 2.4937                 3.9098
 Frc consts  --      0.0825                 0.1798                 0.3885
 IR Inten    --      0.9268                 0.7722                 2.4694

                     10                     11                     12
                      A                      A                      A
 Frequencies --    481.9439               523.0411               624.8067
 Red. masses --      3.0061                 3.2389                 4.2961
 Frc consts  --      0.4114                 0.5221                 0.9881
 IR Inten    --      2.2078                 1.6554                 4.7153

                     13                     14                     15
                      A                      A                      A
 Frequencies --    689.0222               720.9720               781.8451
 Red. masses --      5.9506                 4.1900                 1.2861
 Frc consts  --      1.6645                 1.2832                 0.4632
 IR Inten    --      2.2237                 1.6250                 6.2385

                     16                     17                     18
                      A                      A                      A
 Frequencies --    804.9047               831.8961               902.7474
 Red. masses --      4.1395                 5.0290                 2.7518
 Frc consts  --      1.5801                 2.0505                 1.3213
 IR Inten    --     17.0166                21.4397                34.4835

                     19                     20                     21
                      A                      A                      A
 Frequencies --    945.5243               981.2603               987.9345
 Red. masses --      1.4053                 1.7924                 2.2296
 Frc consts  --      0.7402                 1.0168                 1.2821
 IR Inten    --     11.9126                 3.1441                 6.4166

                     22                     23                     24
                      A                      A                      A
 Frequencies --   1005.6928              1029.1740              1085.6474
 Red. masses --      1.5606                 2.1494                 1.5605
 Frc consts  --      0.9300                 1.3413                 1.0836
 IR Inten    --     25.6718                32.4568                 5.5901

                     25                     26                     27
                      A                      A                      A
 Frequencies --   1104.5531              1127.5237              1177.5502
 Red. masses --      1.8337                 2.1680                 2.2687
 Frc consts  --      1.3181                 1.6239                 1.8535
 IR Inten    --      1.2759                49.4998                 2.9288

                     28                     29                     30
                      A                      A                      A
 Frequencies --   1214.1195              1301.1836              1335.3895
 Red. masses --      3.1781                 1.3517                 1.7979
 Frc consts  --      2.7602                 1.3483                 1.8890
 IR Inten    --     54.7027                 0.8086                 2.9683

                     31                     32                     33
                      A                      A                      A
 Frequencies --   1366.6567              1403.0207              1411.5368
 Red. masses --      1.8784                 1.4748                 1.2491
 Frc consts  --      2.0671                 1.7105                 1.4664
 IR Inten    --      4.2202                 8.7273                 2.3829

                     34                     35                     36
                      A                      A                      A
 Frequencies --   1433.9946              1473.8982              1481.9925
 Red. masses --      1.5373                 1.0499                 1.0801
 Frc consts  --      1.8625                 1.3438                 1.3977
 IR Inten    --      7.0457                 2.6916                 2.6050

                     37                     38                     39
                      A                      A                      A
 Frequencies --   1492.7161              1497.5509              1507.6480
 Red. masses --      1.1293                 1.0416                 1.1702
 Frc consts  --      1.4825                 1.3763                 1.5672
 IR Inten    --      4.6019                 7.6838                 3.6477

                     40                     41                     42
                      A                      A                      A
 Frequencies --   1514.4298              1930.2581              3025.4006
 Red. masses --      1.6632                12.8723                 1.0593
 Frc consts  --      2.2474                28.2577                 5.7125
 IR Inten    --     15.0330               421.3605                20.2721

                     43                     44                     45
                      A                      A                      A
 Frequencies --   3039.8298              3040.2400              3060.2088
 Red. masses --      1.0353                 1.0351                 1.1021
 Frc consts  --      5.6365                 5.6369                 6.0811
 IR Inten    --     26.8691                16.8554                11.4894

                     46                     47                     48
                      A                      A                      A
 Frequencies --   3106.7911              3110.5866              3115.9246
 Red. masses --      1.1006                 1.1018                 1.0557
 Frc consts  --      6.2589                 6.2814                 6.0390
 IR Inten    --     10.3738                31.7603                 5.9532

                     49                     50                     51
                      A                      A                      A
 Frequencies --   3121.1274              3121.7315              3207.7306
 Red. masses --      1.1024                 1.1000                 1.1175
 Frc consts  --      6.3270                 6.3162                 6.7747
 IR Inten    --      8.6583                25.8906                 4.4434

 - Thermochemistry -
 -------------------
 Temperature   298.150 Kelvin.  Pressure   1.00000 Atm.
 Atom     1 has atomic number  6 and mass  12.00000

 Molecular mass:   126.06808 amu.
 Principal axes and moments of inertia in atomic units:
                           1         2         3
     Eigenvalues --   803.177941186.870181648.41864
           X            0.99991   0.00853   0.00995
           Y           -0.00869   0.99984   0.01567
           Z           -0.00982  -0.01575   0.99983
 This molecule is an asymmetric top.
 Rotational symmetry number  1.
 Warning -- assumption of classical behavior for rotation
           may cause significant error
 Rotational temperatures (Kelvin)      0.10784     0.07298     0.05254
 Rotational constants (GHZ):           2.24700     1.52059     1.09483
 Zero-point vibrational energy     413539.3 (Joules/Mol)
                                   98.83825 (Kcal/Mol)
 Warning -- explicit consideration of  11 degrees of freedom as
           vibrations may cause significant error
 Vibrational temperatures:     88.53   171.48   209.89   281.10   296.58
          (Kelvin)            356.07   406.13   503.32   590.86   693.41
                              752.54   898.96   991.35  1037.32  1124.90
                             1158.08  1196.91  1298.85  1360.40  1411.81
                             1421.42  1446.97  1480.75  1562.00  1589.20
                             1622.25  1694.23  1746.85  1872.11  1921.33
                             1966.31  2018.63  2030.88  2063.20  2120.61
                             2132.25  2147.68  2154.64  2169.17  2178.92
                             2777.21  4352.87  4373.63  4374.22  4402.95
                             4469.97  4475.43  4483.11  4490.60  4491.47
                             4615.20

 Zero-point correction=                           0.157509 (Hartree/Particle)
 Thermal correction to Energy=                    0.166693
 Thermal correction to Enthalpy=                  0.167637
 Thermal correction to Gibbs Free Energy=         0.123388
 Sum of electronic and zero-point Energies=           -423.042813
 Sum of electronic and thermal Energies=              -423.033629
 Sum of electronic and thermal Enthalpies=            -423.032685
 Sum of electronic and thermal Free Energies=         -423.076934

                     E (Thermal)             CV                S
                      KCal/Mol        Cal/Mol-Kelvin    Cal/Mol-Kelvin
 Total                  104.601             33.839             93.130
 Electronic               0.000              0.000              0.000
 Translational            0.889              2.981             40.409
 Rotational               0.889              2.981             28.843
 Vibrational            102.824             27.877             23.878
 Vibration     1          0.597              1.973              4.408
 Vibration     2          0.609              1.933              3.114
 Vibration     3          0.617              1.907              2.725
 Vibration     4          0.636              1.846              2.176
 Vibration     5          0.641              1.831              2.078
 Vibration     6          0.661              1.767              1.748
 Vibration     7          0.681              1.706              1.520
 Vibration     8          0.727              1.576              1.167
 Vibration     9          0.775              1.447              0.924
 Vibration    10          0.838              1.290              0.705
 Vibration    11          0.878              1.199              0.603

 Normal termination of Gaussian 09 at Tue Jan 28 10:05:59 2020.
