 Gaussian 09, Revision D.01,
 Gaussian 09:  ES64L-G09RevD.01 24-Apr-2013

 -----------------------------
 # b3lyp 6-31G(2df,p) opt Freq
 -----------------------------

 -----
 titel
 -----
 Symbolic Z-matrix:
 Charge =  0 Multiplicity = 1

 SCF Done:  E(RB3LYP) =  -423.138611368     A.U. after   14 cycles
 Optimization completed.
    -- Stationary point found.
 Normal termination of Gaussian 09 at Tue Jan 28 01:53:34 2020.

 ----------------------------------------------------------------------
 #N Geom=AllCheck Guess=TCheck SCRF=Check GenChk RB3LYP/6-31G(2df,p) Fr
 eq
 ----------------------------------------------------------------------

 Structure from the checkpoint file:  "/scratch/puck/g09_54fe9147-8846-4b8a-9792-4e79893eddfc/Gau-38005.chk"
 -----
 titel
 -----
 Charge =  0 Multiplicity = 1

                         Standard orientation:
 ---------------------------------------------------------------------
 Center     Atomic      Atomic             Coordinates (Angstroms)
 Number     Number       Type             X           Y           Z
 ---------------------------------------------------------------------
      1          6           0       -2.599561   -0.806318   -0.239525
      2          6           0       -1.644173    0.035970    0.563138
      3          8           0       -1.286836    1.329677    0.001242
      4          6           0       -0.289847    0.340621    0.124710
      5          6           0        1.066564    0.588183    0.822543
      6          6           0        1.559231    1.031025   -0.597390
      7          6           0        0.614526   -0.120954   -1.030504
      8          8           0        1.238309   -1.294151   -0.483880
      9          6           0        1.586691   -0.854542    0.855960
     10          1           0       -3.619603   -0.417010   -0.157635
     11          1           0       -2.317821   -0.816355   -1.295136
     12          1           0       -2.599977   -1.836954    0.130751
     13          1           0       -1.847853    0.084222    1.634596
     14          1           0        1.171018    1.203528    1.714137
     15          1           0        1.188368    2.017589   -0.876827
     16          1           0        2.619117    0.913324   -0.833637
     17          1           0        0.283735   -0.304506   -2.050328
     18          1           0        1.080247   -1.482732    1.597978
     19          1           0        2.670401   -0.929230    1.003615
 ---------------------------------------------------------------------

 SCF Done:  E(RB3LYP) =  -423.138611368     A.U. after    1 cycles

 The electronic state is 1-A.
 Alpha  occ. eigenvalues --  -19.14931 -19.13700 -10.23930 -10.23787 -10.23701
 Alpha  occ. eigenvalues --  -10.23027 -10.20099 -10.18892 -10.18402  -1.07255
 Alpha  occ. eigenvalues --   -1.03840  -0.82996  -0.74716  -0.72733  -0.65260
 Alpha  occ. eigenvalues --   -0.60527  -0.58259  -0.55345  -0.52299  -0.49534
 Alpha  occ. eigenvalues --   -0.46304  -0.45467  -0.42596  -0.40578  -0.39678
 Alpha  occ. eigenvalues --   -0.38045  -0.37641  -0.36246  -0.34888  -0.34574
 Alpha  occ. eigenvalues --   -0.32008  -0.28725  -0.26930  -0.23284
 Alpha virt. eigenvalues --    0.08372   0.10122   0.11092   0.11422   0.12258
 Alpha virt. eigenvalues --    0.12698   0.14243   0.14701   0.15886   0.16250
 Alpha virt. eigenvalues --    0.17431   0.18059   0.19039   0.20412   0.21009

 Mulliken charges:
               1
     1  C   -0.413087
     2  C   -0.081562
     3  O   -0.325851
     4  C    0.523764
     5  C   -0.178911
     6  C   -0.249069
     7  C    0.004710
     8  O   -0.283059
     9  C   -0.077729
    10  H    0.129325
    11  H    0.127402
    12  H    0.128210
    13  H    0.092058
    14  H    0.083944
    15  H    0.124232
    16  H    0.100689
    17  H    0.089046
    18  H    0.102598
    19  H    0.103291
 Sum of Mulliken charges =   0.00000

 Dipole moment (field-independent basis, Debye):
    X=              0.0816    Y=             -0.2410    Z=              1.0306  Tot=              1.0616
 Quadrupole moment (field-independent basis, Debye-Ang):
   XX=            -51.0637   YY=            -57.8432   ZZ=            -50.1121
   XY=              4.9352   XZ=              0.8129   YZ=             -1.4214

  Exact polarizability:  87.931   3.653  67.833  -0.095  -2.509  69.713
 Approx polarizability: 114.536   0.769 106.762  -1.152  -3.472 105.622

                      1                      2                      3
                      A                      A                      A
 Frequencies --    125.9760               155.5513               188.3936
 Red. masses --      3.3351                 3.0683                 1.0980
 Frc consts  --      0.0312                 0.0437                 0.0230
 IR Inten    --      2.0580                 1.3734                 0.1804

                      4                      5                      6
                      A                      A                      A
 Frequencies --    239.0502               328.2254               412.7385
 Red. masses --      2.8641                 2.7575                 3.0925
 Frc consts  --      0.0964                 0.1750                 0.3104
 IR Inten    --      2.4181                 4.3072                 1.1716

                      7                      8                      9
                      A                      A                      A
 Frequencies --    423.7397               458.7424               551.8829
 Red. masses --      3.3191                 2.9932                 3.1813
 Frc consts  --      0.3511                 0.3711                 0.5709
 IR Inten    --      2.0419                 7.7471                 5.0394

                     10                     11                     12
                      A                      A                      A
 Frequencies --    627.6610               691.4346               798.6918
 Red. masses --      3.6309                 4.4496                 3.2774
 Frc consts  --      0.8428                 1.2534                 1.2318
 IR Inten    --      4.9750                 2.6201                10.0227

                     13                     14                     15
                      A                      A                      A
 Frequencies --    824.5784               850.5503               911.7453
 Red. masses --      2.8108                 2.7156                 3.2819
 Frc consts  --      1.1260                 1.1575                 1.6074
 IR Inten    --      2.7215                 3.6013                16.3481

                     16                     17                     18
                      A                      A                      A
 Frequencies --    914.4635               947.7733               958.0913
 Red. masses --      1.9892                 2.1436                 1.4663
 Frc consts  --      0.9801                 1.1345                 0.7930
 IR Inten    --     20.2470                 7.9716                 1.4143

                     19                     20                     21
                      A                      A                      A
 Frequencies --    978.3682              1018.2823              1022.8691
 Red. masses --      3.1347                 2.6891                 2.5596
 Frc consts  --      1.7679                 1.6428                 1.5779
 IR Inten    --     55.3728                18.3717                17.2887

                     22                     23                     24
                      A                      A                      A
 Frequencies --   1053.3067              1073.2460              1096.7663
 Red. masses --      1.6065                 1.4099                 2.6587
 Frc consts  --      1.0502                 0.9568                 1.8843
 IR Inten    --     13.1424                13.3460                 0.6443

                     25                     26                     27
                      A                      A                      A
 Frequencies --   1108.2676              1128.8210              1139.9455
 Red. masses --      1.9566                 1.9083                 1.6813
 Frc consts  --      1.4159                 1.4327                 1.2872
 IR Inten    --     26.4425                 3.1087                 6.3557

                     28                     29                     30
                      A                      A                      A
 Frequencies --   1177.1985              1191.9153              1233.1888
 Red. masses --      1.5468                 1.3372                 1.5618
 Frc consts  --      1.2629                 1.1193                 1.3994
 IR Inten    --      2.0897                11.6475                 1.5080

                     31                     32                     33
                      A                      A                      A
 Frequencies --   1242.8637              1255.0412              1280.5070
 Red. masses --      1.5413                 1.7171                 1.4707
 Frc consts  --      1.4027                 1.5936                 1.4208
 IR Inten    --      0.3470                 7.5119                 5.0053

                     34                     35                     36
                      A                      A                      A
 Frequencies --   1351.6152              1370.4000              1410.0816
 Red. masses --      1.3631                 1.3797                 1.2736
 Frc consts  --      1.4672                 1.5266                 1.4920
 IR Inten    --     13.9911                 5.4125                 6.0889

                     37                     38                     39
                      A                      A                      A
 Frequencies --   1473.9503              1481.3488              1490.8903
 Red. masses --      1.1444                 1.0935                 1.0600
 Frc consts  --      1.4648                 1.4138                 1.3882
 IR Inten    --      3.0210                 2.7792                 5.2333

                     40                     41                     42
                      A                      A                      A
 Frequencies --   1525.8698              1549.7356              3022.9826
 Red. masses --      1.1636                 3.4531                 1.0557
 Frc consts  --      1.5963                 4.8862                 5.6841
 IR Inten    --      0.8162                10.4761                67.0418

                     43                     44                     45
                      A                      A                      A
 Frequencies --   3039.2002              3063.4199              3074.9584
 Red. masses --      1.0359                 1.1105                 1.0575
 Frc consts  --      5.6373                 6.1400                 5.8913
 IR Inten    --     18.3463                30.3753                34.1679

                     46                     47                     48
                      A                      A                      A
 Frequencies --   3090.3998              3103.7566              3129.3798
 Red. masses --      1.0869                 1.1009                 1.1009
 Frc consts  --      6.1161                 6.2486                 6.3518
 IR Inten    --     18.1325                16.2510                21.0949

                     49                     50                     51
                      A                      A                      A
 Frequencies --   3141.8274              3149.4478              3153.2339
 Red. masses --      1.0909                 1.1083                 1.0936
 Frc consts  --      6.3445                 6.4768                 6.4066
 IR Inten    --     28.5926                16.1690                21.2574

 - Thermochemistry -
 -------------------
 Temperature   298.150 Kelvin.  Pressure   1.00000 Atm.
 Atom     1 has atomic number  6 and mass  12.00000

 Molecular mass:   126.06808 amu.
 Principal axes and moments of inertia in atomic units:
                           1         2         3
     Eigenvalues --   580.002901248.559151407.73946
           X            0.99849   0.05396   0.01010
           Y           -0.05346   0.99757  -0.04470
           Z           -0.01249   0.04409   0.99895
 This molecule is an asymmetric top.
 Rotational symmetry number  1.
 Warning -- assumption of classical behavior for rotation
           may cause significant error
 Rotational temperatures (Kelvin)      0.14933     0.06937     0.06153
 Rotational constants (GHZ):           3.11161     1.44546     1.28201
 Zero-point vibrational energy     418886.6 (Joules/Mol)
                                  100.11630 (Kcal/Mol)
 Warning -- explicit consideration of   9 degrees of freedom as
           vibrations may cause significant error
 Vibrational temperatures:    181.25   223.80   271.06   343.94   472.24
          (Kelvin)            593.84   609.67   660.03   794.04   903.06
                              994.82  1149.14  1186.38  1223.75  1311.80
                             1315.71  1363.63  1378.48  1407.65  1465.08
                             1471.68  1515.47  1544.16  1578.00  1594.55
                             1624.12  1640.13  1693.72  1714.90  1774.28
                             1788.20  1805.72  1842.36  1944.67  1971.70
                             2028.79  2120.68  2131.33  2145.06  2195.38
                             2229.72  4349.39  4372.73  4407.57  4424.17
                             4446.39  4465.61  4502.47  4520.38  4531.35
                             4536.79

 Zero-point correction=                           0.159545 (Hartree/Particle)
 Thermal correction to Energy=                    0.167260
 Thermal correction to Enthalpy=                  0.168204
 Thermal correction to Gibbs Free Energy=         0.127519
 Sum of electronic and zero-point Energies=           -422.979066
 Sum of electronic and thermal Energies=              -422.971352
 Sum of electronic and thermal Enthalpies=            -422.970407
 Sum of electronic and thermal Free Energies=         -423.011092

                     E (Thermal)             CV                S
                      KCal/Mol        Cal/Mol-Kelvin    Cal/Mol-Kelvin
 Total                  104.957             30.498             85.629
 Electronic               0.000              0.000              0.000
 Translational            0.889              2.981             40.409
 Rotational               0.889              2.981             28.413
 Vibrational            103.180             24.536             16.807
 Vibration     1          0.611              1.927              3.007
 Vibration     2          0.620              1.896              2.603
 Vibration     3          0.633              1.856              2.244
 Vibration     4          0.657              1.781              1.810
 Vibration     5          0.711              1.619              1.269
 Vibration     6          0.777              1.443              0.917
 Vibration     7          0.786              1.419              0.879
 Vibration     8          0.817              1.342              0.770
 Vibration     9          0.907              1.136              0.540

 Optimization completed.
    -- Stationary point found.
 Normal termination of Gaussian 09 at Tue Jan 28 02:43:54 2020.
