 Gaussian 09, Revision D.01,
 Gaussian 09:  ES64L-G09RevD.01 24-Apr-2013

 -----------------------------
 # b3lyp 6-31G(2df,p) opt Freq
 -----------------------------

 -----
 titel
 -----
 Symbolic Z-matrix:
 Charge =  0 Multiplicity = 1

 SCF Done:  E(RB3LYP) =  -423.171087161     A.U. after   14 cycles
 Optimization completed.
    -- Stationary point found.
 Normal termination of Gaussian 09 at Tue Jan 28 14:11:08 2020.

 ----------------------------------------------------------------------
 #N Geom=AllCheck Guess=TCheck SCRF=Check GenChk RB3LYP/6-31G(2df,p) Fr
 eq
 ----------------------------------------------------------------------

 Structure from the checkpoint file:  "/scratch/puck/g09_7c2fc3ce-b715-4183-b660-279afd0d8c91/Gau-32294.chk"
 -----
 titel
 -----
 Charge =  0 Multiplicity = 1

                         Standard orientation:
 ---------------------------------------------------------------------
 Center     Atomic      Atomic             Coordinates (Angstroms)
 Number     Number       Type             X           Y           Z
 ---------------------------------------------------------------------
      1          8           0       -2.643247   -0.011024    0.128383
      2          6           0       -1.610843   -0.941590    0.401562
      3          6           0       -0.368232   -0.661740   -0.452232
      4          6           0        0.794368   -1.623341   -0.331936
      5          6           0        1.957337   -0.991163   -0.141567
      6          6           0        1.775447    0.482489   -0.006533
      7          6           0        0.927962    0.901342    1.194840
      8          6           0        0.273194    0.693969   -0.132658
      9          8           0       -0.323850    1.836596   -0.680515
     10          1           0       -2.242683    0.867057    0.104790
     11          1           0       -1.334352   -0.938937    1.468198
     12          1           0       -2.017461   -1.933048    0.172430
     13          1           0       -0.720648   -0.641268   -1.498025
     14          1           0        0.669320   -2.696604   -0.419444
     15          1           0        2.925155   -1.473436   -0.060564
     16          1           0        2.502321    1.185802   -0.396459
     17          1           0        0.785243    0.186906    1.998453
     18          1           0        1.007284    1.939587    1.499076
     19          1           0       -0.332800    1.739566   -1.640255
 ---------------------------------------------------------------------

 SCF Done:  E(RB3LYP) =  -423.171087161     A.U. after    1 cycles

 The electronic state is 1-A.
 Alpha  occ. eigenvalues --  -19.15970 -19.12226 -10.24407 -10.22268 -10.19487
 Alpha  occ. eigenvalues --  -10.19366 -10.18976 -10.18853 -10.18419  -1.04319
 Alpha  occ. eigenvalues --   -1.00466  -0.88436  -0.77840  -0.72924  -0.64276
 Alpha  occ. eigenvalues --   -0.61386  -0.57556  -0.54852  -0.53222  -0.49538
 Alpha  occ. eigenvalues --   -0.46395  -0.44908  -0.43107  -0.42341  -0.40166
 Alpha  occ. eigenvalues --   -0.38369  -0.37298  -0.36167  -0.34427  -0.32000
 Alpha  occ. eigenvalues --   -0.30123  -0.26978  -0.25293  -0.23266
 Alpha virt. eigenvalues --    0.00913   0.06934   0.09879   0.10810   0.12494
 Alpha virt. eigenvalues --    0.13399   0.13985   0.14684   0.16862   0.17667
 Alpha virt. eigenvalues --    0.17770   0.18983   0.20886   0.21446   0.23180

 Mulliken charges:
               1
     1  O   -0.432295
     2  C   -0.061146
     3  C   -0.119389
     4  C   -0.113959
     5  C   -0.077763
     6  C   -0.171775
     7  C   -0.309102
     8  C    0.385437
     9  O   -0.474516
    10  H    0.290549
    11  H    0.087159
    12  H    0.099891
    13  H    0.077602
    14  H    0.098530
    15  H    0.100390
    16  H    0.093661
    17  H    0.118204
    18  H    0.123495
    19  H    0.285026
 Sum of Mulliken charges =   0.00000

 Dipole moment (field-independent basis, Debye):
    X=              2.1489    Y=             -0.2493    Z=             -0.8867  Tot=              2.3380
 Quadrupole moment (field-independent basis, Debye-Ang):
   XX=            -59.4837   YY=            -51.6634   ZZ=            -50.2527
   XY=              0.1690   XZ=              0.5270   YZ=             -1.3977

  Exact polarizability:  85.213   2.414  79.061   2.866   2.413  63.179
 Approx polarizability: 127.199   6.749 116.394   6.673   3.996  99.146

                      1                      2                      3
                      A                      A                      A
 Frequencies --    103.3043               141.0049               216.0256
 Red. masses --      4.5443                 4.6792                 2.2770
 Frc consts  --      0.0286                 0.0548                 0.0626
 IR Inten    --      0.9790                 2.0383                 2.4086

                      4                      5                      6
                      A                      A                      A
 Frequencies --    302.4309               316.2078               336.4891
 Red. masses --      2.6595                 1.8725                 1.4775
 Frc consts  --      0.1433                 0.1103                 0.0986
 IR Inten    --      6.3799                33.7029                91.4635

                      7                      8                      9
                      A                      A                      A
 Frequencies --    377.2729               429.3675               467.5004
 Red. masses --      4.5216                 2.4193                 1.3884
 Frc consts  --      0.3792                 0.2628                 0.1788
 IR Inten    --     23.1309                 6.2262                38.1213

                     10                     11                     12
                      A                      A                      A
 Frequencies --    482.5884               554.9824               619.2771
 Red. masses --      2.4337                 2.9348                 4.1903
 Frc consts  --      0.3339                 0.5326                 0.9468
 IR Inten    --     12.6973                 3.3652                 9.1476

                     13                     14                     15
                      A                      A                      A
 Frequencies --    703.7861               739.3040               785.8847
 Red. masses --      3.2447                 1.4854                 3.1693
 Frc consts  --      0.9469                 0.4783                 1.1533
 IR Inten    --      1.0747                35.9283                 3.0414

                     16                     17                     18
                      A                      A                      A
 Frequencies --    854.0908               899.7474               922.1427
 Red. masses --      1.7385                 2.2076                 2.4558
 Frc consts  --      0.7472                 1.0530                 1.2304
 IR Inten    --     10.2564                 8.8702                 7.2923

                     19                     20                     21
                      A                      A                      A
 Frequencies --    957.3390               972.9748              1015.5957
 Red. masses --      1.3514                 1.6816                 2.0486
 Frc consts  --      0.7297                 0.9379                 1.2449
 IR Inten    --      6.7450                11.1264                 5.3529

                     22                     23                     24
                      A                      A                      A
 Frequencies --   1025.9406              1040.9729              1061.9696
 Red. masses --      1.6300                 2.1357                 1.6831
 Frc consts  --      1.0108                 1.3635                 1.1184
 IR Inten    --      2.6195                 1.1743                11.8434

                     25                     26                     27
                      A                      A                      A
 Frequencies --   1071.4813              1076.5999              1102.8975
 Red. masses --      2.7653                 1.4989                 2.1298
 Frc consts  --      1.8705                 1.0236                 1.5264
 IR Inten    --     52.1278                18.1961                25.7134

                     28                     29                     30
                      A                      A                      A
 Frequencies --   1150.4365              1204.3927              1224.7689
 Red. masses --      1.3182                 1.2963                 1.6296
 Frc consts  --      1.0279                 1.1078                 1.4403
 IR Inten    --      1.7028                 2.0407                10.1823

                     31                     32                     33
                      A                      A                      A
 Frequencies --   1234.7968              1265.0992              1303.0660
 Red. masses --      1.8814                 1.4027                 1.5493
 Frc consts  --      1.6902                 1.3227                 1.5500
 IR Inten    --     76.4102                 2.5301                76.4910

                     34                     35                     36
                      A                      A                      A
 Frequencies --   1344.6841              1375.2717              1381.6985
 Red. masses --      1.9932                 1.6465                 1.3818
 Frc consts  --      2.1234                 1.8348                 1.5543
 IR Inten    --     14.2422                 9.4968                 0.6517

                     37                     38                     39
                      A                      A                      A
 Frequencies --   1415.8316              1447.7000              1477.1651
 Red. masses --      1.5762                 1.2256                 1.5503
 Frc consts  --      1.8616                 1.5134                 1.9930
 IR Inten    --      2.9941                98.8704                 7.9983

                     40                     41                     42
                      A                      A                      A
 Frequencies --   1512.7257              1657.8382              2954.4907
 Red. masses --      1.0882                 6.4161                 1.0792
 Frc consts  --      1.4672                10.3897                 5.5503
 IR Inten    --      0.5332                 1.4380                16.0825

                     43                     44                     45
                      A                      A                      A
 Frequencies --   2978.2963              3059.8758              3129.3189
 Red. masses --      1.0705                 1.0934                 1.0533
 Frc consts  --      5.5945                 6.0315                 6.0772
 IR Inten    --     73.4493                44.2096                 9.9964

                     46                     47                     48
                      A                      A                      A
 Frequencies --   3176.3830              3185.6096              3208.2374
 Red. masses --      1.0888                 1.0870                 1.1034
 Frc consts  --      6.4726                 6.4990                 6.6913
 IR Inten    --      6.1361                10.3477                21.2531

                     49                     50                     51
                      A                      A                      A
 Frequencies --   3223.9809              3773.8900              3783.9656
 Red. masses --      1.1172                 1.0662                 1.0657
 Frc consts  --      6.8415                 8.9471                 8.9908
 IR Inten    --      5.1705                49.4552                15.2821

 - Thermochemistry -
 -------------------
 Temperature   298.150 Kelvin.  Pressure   1.00000 Atm.
 Atom     1 has atomic number  8 and mass  15.99491

 Molecular mass:   126.06808 amu.
 Principal axes and moments of inertia in atomic units:
                           1         2         3
     Eigenvalues --   713.959931150.654821544.89082
           X            0.99986   0.01640   0.00313
           Y           -0.01641   0.99986   0.00450
           Z           -0.00305  -0.00455   0.99998
 This molecule is an asymmetric top.
 Rotational symmetry number  1.
 Warning -- assumption of classical behavior for rotation
           may cause significant error
 Rotational temperatures (Kelvin)      0.12131     0.07527     0.05606
 Rotational constants (GHZ):           2.52779     1.56845     1.16820
 Zero-point vibrational energy     418972.3 (Joules/Mol)
                                  100.13679 (Kcal/Mol)
 Warning -- explicit consideration of  12 degrees of freedom as
           vibrations may cause significant error
 Vibrational temperatures:    148.63   202.87   310.81   435.13   454.95
          (Kelvin)            484.13   542.81   617.76   672.63   694.34
                              798.49   891.00  1012.59  1063.69  1130.71
                             1228.84  1294.53  1326.76  1377.40  1399.89
                             1461.21  1476.10  1497.73  1527.94  1541.62
                             1548.99  1586.82  1655.22  1732.85  1762.17
                             1776.59  1820.19  1874.82  1934.70  1978.71
                             1987.95  2037.06  2082.91  2125.31  2176.47
                             2385.26  4250.85  4285.10  4402.47  4502.39
                             4570.10  4583.38  4615.93  4638.58  5429.78
                             5444.28

 Zero-point correction=                           0.159578 (Hartree/Particle)
 Thermal correction to Energy=                    0.167859
 Thermal correction to Enthalpy=                  0.168803
 Thermal correction to Gibbs Free Energy=         0.127091
 Sum of electronic and zero-point Energies=           -423.011509
 Sum of electronic and thermal Energies=              -423.003229
 Sum of electronic and thermal Enthalpies=            -423.002284
 Sum of electronic and thermal Free Energies=         -423.043996

                     E (Thermal)             CV                S
                      KCal/Mol        Cal/Mol-Kelvin    Cal/Mol-Kelvin
 Total                  105.333             32.941             87.789
 Electronic               0.000              0.000              0.000
 Translational            0.889              2.981             40.409
 Rotational               0.889              2.981             28.630
 Vibrational            103.555             26.979             18.750
 Vibration     1          0.605              1.947              3.391
 Vibration     2          0.615              1.912              2.790
 Vibration     3          0.645              1.817              1.992
 Vibration     4          0.694              1.669              1.403
 Vibration     5          0.703              1.643              1.330
 Vibration     6          0.717              1.603              1.229
 Vibration     7          0.748              1.519              1.050
 Vibration     8          0.791              1.406              0.861
 Vibration     9          0.825              1.322              0.745
 Vibration    10          0.839              1.289              0.703
 Vibration    11          0.910              1.129              0.534
 Vibration    12          0.979              0.991              0.418

 Normal termination of Gaussian 09 at Tue Jan 28 14:58:05 2020.
 Normal termination of Gaussian 09 at Tue Jan 28 14:02:31 2020.
