 Gaussian 09, Revision D.01,
 Gaussian 09:  ES64L-G09RevD.01 24-Apr-2013

 -----------------------------
 # b3lyp 6-31G(2df,p) opt Freq
 -----------------------------

 -----
 titel
 -----
 Symbolic Z-matrix:
 Charge =  0 Multiplicity = 1

 SCF Done:  E(RB3LYP) =  -423.121010703     A.U. after   12 cycles
 Optimization completed.
    -- Stationary point found.
 Normal termination of Gaussian 09 at Tue Jan 28 01:59:09 2020.

 ----------------------------------------------------------------------
 #N Geom=AllCheck Guess=TCheck SCRF=Check GenChk RB3LYP/6-31G(2df,p) Fr
 eq
 ----------------------------------------------------------------------

 Structure from the checkpoint file:  "/scratch/puck/g09_2ef72e01-1f21-4c35-82bb-dbddfc4bd28c/Gau-26635.chk"
 -----
 titel
 -----
 Charge =  0 Multiplicity = 1

                         Standard orientation:
 ---------------------------------------------------------------------
 Center     Atomic      Atomic             Coordinates (Angstroms)
 Number     Number       Type             X           Y           Z
 ---------------------------------------------------------------------
      1          8           0       -2.592386    0.011368   -0.740075
      2          6           0       -1.488878   -0.756513   -0.379683
      3          6           0       -1.170073   -0.979362    1.096651
      4          6           0       -0.351424   -0.037026    0.271195
      5          8           0       -0.502122    1.384650    0.419087
      6          6           0        0.877990    1.600213    0.011238
      7          6           0        1.113570    0.093843   -0.059014
      8          6           0        2.268193   -0.693977    0.476098
      9          6           0        1.954595   -0.702796   -1.004769
     10          1           0       -2.321390    0.935056   -0.633911
     11          1           0       -1.284015   -1.568647   -1.073763
     12          1           0       -1.845336   -0.532170    1.819239
     13          1           0       -0.729698   -1.927004    1.393247
     14          1           0        0.936527    2.137443   -0.942868
     15          1           0        1.437349    2.146229    0.778688
     16          1           0        3.145163   -0.149956    0.812585
     17          1           0        2.049213   -1.587393    1.052309
     18          1           0        2.618461   -0.164879   -1.674185
     19          1           0        1.525948   -1.603118   -1.433739
 ---------------------------------------------------------------------

 SCF Done:  E(RB3LYP) =  -423.121010703     A.U. after    1 cycles

 The electronic state is 1-A.
 Alpha  occ. eigenvalues --  -19.15026 -19.13189 -10.24171 -10.24065 -10.22961
 Alpha  occ. eigenvalues --  -10.21006 -10.19644 -10.19600 -10.18061  -1.05704
 Alpha  occ. eigenvalues --   -1.01522  -0.86711  -0.83282  -0.69797  -0.63836
 Alpha  occ. eigenvalues --   -0.61559  -0.60031  -0.54578  -0.51430  -0.51078
 Alpha  occ. eigenvalues --   -0.47838  -0.46968  -0.43563  -0.41183  -0.38992
 Alpha  occ. eigenvalues --   -0.37913  -0.37549  -0.37497  -0.33634  -0.32376
 Alpha  occ. eigenvalues --   -0.30389  -0.29207  -0.24505  -0.22905
 Alpha virt. eigenvalues --    0.05627   0.08788   0.09667   0.09969   0.11587
 Alpha virt. eigenvalues --    0.12307   0.13384   0.14205   0.16340   0.16677
 Alpha virt. eigenvalues --    0.18249   0.19683   0.20330   0.21860   0.23113

 Mulliken charges:
               1
     1  O   -0.436248
     2  C    0.057327
     3  C   -0.392203
     4  C    0.362765
     5  O   -0.334882
     6  C   -0.140289
     7  C    0.203168
     8  C   -0.320677
     9  C   -0.330118
    10  H    0.294029
    11  H    0.096003
    12  H    0.128624
    13  H    0.112796
    14  H    0.110488
    15  H    0.113091
    16  H    0.117548
    17  H    0.120120
    18  H    0.118323
    19  H    0.120137
 Sum of Mulliken charges =   0.00000

 Dipole moment (field-independent basis, Debye):
    X=              2.8598    Y=             -0.1278    Z=              0.0059  Tot=              2.8627
 Quadrupole moment (field-independent basis, Debye-Ang):
   XX=            -57.7693   YY=            -50.5264   ZZ=            -53.2146
   XY=              0.7659   XZ=             -1.8432   YZ=             -1.5493

  Exact polarizability:  83.987   1.834  74.993  -0.525  -2.127  68.818
 Approx polarizability: 111.552   1.058 109.376   1.388  -2.004 103.161

                      1                      2                      3
                      A                      A                      A
 Frequencies --     80.0801               133.1587               170.5406
 Red. masses --      2.9992                 3.9841                 3.4977
 Frc consts  --      0.0113                 0.0416                 0.0599
 IR Inten    --      0.5617                 0.5560                 2.8514

                      4                      5                      6
                      A                      A                      A
 Frequencies --    238.7040               263.7437               317.5212
 Red. masses --      4.1860                 2.3891                 2.3044
 Frc consts  --      0.1405                 0.0979                 0.1369
 IR Inten    --      5.9131                 0.6802                 5.1950

                      7                      8                      9
                      A                      A                      A
 Frequencies --    404.6894               427.6846               456.7666
 Red. masses --      1.3610                 2.5111                 1.7094
 Frc consts  --      0.1313                 0.2706                 0.2101
 IR Inten    --     40.3968                 8.3869                 8.2513

                     10                     11                     12
                      A                      A                      A
 Frequencies --    547.6004               556.7808               660.9631
 Red. masses --      3.6867                 3.3361                 3.7635
 Frc consts  --      0.6513                 0.6093                 0.9687
 IR Inten    --      0.8437                 3.1449                12.5220

                     13                     14                     15
                      A                      A                      A
 Frequencies --    772.3110               813.2271               854.7582
 Red. masses --      1.0468                 2.0592                 1.8379
 Frc consts  --      0.3679                 0.8024                 0.7911
 IR Inten    --      0.3338                10.5325                10.6360

                     16                     17                     18
                      A                      A                      A
 Frequencies --    859.9325               884.5175               904.0531
 Red. masses --      1.5766                 2.5135                 2.2955
 Frc consts  --      0.6869                 1.1586                 1.1054
 IR Inten    --      1.1014                16.3995                18.8813

                     19                     20                     21
                      A                      A                      A
 Frequencies --    969.1895               980.7279               999.7817
 Red. masses --      3.0178                 2.3765                 2.8043
 Frc consts  --      1.6702                 1.3468                 1.6515
 IR Inten    --     22.6379                26.9956                46.9050

                     22                     23                     24
                      A                      A                      A
 Frequencies --   1010.1184              1022.9933              1056.5869
 Red. masses --      2.8786                 1.5296                 1.4721
 Frc consts  --      1.7305                 0.9432                 0.9683
 IR Inten    --     22.3800                39.5218                 6.8051

                     25                     26                     27
                      A                      A                      A
 Frequencies --   1074.8900              1084.7188              1104.9696
 Red. masses --      1.4610                 1.5435                 2.1106
 Frc consts  --      0.9946                 1.0700                 1.5183
 IR Inten    --      0.7322                 2.0796                 3.7251

                     28                     29                     30
                      A                      A                      A
 Frequencies --   1143.8277              1153.2768              1169.6098
 Red. masses --      2.5578                 1.1409                 2.3697
 Frc consts  --      1.9717                 0.8941                 1.9100
 IR Inten    --     61.6290                 2.6463                41.9137

                     31                     32                     33
                      A                      A                      A
 Frequencies --   1187.2888              1240.7712              1298.7898
 Red. masses --      1.2960                 2.6824                 1.7049
 Frc consts  --      1.0764                 2.4331                 1.6945
 IR Inten    --      0.3815                11.2212                 6.6417

                     34                     35                     36
                      A                      A                      A
 Frequencies --   1324.1242              1366.9964              1409.4709
 Red. masses --      1.4686                 1.7524                 1.2852
 Frc consts  --      1.5170                 1.9294                 1.5043
 IR Inten    --     10.7362                17.6677                78.2391

                     37                     38                     39
                      A                      A                      A
 Frequencies --   1426.6858              1463.0561              1481.9120
 Red. masses --      1.3714                 1.0869                 1.7128
 Frc consts  --      1.6446                 1.3708                 2.2162
 IR Inten    --      1.5109                 2.0565                28.8824

                     40                     41                     42
                      A                      A                      A
 Frequencies --   1517.0900              1525.6448              3022.2250
 Red. masses --      1.5992                 1.5323                 1.0557
 Frc consts  --      2.1686                 2.1014                 5.6813
 IR Inten    --      6.9690                 4.8907                68.9594

                     43                     44                     45
                      A                      A                      A
 Frequencies --   3072.8294              3118.8690              3123.1019
 Red. masses --      1.1110                 1.0544                 1.0504
 Frc consts  --      6.1809                 6.0431                 6.0365
 IR Inten    --     32.3518                 3.5328                16.5059

                     46                     47                     48
                      A                      A                      A
 Frequencies --   3125.9885              3129.8199              3200.9391
 Red. masses --      1.0588                 1.0879                 1.1179
 Frc consts  --      6.0960                 6.2791                 6.7482
 IR Inten    --      6.7640                24.9386                 0.0424

                     49                     50                     51
                      A                      A                      A
 Frequencies --   3215.0622              3215.9283              3721.8889
 Red. masses --      1.1158                 1.1158                 1.0655
 Frc consts  --      6.7953                 6.7988                 8.6964
 IR Inten    --      5.3821                12.2281                46.7753

 - Thermochemistry -
 -------------------
 Temperature   298.150 Kelvin.  Pressure   1.00000 Atm.
 Atom     1 has atomic number  8 and mass  15.99491

 Molecular mass:   126.06808 amu.
 Principal axes and moments of inertia in atomic units:
                           1         2         3
     Eigenvalues --   613.774591369.341961565.88447
           X            0.99993   0.00230  -0.01174
           Y           -0.00275   0.99926  -0.03841
           Z            0.01164   0.03844   0.99919
 This molecule is an asymmetric top.
 Rotational symmetry number  1.
 Warning -- assumption of classical behavior for rotation
           may cause significant error
 Rotational temperatures (Kelvin)      0.14112     0.06325     0.05531
 Rotational constants (GHZ):           2.94040     1.31796     1.15254
 Zero-point vibrational energy     414543.2 (Joules/Mol)
                                   99.07819 (Kcal/Mol)
 Warning -- explicit consideration of  11 degrees of freedom as
           vibrations may cause significant error
 Vibrational temperatures:    115.22   191.59   245.37   343.44   379.47
          (Kelvin)            456.84   582.26   615.34   657.18   787.87
                              801.08   950.98  1111.18  1170.05  1229.80
                             1237.25  1272.62  1300.73  1394.45  1411.05
                             1438.46  1453.33  1471.86  1520.19  1546.53
                             1560.67  1589.80  1645.71  1659.31  1682.81
                             1708.24  1785.19  1868.67  1905.12  1966.80
                             2027.91  2052.68  2105.01  2132.14  2182.75
                             2195.06  4348.30  4421.11  4487.35  4493.44
                             4497.59  4503.11  4605.43  4625.75  4627.00
                             5354.96

 Zero-point correction=                           0.157891 (Hartree/Particle)
 Thermal correction to Energy=                    0.166349
 Thermal correction to Enthalpy=                  0.167293
 Thermal correction to Gibbs Free Energy=         0.124882
 Sum of electronic and zero-point Energies=           -422.963120
 Sum of electronic and thermal Energies=              -422.954662
 Sum of electronic and thermal Enthalpies=            -422.953717
 Sum of electronic and thermal Free Energies=         -422.996128

                     E (Thermal)             CV                S
                      KCal/Mol        Cal/Mol-Kelvin    Cal/Mol-Kelvin
 Total                  104.386             32.846             89.261
 Electronic               0.000              0.000              0.000
 Translational            0.889              2.981             40.409
 Rotational               0.889              2.981             28.667
 Vibrational            102.608             26.885             20.186
 Vibration     1          0.600              1.963              3.889
 Vibration     2          0.613              1.920              2.900
 Vibration     3          0.626              1.879              2.430
 Vibration     4          0.657              1.781              1.813
 Vibration     5          0.670              1.739              1.637
 Vibration     6          0.704              1.640              1.323
 Vibration     7          0.770              1.460              0.946
 Vibration     8          0.789              1.410              0.866
 Vibration     9          0.815              1.346              0.776
 Vibration    10          0.903              1.145              0.549
 Vibration    11          0.912              1.125              0.530

 Optimization completed.
    -- Stationary point found.
 Normal termination of Gaussian 09 at Tue Jan 28 02:46:20 2020.
