 Gaussian 09, Revision D.01,
 Gaussian 09:  ES64L-G09RevD.01 24-Apr-2013

 -----------------------------
 # b3lyp 6-31G(2df,p) opt Freq
 -----------------------------

 -----
 titel
 -----
 Symbolic Z-matrix:
 Charge =  0 Multiplicity = 1

 SCF Done:  E(RB3LYP) =  -423.150664762     A.U. after   13 cycles
 Optimization completed.
    -- Stationary point found.
 Normal termination of Gaussian 09 at Mon Jan 27 18:44:36 2020.

 ----------------------------------------------------------------------
 #N Geom=AllCheck Guess=TCheck SCRF=Check GenChk RB3LYP/6-31G(2df,p) Fr
 eq
 ----------------------------------------------------------------------

 Structure from the checkpoint file:  "/scratch/puck/g09_d7aaf1d3-1f98-4142-a9dd-2fafb0776af9/Gau-172495.chk"
 -----
 titel
 -----
 Charge =  0 Multiplicity = 1

                         Standard orientation:
 ---------------------------------------------------------------------
 Center     Atomic      Atomic             Coordinates (Angstroms)
 Number     Number       Type             X           Y           Z
 ---------------------------------------------------------------------
      1          8           0        1.085108    1.831791   -0.122628
      2          6           0        0.610695    0.545456    0.163914
      3          6           0        1.625254   -0.526364    0.622187
      4          8           0        1.152900   -1.459955   -0.374880
      5          6           0        0.248145   -0.484920   -0.950606
      6          6           0       -1.248333   -0.682879   -0.665895
      7          6           0       -1.268134   -0.831294    0.880451
      8          6           0       -0.761574    0.638622    0.848420
      9          6           0       -1.669689    0.803543   -0.415739
     10          1           0        1.863950    1.754213   -0.683675
     11          1           0        2.670106   -0.234385    0.442510
     12          1           0        1.535577   -0.918062    1.642306
     13          1           0        0.492146   -0.259518   -1.994265
     14          1           0       -1.812930   -1.347815   -1.319494
     15          1           0       -2.285443   -0.893487    1.271796
     16          1           0       -0.645835   -1.607251    1.328058
     17          1           0       -0.831577    1.300414    1.711276
     18          1           0       -2.728825    0.896180   -0.168174
     19          1           0       -1.379432    1.562036   -1.146666
 ---------------------------------------------------------------------

 SCF Done:  E(RB3LYP) =  -423.150664762     A.U. after    1 cycles

 The electronic state is 1-A.
 Alpha  occ. eigenvalues --  -19.14723 -19.13252 -10.23775 -10.22651 -10.22531
 Alpha  occ. eigenvalues --  -10.19289 -10.19146 -10.18623 -10.18285  -1.04819
 Alpha  occ. eigenvalues --   -1.01915  -0.87932  -0.72109  -0.69653  -0.66005
 Alpha  occ. eigenvalues --   -0.64799  -0.55741  -0.54350  -0.52674  -0.49197
 Alpha  occ. eigenvalues --   -0.48628  -0.44927  -0.42234  -0.39847  -0.38447
 Alpha  occ. eigenvalues --   -0.38180  -0.37004  -0.34970  -0.32892  -0.31696
 Alpha  occ. eigenvalues --   -0.31255  -0.28707  -0.25972  -0.24876
 Alpha virt. eigenvalues --    0.06658   0.08903   0.10415   0.11912   0.13030
 Alpha virt. eigenvalues --    0.14000   0.14873   0.16002   0.16187   0.16859
 Alpha virt. eigenvalues --    0.18053   0.18969   0.20008   0.20741   0.22043

 Mulliken charges:
               1
     1  O   -0.494299
     2  C    0.394777
     3  C   -0.168104
     4  O   -0.301434
     5  C    0.063029
     6  C   -0.051289
     7  C   -0.239940
     8  C   -0.067896
     9  C   -0.227902
    10  H    0.281087
    11  H    0.088837
    12  H    0.105794
    13  H    0.069475
    14  H    0.064523
    15  H    0.097850
    16  H    0.110992
    17  H    0.070073
    18  H    0.099345
    19  H    0.105081
 Sum of Mulliken charges =   0.00000

 Dipole moment (field-independent basis, Debye):
    X=             -0.0736    Y=              0.6055    Z=             -0.1517  Tot=              0.6286
 Quadrupole moment (field-independent basis, Debye-Ang):
   XX=            -48.9515   YY=            -59.5778   ZZ=            -50.8198
   XY=              2.8995   XZ=             -0.7722   YZ=             -2.3368

  Exact polarizability:  81.903   0.445  68.944   1.025  -2.242  69.766
 Approx polarizability: 112.177  -0.068 106.930   1.327  -1.279 106.844

                      1                      2                      3
                      A                      A                      A
 Frequencies --    201.7343               266.1533               286.9826
 Red. masses --      3.6564                 2.1859                 2.6049
 Frc consts  --      0.0877                 0.0912                 0.1264
 IR Inten    --      4.6858                11.4094                 7.9623

                      4                      5                      6
                      A                      A                      A
 Frequencies --    327.7286               374.4930               453.8877
 Red. masses --      1.5375                 2.8910                 3.4257
 Frc consts  --      0.0973                 0.2389                 0.4158
 IR Inten    --     67.7176                 7.8726                 8.8479

                      7                      8                      9
                      A                      A                      A
 Frequencies --    484.4783               521.9444               616.5516
 Red. masses --      2.3997                 2.5107                 3.2579
 Frc consts  --      0.3319                 0.4030                 0.7297
 IR Inten    --      2.2308                 1.2357                 1.5585

                     10                     11                     12
                      A                      A                      A
 Frequencies --    671.9060               802.9578               847.5146
 Red. masses --      4.5059                 3.9534                 2.5385
 Frc consts  --      1.1985                 1.5018                 1.0743
 IR Inten    --      2.8056                12.2349                 1.2400

                     13                     14                     15
                      A                      A                      A
 Frequencies --    850.9086               865.1325               869.9079
 Red. masses --      2.1764                 2.7774                 2.1027
 Frc consts  --      0.9284                 1.2247                 0.9375
 IR Inten    --      0.7063                 4.5901                 1.5101

                     16                     17                     18
                      A                      A                      A
 Frequencies --    923.4953               938.7584               998.6398
 Red. masses --      1.7781                 2.0675                 5.1620
 Frc consts  --      0.8935                 1.0735                 3.0331
 IR Inten    --      5.3606                13.8951                54.8803

                     19                     20                     21
                      A                      A                      A
 Frequencies --   1006.9569              1012.8201              1024.4491
 Red. masses --      1.7466                 1.8869                 3.2508
 Frc consts  --      1.0434                 1.1404                 2.0101
 IR Inten    --     10.1422                 4.1579                39.6045

                     22                     23                     24
                      A                      A                      A
 Frequencies --   1033.7482              1055.0387              1068.5851
 Red. masses --      2.6734                 1.3730                 1.1335
 Frc consts  --      1.6832                 0.9004                 0.7626
 IR Inten    --      7.2941                12.5672                 2.8691

                     25                     26                     27
                      A                      A                      A
 Frequencies --   1100.3610              1106.5082              1133.7885
 Red. masses --      1.5888                 2.0221                 1.8405
 Frc consts  --      1.1334                 1.4587                 1.3939
 IR Inten    --     17.8325                16.8892                10.9692

                     28                     29                     30
                      A                      A                      A
 Frequencies --   1151.8855              1198.1292              1221.5628
 Red. masses --      1.1503                 1.9504                 1.3616
 Frc consts  --      0.8993                 1.6496                 1.1971
 IR Inten    --      3.1720                11.6110                 3.4087

                     31                     32                     33
                      A                      A                      A
 Frequencies --   1240.2525              1242.3553              1252.2524
 Red. masses --      1.6507                 2.5755                 1.6958
 Frc consts  --      1.4961                 2.3421                 1.5668
 IR Inten    --     13.6999                37.1483                 5.0857

                     34                     35                     36
                      A                      A                      A
 Frequencies --   1285.5848              1300.1289              1332.2335
 Red. masses --      1.4299                 1.6035                 1.3849
 Frc consts  --      1.3923                 1.5970                 1.4482
 IR Inten    --     22.3749                 8.4308                19.1881

                     37                     38                     39
                      A                      A                      A
 Frequencies --   1362.7363              1392.1128              1490.3362
 Red. masses --      1.8397                 1.9093                 1.0918
 Frc consts  --      2.0129                 2.1800                 1.4287
 IR Inten    --     30.4103                12.3658                 1.1480

                     40                     41                     42
                      A                      A                      A
 Frequencies --   1514.9816              1523.9004              2995.1116
 Red. masses --      1.1125                 1.1092                 1.0612
 Frc consts  --      1.5044                 1.5177                 5.6086
 IR Inten    --      3.4288                 3.1686                76.4136

                     43                     44                     45
                      A                      A                      A
 Frequencies --   3052.4577              3054.6935              3068.2425
 Red. masses --      1.0900                 1.1007                 1.0566
 Frc consts  --      5.9840                 6.0514                 5.8603
 IR Inten    --     64.1271                11.5841                37.8126

                     46                     47                     48
                      A                      A                      A
 Frequencies --   3078.0316              3115.0993              3122.1138
 Red. masses --      1.0577                 1.0897                 1.0918
 Frc consts  --      5.9041                 6.2303                 6.2704
 IR Inten    --     23.2223                60.3409                19.9873

                     49                     50                     51
                      A                      A                      A
 Frequencies --   3130.8764              3136.1471              3808.7270
 Red. masses --      1.1082                 1.1082                 1.0660
 Frc consts  --      6.4004                 6.4219                 9.1109
 IR Inten    --     26.1848                27.2373                17.7679

 - Thermochemistry -
 -------------------
 Temperature   298.150 Kelvin.  Pressure   1.00000 Atm.
 Atom     1 has atomic number  8 and mass  15.99491

 Molecular mass:   126.06808 amu.
 Principal axes and moments of inertia in atomic units:
                           1         2         3
     Eigenvalues --   709.79202 886.046101164.94761
           X            0.99980   0.01955   0.00484
           Y           -0.01931   0.99883  -0.04442
           Z           -0.00570   0.04431   0.99900
 This molecule is an asymmetric top.
 Rotational symmetry number  1.
 Warning -- assumption of classical behavior for rotation
           may cause significant error
 Rotational temperatures (Kelvin)      0.12203     0.09775     0.07435
 Rotational constants (GHZ):           2.54263     2.03685     1.54920
 Zero-point vibrational energy     424168.2 (Joules/Mol)
                                  101.37863 (Kcal/Mol)
 Warning -- explicit consideration of   9 degrees of freedom as
           vibrations may cause significant error
 Vibrational temperatures:    290.25   382.93   412.90   471.53   538.81
          (Kelvin)            653.04   697.06   750.96   887.08   966.72
                             1155.28  1219.38  1224.27  1244.73  1251.60
                             1328.70  1350.66  1436.82  1448.78  1457.22
                             1473.95  1487.33  1517.96  1537.45  1583.17
                             1592.02  1631.27  1657.30  1723.84  1757.55
                             1784.44  1787.47  1801.71  1849.67  1870.59
                             1916.78  1960.67  2002.94  2144.26  2179.72
                             2192.55  4309.29  4391.80  4395.02  4414.51
                             4428.60  4481.93  4492.02  4504.63  4512.21
                             5479.90

 Zero-point correction=                           0.161557 (Hartree/Particle)
 Thermal correction to Energy=                    0.168438
 Thermal correction to Enthalpy=                  0.169382
 Thermal correction to Gibbs Free Energy=         0.130816
 Sum of electronic and zero-point Energies=           -422.989108
 Sum of electronic and thermal Energies=              -422.982227
 Sum of electronic and thermal Enthalpies=            -422.981283
 Sum of electronic and thermal Free Energies=         -423.019848

                     E (Thermal)             CV                S
                      KCal/Mol        Cal/Mol-Kelvin    Cal/Mol-Kelvin
 Total                  105.696             29.189             81.167
 Electronic               0.000              0.000              0.000
 Translational            0.889              2.981             40.409
 Rotational               0.889              2.981             28.085
 Vibrational            103.919             23.227             12.674
 Vibration     1          0.639              1.837              2.117
 Vibration     2          0.672              1.735              1.621
 Vibration     3          0.684              1.698              1.492
 Vibration     4          0.711              1.620              1.271
 Vibration     5          0.746              1.524              1.061
 Vibration     6          0.812              1.352              0.784
 Vibration     7          0.841              1.284              0.698
 Vibration     8          0.877              1.201              0.605
 Vibration     9          0.976              0.997              0.422

 Optimization completed.
    -- Stationary point found.
 Normal termination of Gaussian 09 at Mon Jan 27 19:32:04 2020.
