 Gaussian 09, Revision D.01,
 Gaussian 09:  ES64L-G09RevD.01 24-Apr-2013

 -----------------------------
 # b3lyp 6-31G(2df,p) opt Freq
 -----------------------------

 -----
 titel
 -----
 Symbolic Z-matrix:
 Charge =  0 Multiplicity = 1

 SCF Done:  E(RB3LYP) =  -423.112844012     A.U. after   12 cycles
 Optimization completed.
    -- Stationary point found.
 Normal termination of Gaussian 09 at Tue Jan 28 10:06:17 2020.

 ----------------------------------------------------------------------
 #N Geom=AllCheck Guess=TCheck SCRF=Check GenChk RB3LYP/6-31G(2df,p) Fr
 eq
 ----------------------------------------------------------------------

 Structure from the checkpoint file:  "/scratch/puck/g09_452a8c08-62e4-43dc-85be-5639a1a12fb1/Gau-64804.chk"
 -----
 titel
 -----
 Charge =  0 Multiplicity = 1

                         Standard orientation:
 ---------------------------------------------------------------------
 Center     Atomic      Atomic             Coordinates (Angstroms)
 Number     Number       Type             X           Y           Z
 ---------------------------------------------------------------------
      1          6           0        2.796248   -0.626922   -0.527679
      2          8           0        2.047961   -0.112914    0.563389
      3          6           0        0.753188    0.203549    0.238777
      4          6           0        0.256105    1.422075   -0.541444
      5          6           0       -1.132797    1.066869    0.059983
      6          6           0       -0.395939    0.237953    1.195894
      7          6           0       -0.341628   -0.882875    0.156552
      8          6           0       -1.515773   -0.284872   -0.613586
      9          8           0       -2.778696   -0.792900   -0.244808
     10          1           0        2.883885    0.107839   -1.339709
     11          1           0        3.794006   -0.856944   -0.148480
     12          1           0        2.339998   -1.541602   -0.930207
     13          1           0        0.662564    2.346431   -0.120964
     14          1           0        0.341435    1.438172   -1.634313
     15          1           0       -1.893663    1.828973    0.213629
     16          1           0       -0.426008    0.233786    2.275303
     17          1           0       -0.093827   -1.924991    0.318287
     18          1           0       -1.497367   -0.311248   -1.708620
     19          1           0       -2.781569   -0.888563    0.715439
 ---------------------------------------------------------------------

 SCF Done:  E(RB3LYP) =  -423.112844012     A.U. after    1 cycles

 The electronic state is 1-A.
 Alpha  occ. eigenvalues --  -19.15273 -19.13255 -10.24293 -10.23159 -10.22845
 Alpha  occ. eigenvalues --  -10.19574 -10.19297 -10.18977 -10.18638  -1.04914
 Alpha  occ. eigenvalues --   -1.01850  -0.92075  -0.72336  -0.71558  -0.67194
 Alpha  occ. eigenvalues --   -0.62782  -0.56056  -0.53946  -0.52630  -0.49265
 Alpha  occ. eigenvalues --   -0.46447  -0.45262  -0.44591  -0.43649  -0.39781
 Alpha  occ. eigenvalues --   -0.38236  -0.36826  -0.35576  -0.33643  -0.31251
 Alpha  occ. eigenvalues --   -0.30297  -0.26062  -0.25305  -0.23840
 Alpha virt. eigenvalues --    0.08034   0.10090   0.10249   0.11308   0.11745
 Alpha virt. eigenvalues --    0.13196   0.14111   0.14396   0.16097   0.16345
 Alpha virt. eigenvalues --    0.17033   0.18628   0.18951   0.20219   0.21836

 Mulliken charges:
               1
     1  C   -0.260271
     2  O   -0.283748
     3  C    0.449101
     4  C   -0.312885
     5  C   -0.109263
     6  C   -0.194132
     7  C   -0.186868
     8  C    0.161283
     9  O   -0.445245
    10  H    0.115642
    11  H    0.129148
    12  H    0.113107
    13  H    0.106008
    14  H    0.090794
    15  H    0.078957
    16  H    0.100372
    17  H    0.090754
    18  H    0.078779
    19  H    0.278465
 Sum of Mulliken charges =   0.00000

 Dipole moment (field-independent basis, Debye):
    X=              1.0572    Y=              0.1570    Z=              0.1217  Tot=              1.0757
 Quadrupole moment (field-independent basis, Debye-Ang):
   XX=            -56.8138   YY=            -52.1178   ZZ=            -51.4876
   XY=             -2.9087   XZ=             -6.5640   YZ=             -1.0377

  Exact polarizability:  86.225  -0.653  70.732  -3.205  -0.855  68.324
 Approx polarizability: 115.251   1.024 105.193  -2.833   0.910 108.238

                      1                      2                      3
                      A                      A                      A
 Frequencies --     93.6992               151.4172               164.4499
 Red. masses --      2.7377                 3.4020                 1.1203
 Frc consts  --      0.0142                 0.0460                 0.0179
 IR Inten    --      2.7141                 3.4407                 0.0524

                      4                      5                      6
                      A                      A                      A
 Frequencies --    231.5765               293.5895               349.5444
 Red. masses --      3.4446                 2.2329                 1.8645
 Frc consts  --      0.1088                 0.1134                 0.1342
 IR Inten    --      3.2308                 5.7342                40.0463

                      7                      8                      9
                      A                      A                      A
 Frequencies --    383.9383               415.6088               478.2548
 Red. masses --      1.7846                 3.5943                 5.0997
 Frc consts  --      0.1550                 0.3658                 0.6872
 IR Inten    --     38.1410                 1.1469                 2.4716

                     10                     11                     12
                      A                      A                      A
 Frequencies --    489.8699               640.2732               743.8995
 Red. masses --      2.7150                 3.1207                 3.7689
 Frc consts  --      0.3839                 0.7538                 1.2288
 IR Inten    --      1.4781                 6.5489                 1.1899

                     13                     14                     15
                      A                      A                      A
 Frequencies --    791.6362               829.1667               840.6836
 Red. masses --      2.4592                 1.9482                 1.6412
 Frc consts  --      0.9080                 0.7892                 0.6834
 IR Inten    --      7.8742                14.8628                 4.9925

                     16                     17                     18
                      A                      A                      A
 Frequencies --    889.8375               924.6347               931.0234
 Red. masses --      1.9861                 2.1265                 2.0591
 Frc consts  --      0.9266                 1.0712                 1.0516
 IR Inten    --     15.9346                 4.2642                 7.1528

                     19                     20                     21
                      A                      A                      A
 Frequencies --    955.2783               982.4505              1018.3791
 Red. masses --      1.8041                 2.6501                 2.0837
 Frc consts  --      0.9700                 1.5070                 1.2732
 IR Inten    --      9.8594                 9.7459                 2.4362

                     22                     23                     24
                      A                      A                      A
 Frequencies --   1036.6209              1064.2698              1093.7217
 Red. masses --      2.3616                 2.9614                 3.5738
 Frc consts  --      1.4952                 1.9763                 2.5188
 IR Inten    --      8.4506                24.6861               169.5704

                     25                     26                     27
                      A                      A                      A
 Frequencies --   1119.1647              1133.1850              1141.1458
 Red. masses --      1.6512                 1.7205                 1.7023
 Frc consts  --      1.2185                 1.3017                 1.3061
 IR Inten    --     14.5791                 4.7329                 4.5567

                     28                     29                     30
                      A                      A                      A
 Frequencies --   1178.1428              1183.6155              1204.8610
 Red. masses --      1.4037                 1.4462                 1.5271
 Frc consts  --      1.1479                 1.1937                 1.3062
 IR Inten    --      5.7739                 1.2497                 4.7522

                     31                     32                     33
                      A                      A                      A
 Frequencies --   1228.5290              1252.0019              1276.7650
 Red. masses --      1.5398                 1.6355                 1.7183
 Frc consts  --      1.3693                 1.5104                 1.6504
 IR Inten    --      8.3495                 8.3073                 1.9291

                     34                     35                     36
                      A                      A                      A
 Frequencies --   1289.4000              1303.6117              1397.7614
 Red. masses --      1.8150                 2.6555                 2.9019
 Frc consts  --      1.7779                 2.6589                 3.3404
 IR Inten    --      8.7696                64.3303               125.4584

                     37                     38                     39
                      A                      A                      A
 Frequencies --   1433.4746              1483.3132              1488.4627
 Red. masses --      1.2883                 1.1481                 1.0915
 Frc consts  --      1.5597                 1.4884                 1.4248
 IR Inten    --    113.5139                 7.2615                 5.8888

                     40                     41                     42
                      A                      A                      A
 Frequencies --   1504.6637              1509.2612              2997.2824
 Red. masses --      1.0953                 1.2139                 1.0346
 Frc consts  --      1.4610                 1.6292                 5.4761
 IR Inten    --     18.5661                 3.0009                43.7631

                     43                     44                     45
                      A                      A                      A
 Frequencies --   3030.6979              3052.3979              3053.2805
 Red. masses --      1.0606                 1.1011                 1.0871
 Frc consts  --      5.7398                 6.0446                 5.9711
 IR Inten    --     33.0551                38.5788                67.0464

                     46                     47                     48
                      A                      A                      A
 Frequencies --   3096.1479              3126.2166              3143.1730
 Red. masses --      1.1047                 1.0989                 1.0915
 Frc consts  --      6.2394                 6.3274                 6.3537
 IR Inten    --     24.9819                28.9694                25.7481

                     49                     50                     51
                      A                      A                      A
 Frequencies --   3192.4588              3229.1857              3781.1504
 Red. masses --      1.0918                 1.0980                 1.0651
 Frc consts  --      6.5559                 6.7457                 8.9717
 IR Inten    --     10.5898                 3.6767                 9.8577

 - Thermochemistry -
 -------------------
 Temperature   298.150 Kelvin.  Pressure   1.00000 Atm.
 Atom     1 has atomic number  6 and mass  12.00000

 Molecular mass:   126.06808 amu.
 Principal axes and moments of inertia in atomic units:
                           1         2         3
     Eigenvalues --   474.053151538.577151658.62266
           X            0.99957  -0.01711  -0.02393
           Y            0.01647   0.99951  -0.02652
           Z            0.02437   0.02612   0.99936
 This molecule is an asymmetric top.
 Rotational symmetry number  1.
 Warning -- assumption of classical behavior for rotation
           may cause significant error
 Rotational temperatures (Kelvin)      0.18271     0.05629     0.05222
 Rotational constants (GHZ):           3.80704     1.17299     1.08810
 Zero-point vibrational energy     416439.1 (Joules/Mol)
                                   99.53132 (Kcal/Mol)
 Warning -- explicit consideration of  10 degrees of freedom as
           vibrations may cause significant error
 Vibrational temperatures:    134.81   217.86   236.61   333.19   422.41
          (Kelvin)            502.92   552.40   597.97   688.10   704.81
                              921.21  1070.30  1138.99  1192.98  1209.55
                             1280.28  1330.34  1339.53  1374.43  1413.53
                             1465.22  1491.46  1531.24  1573.62  1610.23
                             1630.40  1641.85  1695.08  1702.96  1733.52
                             1767.58  1801.35  1836.98  1855.16  1875.60
                             2011.06  2062.45  2134.15  2141.56  2164.87
                             2171.49  4312.42  4360.49  4391.71  4392.98
                             4454.66  4497.92  4522.32  4593.23  4646.07
                             5440.23

 Zero-point correction=                           0.158613 (Hartree/Particle)
 Thermal correction to Energy=                    0.166874
 Thermal correction to Enthalpy=                  0.167819
 Thermal correction to Gibbs Free Energy=         0.125910
 Sum of electronic and zero-point Energies=           -422.954231
 Sum of electronic and thermal Energies=              -422.945970
 Sum of electronic and thermal Enthalpies=            -422.945025
 Sum of electronic and thermal Free Energies=         -422.986934

                     E (Thermal)             CV                S
                      KCal/Mol        Cal/Mol-Kelvin    Cal/Mol-Kelvin
 Total                  104.715             32.104             88.205
 Electronic               0.000              0.000              0.000
 Translational            0.889              2.981             40.409
 Rotational               0.889              2.981             28.583
 Vibrational            102.938             26.143             19.214
 Vibration     1          0.603              1.954              3.581
 Vibration     2          0.619              1.901              2.654
 Vibration     3          0.623              1.886              2.498
 Vibration     4          0.653              1.793              1.867
 Vibration     5          0.688              1.686              1.453
 Vibration     6          0.727              1.576              1.168
 Vibration     7          0.753              1.504              1.024
 Vibration     8          0.779              1.436              0.907
 Vibration     9          0.835              1.298              0.715
 Vibration    10          0.846              1.273              0.684

 Normal termination of Gaussian 09 at Tue Jan 28 11:59:09 2020.
