 Gaussian 09, Revision D.01,
 Gaussian 09:  ES64L-G09RevD.01 24-Apr-2013

 -----------------------------
 # b3lyp 6-31G(2df,p) opt Freq
 -----------------------------

 -----
 titel
 -----
 Symbolic Z-matrix:
 Charge =  0 Multiplicity = 1

 SCF Done:  E(RB3LYP) =  -423.150892957     A.U. after   14 cycles
 Optimization completed.
    -- Stationary point found.
 Normal termination of Gaussian 09 at Tue Jan 28 02:54:49 2020.

 ----------------------------------------------------------------------
 #N Geom=AllCheck Guess=TCheck SCRF=Check GenChk RB3LYP/6-31G(2df,p) Fr
 eq
 ----------------------------------------------------------------------

 Structure from the checkpoint file:  "/scratch/puck/g09_fea35087-0d15-4c51-997b-d37777b057ba/Gau-29314.chk"
 -----
 titel
 -----
 Charge =  0 Multiplicity = 1

                         Standard orientation:
 ---------------------------------------------------------------------
 Center     Atomic      Atomic             Coordinates (Angstroms)
 Number     Number       Type             X           Y           Z
 ---------------------------------------------------------------------
      1          6           0       -2.426067    0.689750   -0.579450
      2          6           0       -1.668040   -0.367246    0.219875
      3          8           0       -0.800604    0.295503    1.176493
      4          6           0        0.495798   -0.215717    1.033768
      5          6           0        1.673145    0.528485    0.269625
      6          8           0        1.151619    1.567516   -0.516984
      7          6           0        1.910868   -0.823407   -0.528062
      8          6           0        0.485343   -1.142422   -0.134141
      9          6           0       -0.733710   -1.194577   -0.655070
     10          1           0       -3.123619    0.220908   -1.281683
     11          1           0       -2.996909    1.330702    0.098534
     12          1           0       -1.716004    1.310174   -1.132489
     13          1           0       -2.385237   -0.980316    0.788425
     14          1           0        0.869483   -0.608577    1.989292
     15          1           0        2.513533    0.863265    0.892629
     16          1           0        1.838772    1.856070   -1.125794
     17          1           0        2.132363   -0.735387   -1.594080
     18          1           0        2.670282   -1.444404   -0.043209
     19          1           0       -1.034812   -1.565789   -1.626962
 ---------------------------------------------------------------------

 SCF Done:  E(RB3LYP) =  -423.150892957     A.U. after    1 cycles

 The electronic state is 1-A.
 Alpha  occ. eigenvalues --  -19.14388 -19.12911 -10.24088 -10.22938 -10.22292
 Alpha  occ. eigenvalues --  -10.19762 -10.18275 -10.17727 -10.16473  -1.03647
 Alpha  occ. eigenvalues --   -1.01885  -0.83950  -0.77169  -0.70899  -0.65635
 Alpha  occ. eigenvalues --   -0.61503  -0.56808  -0.54781  -0.50450  -0.47874
 Alpha  occ. eigenvalues --   -0.47296  -0.44629  -0.42209  -0.40875  -0.39280
 Alpha  occ. eigenvalues --   -0.37786  -0.36560  -0.36306  -0.32550  -0.32317
 Alpha  occ. eigenvalues --   -0.30377  -0.27307  -0.25312  -0.22281
 Alpha virt. eigenvalues --    0.00934   0.07113   0.10254   0.12370   0.13044
 Alpha virt. eigenvalues --    0.13629   0.14772   0.15632   0.16334   0.17392
 Alpha virt. eigenvalues --    0.17889   0.18791   0.19357   0.19913   0.23296

 Mulliken charges:
               1
     1  C   -0.387541
     2  C    0.102880
     3  O   -0.283706
     4  C    0.096075
     5  C    0.069740
     6  O   -0.414677
     7  C   -0.352072
     8  C    0.202436
     9  C   -0.228156
    10  H    0.104559
    11  H    0.122941
    12  H    0.135608
    13  H    0.080209
    14  H    0.076172
    15  H    0.068012
    16  H    0.287316
    17  H    0.108374
    18  H    0.112333
    19  H    0.099497
 Sum of Mulliken charges =   0.00000

 Dipole moment (field-independent basis, Debye):
    X=              1.8594    Y=             -0.6694    Z=             -1.4990  Tot=              2.4804
 Quadrupole moment (field-independent basis, Debye-Ang):
   XX=            -45.9276   YY=            -54.9394   ZZ=            -52.0190
   XY=              2.5571   XZ=              0.1270   YZ=             -1.9125

  Exact polarizability: 100.856   0.223  65.771   5.820   1.337  69.737
 Approx polarizability: 143.403   1.550  97.907  12.361   3.415 107.484

                      1                      2                      3
                      A                      A                      A
 Frequencies --     74.6450               149.6322               211.8372
 Red. masses --      3.7963                 3.1576                 4.0988
 Frc consts  --      0.0125                 0.0417                 0.1084
 IR Inten    --      2.7170                 0.1022                 1.9828

                      4                      5                      6
                      A                      A                      A
 Frequencies --    245.5198               269.1706               325.8134
 Red. masses --      1.1434                 1.0995                 2.6074
 Frc consts  --      0.0406                 0.0469                 0.1631
 IR Inten    --      1.2325               103.6019                 5.0906

                      7                      8                      9
                      A                      A                      A
 Frequencies --    338.1521               409.7658               478.9689
 Red. masses --      2.9970                 2.4710                 2.8686
 Frc consts  --      0.2019                 0.2445                 0.3877
 IR Inten    --      0.3035                 4.9236                 2.6662

                     10                     11                     12
                      A                      A                      A
 Frequencies --    526.8268               669.5826               716.3639
 Red. masses --      4.4316                 3.6480                 4.1626
 Frc consts  --      0.7247                 0.9636                 1.2586
 IR Inten    --      6.2336                 3.4211                 5.9315

                     13                     14                     15
                      A                      A                      A
 Frequencies --    773.9218               791.0667               824.2738
 Red. masses --      2.7066                 3.9582                 2.3851
 Frc consts  --      0.9551                 1.4594                 0.9548
 IR Inten    --      2.9450                11.8086                 9.9607

                     16                     17                     18
                      A                      A                      A
 Frequencies --    832.6600               854.0466               904.8139
 Red. masses --      2.3267                 1.9070                 2.0406
 Frc consts  --      0.9504                 0.8195                 0.9843
 IR Inten    --     25.7194                13.6897                 7.9635

                     19                     20                     21
                      A                      A                      A
 Frequencies --    959.0998               960.5392              1018.6637
 Red. masses --      2.5148                 3.2463                 2.2820
 Frc consts  --      1.3630                 1.7647                 1.3952
 IR Inten    --      5.6877                 6.5971                13.1293

                     22                     23                     24
                      A                      A                      A
 Frequencies --   1053.0600              1090.4538              1095.8594
 Red. masses --      1.4818                 1.6487                 1.6974
 Frc consts  --      0.9682                 1.1550                 1.2010
 IR Inten    --     19.6234                14.2603                15.9585

                     25                     26                     27
                      A                      A                      A
 Frequencies --   1117.0865              1137.9744              1142.4359
 Red. masses --      1.7189                 3.1839                 2.6176
 Frc consts  --      1.2638                 2.4292                 2.0129
 IR Inten    --     17.5666                69.4561                26.8240

                     28                     29                     30
                      A                      A                      A
 Frequencies --   1178.5352              1213.4174              1238.1506
 Red. masses --      1.8788                 1.2833                 1.4168
 Frc consts  --      1.5375                 1.1133                 1.2797
 IR Inten    --     42.4827                13.6392                 4.7364

                     31                     32                     33
                      A                      A                      A
 Frequencies --   1290.4971              1301.1529              1316.1358
 Red. masses --      1.2768                 1.6841                 1.5086
 Frc consts  --      1.2528                 1.6798                 1.5396
 IR Inten    --     26.2128                 1.7036                17.2360

                     34                     35                     36
                      A                      A                      A
 Frequencies --   1362.1795              1376.2280              1397.3275
 Red. masses --      1.3391                 1.4487                 1.2921
 Frc consts  --      1.4640                 1.6166                 1.4864
 IR Inten    --     21.7768                 5.4999                 5.5841

                     37                     38                     39
                      A                      A                      A
 Frequencies --   1406.3354              1470.4317              1483.3506
 Red. masses --      1.4316                 1.1209                 1.0496
 Frc consts  --      1.6682                 1.4279                 1.3608
 IR Inten    --      9.3071                 1.9849                 1.9470

                     40                     41                     42
                      A                      A                      A
 Frequencies --   1498.2536              1727.3377              2971.2654
 Red. masses --      1.0486                 8.7030                 1.0827
 Frc consts  --      1.3869                15.2993                 5.6316
 IR Inten    --      2.0072                 5.4893                75.7507

                     43                     44                     45
                      A                      A                      A
 Frequencies --   2999.4139              3013.0956              3037.4517
 Red. masses --      1.0843                 1.0852                 1.0347
 Frc consts  --      5.7477                 5.8046                 5.6245
 IR Inten    --     22.3027               124.4229                21.4021

                     46                     47                     48
                      A                      A                      A
 Frequencies --   3055.7985              3111.3258              3115.1544
 Red. masses --      1.0596                 1.1007                 1.1069
 Frc consts  --      5.8296                 6.2781                 6.3288
 IR Inten    --     53.1181                18.6182                18.8202

                     49                     50                     51
                      A                      A                      A
 Frequencies --   3128.7202              3208.9830              3818.2936
 Red. masses --      1.1031                 1.0955                 1.0662
 Frc consts  --      6.3619                 6.6464                 9.1590
 IR Inten    --     19.3286                 6.5338                25.4373

 - Thermochemistry -
 -------------------
 Temperature   298.150 Kelvin.  Pressure   1.00000 Atm.
 Atom     1 has atomic number  6 and mass  12.00000

 Molecular mass:   126.06808 amu.
 Principal axes and moments of inertia in atomic units:
                           1         2         3
     Eigenvalues --   625.694811229.724801368.79426
           X            0.99964  -0.01884   0.01892
           Y            0.01943   0.99932  -0.03124
           Z           -0.01832   0.03159   0.99933
 This molecule is an asymmetric top.
 Rotational symmetry number  1.
 Warning -- assumption of classical behavior for rotation
           may cause significant error
 Rotational temperatures (Kelvin)      0.13843     0.07043     0.06328
 Rotational constants (GHZ):           2.88438     1.46760     1.31849
 Zero-point vibrational energy     416845.2 (Joules/Mol)
                                   99.62838 (Kcal/Mol)
 Warning -- explicit consideration of  10 degrees of freedom as
           vibrations may cause significant error
 Vibrational temperatures:    107.40   215.29   304.79   353.25   387.28
          (Kelvin)            468.77   486.52   589.56   689.13   757.99
                              963.38  1030.69  1113.50  1138.17  1185.94
                             1198.01  1228.78  1301.82  1379.93  1382.00
                             1465.63  1515.12  1568.92  1576.70  1607.24
                             1637.29  1643.71  1695.65  1745.83  1781.42
                             1856.74  1872.07  1893.62  1959.87  1980.08
                             2010.44  2023.40  2115.62  2134.21  2155.65
                             2485.25  4274.98  4315.48  4335.17  4370.21
                             4396.61  4476.50  4482.01  4501.52  4617.01
                             5493.67

 Zero-point correction=                           0.158768 (Hartree/Particle)
 Thermal correction to Energy=                    0.167089
 Thermal correction to Enthalpy=                  0.168033
 Thermal correction to Gibbs Free Energy=         0.126016
 Sum of electronic and zero-point Energies=           -422.992125
 Sum of electronic and thermal Energies=              -422.983804
 Sum of electronic and thermal Enthalpies=            -422.982860
 Sum of electronic and thermal Free Energies=         -423.024876

                     E (Thermal)             CV                S
                      KCal/Mol        Cal/Mol-Kelvin    Cal/Mol-Kelvin
 Total                  104.850             32.243             88.431
 Electronic               0.000              0.000              0.000
 Translational            0.889              2.981             40.409
 Rotational               0.889              2.981             28.445
 Vibrational            103.072             26.281             19.577
 Vibration     1          0.599              1.966              4.027
 Vibration     2          0.618              1.903              2.677
 Vibration     3          0.643              1.823              2.028
 Vibration     4          0.660              1.770              1.763
 Vibration     5          0.674              1.730              1.602
 Vibration     6          0.710              1.624              1.281
 Vibration     7          0.718              1.599              1.221
 Vibration     8          0.774              1.449              0.927
 Vibration     9          0.835              1.297              0.713
 Vibration    10          0.882              1.191              0.594

 Optimization completed.
    -- Stationary point found.
 Normal termination of Gaussian 09 at Tue Jan 28 03:42:12 2020.
