 Gaussian 09, Revision D.01,
 Gaussian 09:  ES64L-G09RevD.01 24-Apr-2013

 -----------------------------
 # b3lyp 6-31G(2df,p) opt Freq
 -----------------------------

 -----
 titel
 -----
 Symbolic Z-matrix:
 Charge =  0 Multiplicity = 1

 SCF Done:  E(RB3LYP) =  -423.177156245     A.U. after   13 cycles
 Optimization completed.
    -- Stationary point found.
 Normal termination of Gaussian 09 at Mon Jan 27 23:06:42 2020.

 ----------------------------------------------------------------------
 #N Geom=AllCheck Guess=TCheck SCRF=Check GenChk RB3LYP/6-31G(2df,p) Fr
 eq
 ----------------------------------------------------------------------

 Structure from the checkpoint file:  "/scratch/puck/g09_77612237-2e18-40c8-8136-60a64187d8e5/Gau-67600.chk"
 -----
 titel
 -----
 Charge =  0 Multiplicity = 1

                         Standard orientation:
 ---------------------------------------------------------------------
 Center     Atomic      Atomic             Coordinates (Angstroms)
 Number     Number       Type             X           Y           Z
 ---------------------------------------------------------------------
      1          8           0        2.497387   -0.088744   -0.638339
      2          6           0        1.090246    0.000536   -0.598580
      3          6           0        0.522563    1.029698    0.407874
      4          6           0       -0.818113    1.638061    0.026452
      5          6           0       -1.885521    0.668357   -0.416973
      6          6           0       -1.884233   -0.667305   -0.420926
      7          6           0       -0.813618   -1.636605    0.013662
      8          6           0        0.524804   -1.026463    0.396350
      9          8           0        0.364427   -0.002351    1.411085
     10          1           0        2.833835    0.669470   -1.126893
     11          1           0        0.651545    0.008631   -1.604012
     12          1           0        1.234434    1.798462    0.731518
     13          1           0       -1.200214    2.208033    0.885796
     14          1           0       -0.653461    2.383119   -0.767080
     15          1           0       -2.793890    1.157128   -0.765971
     16          1           0       -2.791755   -1.155316   -0.773169
     17          1           0       -1.190880   -2.212741    0.870904
     18          1           0       -0.646605   -2.375184   -0.784600
     19          1           0        1.245719   -1.790524    0.704386
 ---------------------------------------------------------------------

 SCF Done:  E(RB3LYP) =  -423.177156245     A.U. after    1 cycles

 The electronic state is 1-A.
 Alpha  occ. eigenvalues --  -19.14204 -19.12400 -10.23113 -10.22826 -10.22766
 Alpha  occ. eigenvalues --  -10.18881 -10.18713 -10.18313 -10.18224  -1.04552
 Alpha  occ. eigenvalues --   -1.01118  -0.80493  -0.77085  -0.72671  -0.66407
 Alpha  occ. eigenvalues --   -0.64391  -0.53897  -0.53370  -0.50876  -0.48629
 Alpha  occ. eigenvalues --   -0.47983  -0.45943  -0.42464  -0.41474  -0.40792
 Alpha  occ. eigenvalues --   -0.38415  -0.37260  -0.36478  -0.33592  -0.32171
 Alpha  occ. eigenvalues --   -0.29638  -0.26527  -0.24972  -0.23758
 Alpha virt. eigenvalues --    0.02716   0.07335   0.08832   0.11191   0.11401
 Alpha virt. eigenvalues --    0.13169   0.14430   0.15422   0.16349   0.17075
 Alpha virt. eigenvalues --    0.17544   0.18536   0.20407   0.20903   0.22552

 Mulliken charges:
               1
     1  O   -0.440586
     2  C    0.087852
     3  C    0.057781
     4  C   -0.266982
     5  C   -0.049403
     6  C   -0.047537
     7  C   -0.270728
     8  C    0.089278
     9  O   -0.298470
    10  H    0.282877
    11  H    0.075195
    12  H    0.071674
    13  H    0.121538
    14  H    0.101076
    15  H    0.084591
    16  H    0.085104
    17  H    0.121674
    18  H    0.108578
    19  H    0.086487
 Sum of Mulliken charges =   0.00000

 Dipole moment (field-independent basis, Debye):
    X=             -0.4815    Y=              1.0478    Z=             -2.0855  Tot=              2.3831
 Quadrupole moment (field-independent basis, Debye-Ang):
   XX=            -53.4928   YY=            -47.5984   ZZ=            -55.6656
   XY=              3.6456   XZ=             -1.9589   YZ=             -1.5442

  Exact polarizability:  79.341   1.170  89.664   2.225  -0.710  58.961
 Approx polarizability: 104.455   0.809 138.078   2.179  -1.371  94.158

                      1                      2                      3
                      A                      A                      A
 Frequencies --    139.3778               206.0204               244.7554
 Red. masses --      2.6366                 2.3479                 1.9163
 Frc consts  --      0.0302                 0.0587                 0.0676
 IR Inten    --      0.7921                 8.6786                27.7214

                      4                      5                      6
                      A                      A                      A
 Frequencies --    281.9859               317.9338               340.6380
 Red. masses --      1.6208                 2.9966                 4.2323
 Frc consts  --      0.0759                 0.1785                 0.2893
 IR Inten    --     62.0479                 4.6584                 5.0272

                      7                      8                      9
                      A                      A                      A
 Frequencies --    397.6599               402.4586               455.2275
 Red. masses --      2.1007                 5.4159                 5.5717
 Frc consts  --      0.1957                 0.5168                 0.6803
 IR Inten    --      0.2510                11.3097                 1.1419

                     10                     11                     12
                      A                      A                      A
 Frequencies --    635.3782               683.0798               805.5802
 Red. masses --      2.4606                 1.5594                 4.2363
 Frc consts  --      0.5853                 0.4287                 1.6198
 IR Inten    --      3.2186                22.2693                 9.0182

                     13                     14                     15
                      A                      A                      A
 Frequencies --    817.3469               853.0342               869.8452
 Red. masses --      3.1215                 3.1823                 2.6878
 Frc consts  --      1.2286                 1.3644                 1.1982
 IR Inten    --      2.5675                 2.2501                 2.8765

                     16                     17                     18
                      A                      A                      A
 Frequencies --    876.6530               926.8217               984.9130
 Red. masses --      2.9185                 3.1326                 2.1772
 Frc consts  --      1.3215                 1.5854                 1.2443
 IR Inten    --     24.6860                32.3299                20.8277

                     19                     20                     21
                      A                      A                      A
 Frequencies --    991.0884              1006.6862              1018.6380
 Red. masses --      2.1544                 2.0789                 1.6302
 Frc consts  --      1.2468                 1.2413                 0.9966
 IR Inten    --     11.0604                31.6845                15.9357

                     22                     23                     24
                      A                      A                      A
 Frequencies --   1028.0205              1068.5879              1105.9029
 Red. masses --      2.2342                 1.6733                 2.3400
 Frc consts  --      1.3911                 1.1258                 1.6862
 IR Inten    --     14.8767                 2.9902                47.0870

                     25                     26                     27
                      A                      A                      A
 Frequencies --   1123.6688              1176.0839              1198.2947
 Red. masses --      3.9623                 1.1616                 1.1415
 Frc consts  --      2.9477                 0.9466                 0.9657
 IR Inten    --     35.2230                 6.8962                 9.4391

                     28                     29                     30
                      A                      A                      A
 Frequencies --   1213.2331              1236.3810              1277.0904
 Red. masses --      1.1625                 1.1819                 1.3469
 Frc consts  --      1.0082                 1.0645                 1.2943
 IR Inten    --     21.3697                 0.1984                 2.0936

                     31                     32                     33
                      A                      A                      A
 Frequencies --   1299.5345              1320.0646              1336.9229
 Red. masses --      1.2931                 1.5656                 1.5349
 Frc consts  --      1.2867                 1.6074                 1.6164
 IR Inten    --     20.5249                11.5112                13.3160

                     34                     35                     36
                      A                      A                      A
 Frequencies --   1356.9826              1374.2328              1395.7234
 Red. masses --      1.5396                 1.6131                 1.5432
 Frc consts  --      1.6703                 1.7949                 1.7712
 IR Inten    --      4.1186                 3.8159                 0.1884

                     37                     38                     39
                      A                      A                      A
 Frequencies --   1432.4835              1445.6389              1451.7996
 Red. masses --      1.4206                 1.4789                 1.0893
 Frc consts  --      1.7175                 1.8210                 1.3527
 IR Inten    --      3.4455                 3.2033                 6.7865

                     40                     41                     42
                      A                      A                      A
 Frequencies --   1452.6286              1728.4623              2994.5018
 Red. masses --      1.1726                 6.8371                 1.0616
 Frc consts  --      1.4579                12.0348                 5.6087
 IR Inten    --      2.9241                 2.2342                22.3186

                     43                     44                     45
                      A                      A                      A
 Frequencies --   3000.3912              3023.1893              3026.1171
 Red. masses --      1.0604                 1.0971                 1.0893
 Frc consts  --      5.6244                 5.9080                 5.8771
 IR Inten    --     24.6021                10.9741                22.1616

                     46                     47                     48
                      A                      A                      A
 Frequencies --   3028.8794              3038.1788              3063.7108
 Red. masses --      1.0963                 1.0861                 1.0875
 Frc consts  --      5.9260                 5.9065                 6.0141
 IR Inten    --     46.9145                64.2202                40.4197

                     49                     50                     51
                      A                      A                      A
 Frequencies --   3123.4218              3147.7078              3813.6821
 Red. masses --      1.0826                 1.0935                 1.0662
 Frc consts  --      6.2226                 6.3835                 9.1361
 IR Inten    --      6.5606                40.6384                20.6620

 - Thermochemistry -
 -------------------
 Temperature   298.150 Kelvin.  Pressure   1.00000 Atm.
 Atom     1 has atomic number  8 and mass  15.99491

 Molecular mass:   126.06808 amu.
 Principal axes and moments of inertia in atomic units:
                           1         2         3
     Eigenvalues --   682.035531123.362301379.85624
           X            0.99988   0.01475   0.00404
           Y           -0.01471   0.99985  -0.00897
           Z           -0.00417   0.00891   0.99995
 This molecule is an asymmetric top.
 Rotational symmetry number  1.
 Warning -- assumption of classical behavior for rotation
           may cause significant error
 Rotational temperatures (Kelvin)      0.12699     0.07710     0.06277
 Rotational constants (GHZ):           2.64611     1.60655     1.30792
 Zero-point vibrational energy     421902.8 (Joules/Mol)
                                  100.83719 (Kcal/Mol)
 Warning -- explicit consideration of   9 degrees of freedom as
           vibrations may cause significant error
 Vibrational temperatures:    200.53   296.42   352.15   405.71   457.44
          (Kelvin)            490.10   572.14   579.05   654.97   914.17
                              982.80  1159.05  1175.98  1227.32  1251.51
                             1261.31  1333.49  1417.07  1425.95  1448.40
                             1465.59  1479.09  1537.46  1591.15  1616.71
                             1692.12  1724.08  1745.57  1778.87  1837.45
                             1869.74  1899.28  1923.53  1952.39  1977.21
                             2008.13  2061.02  2079.95  2088.81  2090.01
                             2486.87  4308.41  4316.89  4349.69  4353.90
                             4357.88  4371.26  4407.99  4493.90  4528.84
                             5487.03

 Zero-point correction=                           0.160694 (Hartree/Particle)
 Thermal correction to Energy=                    0.168385
 Thermal correction to Enthalpy=                  0.169330
 Thermal correction to Gibbs Free Energy=         0.128929
 Sum of electronic and zero-point Energies=           -423.016462
 Sum of electronic and thermal Energies=              -423.008771
 Sum of electronic and thermal Enthalpies=            -423.007827
 Sum of electronic and thermal Free Energies=         -423.048228

                     E (Thermal)             CV                S
                      KCal/Mol        Cal/Mol-Kelvin    Cal/Mol-Kelvin
 Total                  105.663             30.723             85.031
 Electronic               0.000              0.000              0.000
 Translational            0.889              2.981             40.409
 Rotational               0.889              2.981             28.449
 Vibrational            103.886             24.762             16.173
 Vibration     1          0.615              1.914              2.812
 Vibration     2          0.641              1.831              2.079
 Vibration     3          0.660              1.771              1.768
 Vibration     4          0.681              1.707              1.522
 Vibration     5          0.704              1.639              1.321
 Vibration     6          0.720              1.594              1.209
 Vibration     7          0.764              1.475              0.971
 Vibration     8          0.768              1.465              0.954
 Vibration     9          0.814              1.349              0.780

 Normal termination of Gaussian 09 at Mon Jan 27 23:50:54 2020.
