 Gaussian 09, Revision D.01,
 Gaussian 09:  ES64L-G09RevD.01 24-Apr-2013

 -----------------------------
 # b3lyp 6-31G(2df,p) opt Freq
 -----------------------------

 -----
 titel
 -----
 Symbolic Z-matrix:
 Charge =  0 Multiplicity = 1

 SCF Done:  E(RB3LYP) =  -423.190499175     A.U. after   14 cycles
 Optimization completed.
    -- Stationary point found.
 Normal termination of Gaussian 09 at Mon Jan 27 13:21:41 2020.

 ----------------------------------------------------------------------
 #N Geom=AllCheck Guess=TCheck SCRF=Check GenChk RB3LYP/6-31G(2df,p) Fr
 eq
 ----------------------------------------------------------------------

 Structure from the checkpoint file:  "/scratch/puck/g09_eeaf70fb-3877-4b99-ab2b-4f6124e0d014/Gau-168500.chk"
 -----
 titel
 -----
 Charge =  0 Multiplicity = 1

                         Standard orientation:
 ---------------------------------------------------------------------
 Center     Atomic      Atomic             Coordinates (Angstroms)
 Number     Number       Type             X           Y           Z
 ---------------------------------------------------------------------
      1          8           0       -2.911984   -0.568243    0.509323
      2          6           0       -2.366773    0.038796   -0.378527
      3          6           0       -0.882357    0.098288   -0.604669
      4          6           0       -0.249859    1.495787   -0.277072
      5          6           0        0.696853    0.811557    0.747785
      6          6           0        2.137840    0.588119    0.273813
      7          8           0        2.086187   -0.508029   -0.633486
      8          6           0        1.154184   -1.431088   -0.077470
      9          6           0        0.013082   -0.572618    0.465111
     10          1           0       -2.961331    0.645197   -1.101687
     11          1           0       -0.674911   -0.217033   -1.633926
     12          1           0        0.247292    1.984641   -1.118163
     13          1           0       -0.951702    2.203174    0.172707
     14          1           0        0.646233    1.204507    1.764004
     15          1           0        2.570686    1.440981   -0.257266
     16          1           0        2.785134    0.346852    1.133170
     17          1           0        0.856904   -2.123951   -0.870072
     18          1           0        1.620557   -2.009534    0.737067
     19          1           0       -0.550309   -1.037702    1.273642
 ---------------------------------------------------------------------

 SCF Done:  E(RB3LYP) =  -423.190499175     A.U. after    1 cycles

 The electronic state is 1-A.
 Alpha  occ. eigenvalues --  -19.14144 -19.14028 -10.27127 -10.22892 -10.22789
 Alpha  occ. eigenvalues --  -10.19946 -10.19774 -10.19552 -10.19071  -1.04767
 Alpha  occ. eigenvalues --   -1.03803  -0.85447  -0.74573  -0.71954  -0.66385
 Alpha  occ. eigenvalues --   -0.60958  -0.57689  -0.53666  -0.51631  -0.48600
 Alpha  occ. eigenvalues --   -0.46908  -0.45932  -0.44369  -0.43300  -0.41621
 Alpha  occ. eigenvalues --   -0.39110  -0.37987  -0.35092  -0.34090  -0.32097
 Alpha  occ. eigenvalues --   -0.31168  -0.30590  -0.25744  -0.25151
 Alpha virt. eigenvalues --   -0.02235   0.07755   0.09174   0.11424   0.11545
 Alpha virt. eigenvalues --    0.13008   0.13655   0.13888   0.14366   0.15866
 Alpha virt. eigenvalues --    0.16806   0.18828   0.19280   0.19715   0.22827

 Mulliken charges:
               1
     1  O   -0.244716
     2  C    0.135428
     3  C   -0.078153
     4  C   -0.258744
     5  C   -0.026815
     6  C   -0.091986
     7  O   -0.249583
     8  C   -0.111633
     9  C   -0.043484
    10  H    0.075587
    11  H    0.098207
    12  H    0.111834
    13  H    0.109414
    14  H    0.078783
    15  H    0.108082
    16  H    0.089682
    17  H    0.109765
    18  H    0.091253
    19  H    0.097077
 Sum of Mulliken charges =   0.00000

 Dipole moment (field-independent basis, Debye):
    X=              0.8887    Y=              1.3840    Z=             -0.3559  Tot=              1.6828
 Quadrupole moment (field-independent basis, Debye-Ang):
   XX=            -62.6275   YY=            -50.9900   ZZ=            -52.6563
   XY=             -1.5514   XZ=              6.8047   YZ=              0.3508

  Exact polarizability:  85.443   1.541  74.063   3.113  -3.456  66.866
 Approx polarizability: 112.186   6.658 109.004  -2.903  -7.539 108.759

                      1                      2                      3
                      A                      A                      A
 Frequencies --     41.5832                96.3962               178.6743
 Red. masses --      4.0048                 2.9432                 5.1842
 Frc consts  --      0.0041                 0.0161                 0.0975
 IR Inten    --      3.2886                 3.9979                12.8320

                      4                      5                      6
                      A                      A                      A
 Frequencies --    218.2776               256.8696               371.1415
 Red. masses --      3.7479                 2.6519                 1.9049
 Frc consts  --      0.1052                 0.1031                 0.1546
 IR Inten    --      2.6202                 0.3104                 1.3873

                      7                      8                      9
                      A                      A                      A
 Frequencies --    395.9344               592.9575               638.8620
 Red. masses --      1.8368                 3.9652                 4.9229
 Frc consts  --      0.1697                 0.8214                 1.1838
 IR Inten    --      0.9266                 5.8043                 8.6270

                     10                     11                     12
                      A                      A                      A
 Frequencies --    709.8536               762.4286               787.3824
 Red. masses --      4.2997                 3.2654                 2.1903
 Frc consts  --      1.2765                 1.1184                 0.8001
 IR Inten    --      4.1324                10.1344                 5.9715

                     13                     14                     15
                      A                      A                      A
 Frequencies --    858.3965               869.1142               897.0816
 Red. masses --      2.2664                 2.2160                 1.8112
 Frc consts  --      0.9839                 0.9862                 0.8588
 IR Inten    --      0.9366                 2.1104                 2.9822

                     16                     17                     18
                      A                      A                      A
 Frequencies --    935.0244               949.8816               974.6160
 Red. masses --      3.0788                 2.3928                 1.6437
 Frc consts  --      1.5859                 1.2720                 0.9199
 IR Inten    --     15.0701                12.6234                 0.4388

                     19                     20                     21
                      A                      A                      A
 Frequencies --    999.8157              1018.1833              1043.8530
 Red. masses --      2.0409                 1.8822                 1.9972
 Frc consts  --      1.2020                 1.1496                 1.2822
 IR Inten    --      9.1359                23.9787                 6.3213

                     22                     23                     24
                      A                      A                      A
 Frequencies --   1100.1534              1109.1362              1124.1458
 Red. masses --      1.9113                 4.3706                 2.1120
 Frc consts  --      1.3630                 3.1678                 1.5725
 IR Inten    --      6.5672                55.7185                 6.7061

                     25                     26                     27
                      A                      A                      A
 Frequencies --   1165.9488              1177.6043              1203.1122
 Red. masses --      1.4751                 2.0092                 1.1149
 Frc consts  --      1.1815                 1.6416                 0.9508
 IR Inten    --      1.0551                 7.1012                10.4576

                     28                     29                     30
                      A                      A                      A
 Frequencies --   1226.6982              1249.8744              1264.0419
 Red. masses --      1.3517                 1.4025                 1.4101
 Frc consts  --      1.1984                 1.2909                 1.3275
 IR Inten    --      5.3590                 7.9270                 1.3697

                     31                     32                     33
                      A                      A                      A
 Frequencies --   1272.3929              1290.2053              1330.7909
 Red. masses --      1.4164                 1.2576                 1.5572
 Frc consts  --      1.3510                 1.2334                 1.6249
 IR Inten    --      5.7789                 1.1083                 0.3601

                     34                     35                     36
                      A                      A                      A
 Frequencies --   1350.1395              1362.5637              1399.3260
 Red. masses --      1.2753                 1.9521                 1.3446
 Frc consts  --      1.3697                 2.1354                 1.5512
 IR Inten    --      0.7526                 3.1438                14.7388

                     37                     38                     39
                      A                      A                      A
 Frequencies --   1421.8201              1479.3281              1500.3949
 Red. masses --      1.2084                 1.1054                 1.0842
 Frc consts  --      1.4392                 1.4253                 1.4380
 IR Inten    --      8.4397                 1.9062                 0.1041

                     40                     41                     42
                      A                      A                      A
 Frequencies --   1513.9582              1820.9615              2857.4010
 Red. masses --      1.1037                10.4075                 1.0821
 Frc consts  --      1.4905                20.3328                 5.2055
 IR Inten    --      1.3906               163.0161               137.4276

                     43                     44                     45
                      A                      A                      A
 Frequencies --   2966.4066              2972.8544              3044.3382
 Red. masses --      1.0701                 1.0714                 1.0832
 Frc consts  --      5.5478                 5.5787                 5.9148
 IR Inten    --     41.4381               101.1585                12.4121

                     46                     47                     48
                      A                      A                      A
 Frequencies --   3057.4408              3083.6290              3087.1806
 Red. masses --      1.0591                 1.0916                 1.0939
 Frc consts  --      5.8329                 6.1157                 6.1428
 IR Inten    --     28.6465                37.7084                22.2876

                     49                     50                     51
                      A                      A                      A
 Frequencies --   3098.5965              3114.4311              3124.8380
 Red. masses --      1.0906                 1.1053                 1.0876
 Frc consts  --      6.1694                 6.3166                 6.2573
 IR Inten    --     14.5474                22.9704                12.6431

 - Thermochemistry -
 -------------------
 Temperature   298.150 Kelvin.  Pressure   1.00000 Atm.
 Atom     1 has atomic number  8 and mass  15.99491

 Molecular mass:   126.06808 amu.
 Principal axes and moments of inertia in atomic units:
                           1         2         3
     Eigenvalues --   499.418031530.190091741.41570
           X            0.99975  -0.00765   0.02093
           Y            0.00802   0.99981  -0.01760
           Z           -0.02079   0.01777   0.99963
 This molecule is an asymmetric top.
 Rotational symmetry number  1.
 Warning -- assumption of classical behavior for rotation
           may cause significant error
 Rotational temperatures (Kelvin)      0.17343     0.05660     0.04974
 Rotational constants (GHZ):           3.61369     1.17942     1.03636
 Zero-point vibrational energy     420882.4 (Joules/Mol)
                                  100.59330 (Kcal/Mol)
 Warning -- explicit consideration of   8 degrees of freedom as
           vibrations may cause significant error
 Vibrational temperatures:     59.83   138.69   257.07   314.05   369.58
          (Kelvin)            533.99   569.66   853.13   919.18  1021.32
                             1096.96  1132.87  1235.04  1250.46  1290.70
                             1345.29  1366.67  1402.25  1438.51  1464.94
                             1501.87  1582.87  1595.80  1617.39  1677.54
                             1694.31  1731.01  1764.94  1798.29  1818.67
                             1830.69  1856.32  1914.71  1942.55  1960.42
                             2013.32  2045.68  2128.42  2158.73  2178.25
                             2619.95  4111.16  4267.99  4277.27  4380.12
                             4398.97  4436.65  4441.76  4458.18  4480.97
                             4495.94

 Zero-point correction=                           0.160306 (Hartree/Particle)
 Thermal correction to Energy=                    0.168236
 Thermal correction to Enthalpy=                  0.169180
 Thermal correction to Gibbs Free Energy=         0.126835
 Sum of electronic and zero-point Energies=           -423.030194
 Sum of electronic and thermal Energies=              -423.022263
 Sum of electronic and thermal Enthalpies=            -423.021319
 Sum of electronic and thermal Free Energies=         -423.063665

                     E (Thermal)             CV                S
                      KCal/Mol        Cal/Mol-Kelvin    Cal/Mol-Kelvin
 Total                  105.570             29.643             89.124
 Electronic               0.000              0.000              0.000
 Translational            0.889              2.981             40.409
 Rotational               0.889              2.981             28.678
 Vibrational            103.792             23.681             20.038
 Vibration     1          0.594              1.981              5.182
 Vibration     2          0.603              1.952              3.526
 Vibration     3          0.629              1.869              2.342
 Vibration     4          0.646              1.813              1.973
 Vibration     5          0.666              1.751              1.683
 Vibration     6          0.743              1.531              1.075
 Vibration     7          0.763              1.479              0.978
 Vibration     8          0.951              1.047              0.462

 Optimization completed.
    -- Stationary point found.
 Normal termination of Gaussian 09 at Mon Jan 27 14:08:30 2020.
