 Gaussian 09, Revision D.01,
 Gaussian 09:  ES64L-G09RevD.01 24-Apr-2013

 -----------------------------
 # b3lyp 6-31G(2df,p) opt Freq
 -----------------------------

 -----
 titel
 -----
 Symbolic Z-matrix:
 Charge =  0 Multiplicity = 1

 SCF Done:  E(RB3LYP) =  -423.158030518     A.U. after   14 cycles
 Optimization completed.
    -- Stationary point found.
 Normal termination of Gaussian 09 at Tue Jan 28 08:09:57 2020.

 ----------------------------------------------------------------------
 #N Geom=AllCheck Guess=TCheck SCRF=Check GenChk RB3LYP/6-31G(2df,p) Fr
 eq
 ----------------------------------------------------------------------

 Structure from the checkpoint file:  "/scratch/puck/g09_90bfe9f1-93d0-4624-8af7-6a1708454527/Gau-127721.chk"
 -----
 titel
 -----
 Charge =  0 Multiplicity = 1

                         Standard orientation:
 ---------------------------------------------------------------------
 Center     Atomic      Atomic             Coordinates (Angstroms)
 Number     Number       Type             X           Y           Z
 ---------------------------------------------------------------------
      1          6           0        2.638793   -0.519223    0.652938
      2          6           0        1.602925   -0.269914   -0.451978
      3          8           0        1.195574    1.107365   -0.450061
      4          6           0        0.050019    1.447564    0.327898
      5          6           0       -1.119586    0.720906   -0.326743
      6          8           0       -2.312981    0.411776    0.446964
      7          6           0       -2.173246   -1.011676    0.157107
      8          6           0       -0.786050   -0.739389   -0.365660
      9          6           0        0.440302   -1.233000   -0.336607
     10          1           0        3.038507   -1.536489    0.585384
     11          1           0        3.465945    0.187467    0.550324
     12          1           0        2.193965   -0.395608    1.645196
     13          1           0        2.100562   -0.392922   -1.423253
     14          1           0        0.137168    1.133167    1.377347
     15          1           0       -0.019894    2.537578    0.287667
     16          1           0       -1.385624    1.192761   -1.281651
     17          1           0       -2.259625   -1.635195    1.054161
     18          1           0       -2.913887   -1.340227   -0.585263
     19          1           0        0.663195   -2.275271   -0.126869
 ---------------------------------------------------------------------

 SCF Done:  E(RB3LYP) =  -423.158030518     A.U. after    1 cycles

 The electronic state is 1-A.
 Alpha  occ. eigenvalues --  -19.14187 -19.13826 -10.24199 -10.23990 -10.23044
 Alpha  occ. eigenvalues --  -10.22845 -10.19265 -10.18772 -10.17927  -1.04312
 Alpha  occ. eigenvalues --   -1.02660  -0.80036  -0.77126  -0.71807  -0.67679
 Alpha  occ. eigenvalues --   -0.63441  -0.58955  -0.53313  -0.50172  -0.49312
 Alpha  occ. eigenvalues --   -0.47427  -0.46466  -0.42554  -0.42129  -0.40999
 Alpha  occ. eigenvalues --   -0.38759  -0.38300  -0.36468  -0.35571  -0.32057
 Alpha  occ. eigenvalues --   -0.29700  -0.27505  -0.25297  -0.24058
 Alpha virt. eigenvalues --    0.00700   0.07197   0.09609   0.11713   0.12366
 Alpha virt. eigenvalues --    0.13403   0.14256   0.14930   0.16112   0.16627
 Alpha virt. eigenvalues --    0.17587   0.18130   0.19274   0.19814   0.21940

 Mulliken charges:
               1
     1  C   -0.392050
     2  C    0.105213
     3  O   -0.274638
     4  C   -0.130255
     5  C    0.086191
     6  O   -0.306856
     7  C   -0.156659
     8  C    0.220508
     9  C   -0.240864
    10  H    0.114558
    11  H    0.127200
    12  H    0.122339
    13  H    0.100185
    14  H    0.099114
    15  H    0.109997
    16  H    0.088654
    17  H    0.119513
    18  H    0.109706
    19  H    0.098144
 Sum of Mulliken charges =   0.00000

 Dipole moment (field-independent basis, Debye):
    X=              0.7415    Y=             -1.6725    Z=              0.0231  Tot=              1.8296
 Quadrupole moment (field-independent basis, Debye-Ang):
   XX=            -55.2900   YY=            -51.0244   ZZ=            -53.6647
   XY=              0.4232   XZ=              2.1678   YZ=             -0.1627

  Exact polarizability:  97.496  -2.262  77.283   0.232  -1.327  59.962
 Approx polarizability: 135.708  -8.364 114.436  -3.697  -1.909  92.957

                      1                      2                      3
                      A                      A                      A
 Frequencies --     95.7407               181.6897               222.9264
 Red. masses --      3.7986                 2.2739                 2.9277
 Frc consts  --      0.0205                 0.0442                 0.0857
 IR Inten    --      0.2176                 0.5980                 7.2528

                      4                      5                      6
                      A                      A                      A
 Frequencies --    232.8464               308.2177               352.3481
 Red. masses --      1.1116                 2.7177                 3.8531
 Frc consts  --      0.0355                 0.1521                 0.2818
 IR Inten    --      0.1621                 0.3466                 9.8230

                      7                      8                      9
                      A                      A                      A
 Frequencies --    399.2955               463.8660               473.8243
 Red. masses --      2.6665                 3.7892                 5.8032
 Frc consts  --      0.2505                 0.4804                 0.7676
 IR Inten    --      1.7858                 0.7764                 1.2571

                     10                     11                     12
                      A                      A                      A
 Frequencies --    537.3683               694.0940               776.9586
 Red. masses --      3.0636                 2.4149                 3.8509
 Frc consts  --      0.5212                 0.6855                 1.3696
 IR Inten    --      6.8485                 5.6548                 3.9160

                     13                     14                     15
                      A                      A                      A
 Frequencies --    808.8029               832.8820               859.9119
 Red. masses --      4.3797                 1.5865                 1.9705
 Frc consts  --      1.6880                 0.6484                 0.8585
 IR Inten    --      9.6367                20.9297                 7.3594

                     16                     17                     18
                      A                      A                      A
 Frequencies --    923.9873               959.7120               975.5663
 Red. masses --      2.1712                 2.7275                 4.5929
 Frc consts  --      1.0921                 1.4801                 2.5754
 IR Inten    --      6.5138                14.1835                62.2305

                     19                     20                     21
                      A                      A                      A
 Frequencies --    987.2267              1017.8871              1055.4992
 Red. masses --      2.4118                 2.0302                 3.2129
 Frc consts  --      1.3849                 1.2393                 2.1089
 IR Inten    --     24.0618                 4.0290                58.4400

                     22                     23                     24
                      A                      A                      A
 Frequencies --   1065.8313              1097.4191              1123.9422
 Red. masses --      1.8665                 1.9186                 2.7307
 Frc consts  --      1.2493                 1.3614                 2.0324
 IR Inten    --     16.4142                 3.2333                 3.7818

                     25                     26                     27
                      A                      A                      A
 Frequencies --   1137.1827              1138.7715              1165.3245
 Red. masses --      2.4837                 1.1722                 2.8612
 Frc consts  --      1.8924                 0.8956                 2.2892
 IR Inten    --     10.6235                 0.4342                33.8619

                     28                     29                     30
                      A                      A                      A
 Frequencies --   1238.7698              1255.7463              1297.8946
 Red. masses --      1.4387                 1.1998                 1.3587
 Frc consts  --      1.3008                 1.1147                 1.3485
 IR Inten    --      8.7107                10.6597                 5.3045

                     31                     32                     33
                      A                      A                      A
 Frequencies --   1326.0626              1338.6050              1355.3253
 Red. masses --      1.3270                 1.4674                 1.2893
 Frc consts  --      1.3748                 1.5492                 1.3954
 IR Inten    --      0.2478                25.2758                 5.6397

                     34                     35                     36
                      A                      A                      A
 Frequencies --   1376.3635              1387.9862              1399.9578
 Red. masses --      1.6649                 1.3558                 1.2439
 Frc consts  --      1.8582                 1.5389                 1.4364
 IR Inten    --      0.7888                 3.8830                 3.2696

                     37                     38                     39
                      A                      A                      A
 Frequencies --   1486.5037              1494.2348              1503.1996
 Red. masses --      1.0514                 1.0514                 1.0862
 Frc consts  --      1.3688                 1.3831                 1.4461
 IR Inten    --      1.7776                 1.7066                 3.3199

                     40                     41                     42
                      A                      A                      A
 Frequencies --   1510.6401              1788.1773              3002.1571
 Red. masses --      1.1074                 9.3259                 1.0622
 Frc consts  --      1.4890                17.5695                 5.6403
 IR Inten    --      0.9183                 4.7866                74.4340

                     43                     44                     45
                      A                      A                      A
 Frequencies --   3007.8256              3014.5216              3021.2899
 Red. masses --      1.0674                 1.0833                 1.0805
 Frc consts  --      5.6898                 5.8000                 5.8112
 IR Inten    --     33.4157                22.0660                53.3420

                     46                     47                     48
                      A                      A                      A
 Frequencies --   3038.8073              3061.7909              3097.8013
 Red. masses --      1.0351                 1.1025                 1.0996
 Frc consts  --      5.6315                 6.0895                 6.2171
 IR Inten    --     18.6738                31.5975                41.6710

                     49                     50                     51
                      A                      A                      A
 Frequencies --   3108.7118              3125.9828              3168.9376
 Red. masses --      1.1011                 1.1025                 1.0917
 Frc consts  --      6.2694                 6.3473                 6.4592
 IR Inten    --     22.4656                21.4046                11.8064

 - Thermochemistry -
 -------------------
 Temperature   298.150 Kelvin.  Pressure   1.00000 Atm.
 Atom     1 has atomic number  6 and mass  12.00000

 Molecular mass:   126.06808 amu.
 Principal axes and moments of inertia in atomic units:
                           1         2         3
     Eigenvalues --   524.131501361.570351669.66020
           X            0.99984  -0.00513   0.01729
           Y            0.00530   0.99994  -0.00967
           Z           -0.01724   0.00976   0.99980
 This molecule is an asymmetric top.
 Rotational symmetry number  1.
 Warning -- assumption of classical behavior for rotation
           may cause significant error
 Rotational temperatures (Kelvin)      0.16525     0.06361     0.05188
 Rotational constants (GHZ):           3.44330     1.32549     1.08090
 Zero-point vibrational energy     420465.9 (Joules/Mol)
                                  100.49377 (Kcal/Mol)
 Warning -- explicit consideration of  10 degrees of freedom as
           vibrations may cause significant error
 Vibrational temperatures:    137.75   261.41   320.74   335.01   443.46
          (Kelvin)            506.95   574.50   667.40   681.73   773.15
                              998.65  1117.87  1163.69  1198.33  1237.22
                             1329.41  1380.81  1403.62  1420.40  1464.51
                             1518.63  1533.49  1578.94  1617.10  1636.15
                             1638.44  1676.64  1782.31  1806.74  1867.38
                             1907.91  1925.95  1950.01  1980.28  1997.00
                             2014.22  2138.74  2149.87  2162.77  2173.47
                             2572.79  4319.43  4327.58  4337.22  4346.96
                             4372.16  4405.23  4457.04  4472.74  4497.59
                             4559.39

 Zero-point correction=                           0.160147 (Hartree/Particle)
 Thermal correction to Energy=                    0.168017
 Thermal correction to Enthalpy=                  0.168961
 Thermal correction to Gibbs Free Energy=         0.127877
 Sum of electronic and zero-point Energies=           -422.997884
 Sum of electronic and thermal Energies=              -422.990013
 Sum of electronic and thermal Enthalpies=            -422.989069
 Sum of electronic and thermal Free Energies=         -423.030154

                     E (Thermal)             CV                S
                      KCal/Mol        Cal/Mol-Kelvin    Cal/Mol-Kelvin
 Total                  105.432             30.699             86.469
 Electronic               0.000              0.000              0.000
 Translational            0.889              2.981             40.409
 Rotational               0.889              2.981             28.568
 Vibrational            103.655             24.737             17.493
 Vibration     1          0.603              1.952              3.539
 Vibration     2          0.630              1.865              2.311
 Vibration     3          0.649              1.806              1.935
 Vibration     4          0.654              1.791              1.857
 Vibration     5          0.698              1.658              1.372
 Vibration     6          0.729              1.570              1.156
 Vibration     7          0.765              1.472              0.965
 Vibration     8          0.821              1.330              0.755
 Vibration     9          0.831              1.308              0.727
 Vibration    10          0.892              1.167              0.571

 Optimization completed.
    -- Stationary point found.
 Normal termination of Gaussian 09 at Tue Jan 28 08:51:06 2020.
