 Gaussian 09, Revision D.01,
 Gaussian 09:  ES64L-G09RevD.01 24-Apr-2013

 -----------------------------
 # b3lyp 6-31G(2df,p) opt Freq
 -----------------------------

 -----
 titel
 -----
 Symbolic Z-matrix:
 Charge =  0 Multiplicity = 1

 SCF Done:  E(RB3LYP) =  -423.209607601     A.U. after   14 cycles
 Optimization completed.
    -- Stationary point found.
 Normal termination of Gaussian 09 at Tue Jan 28 03:04:02 2020.

 ----------------------------------------------------------------------
 #N Geom=AllCheck Guess=TCheck SCRF=Check GenChk RB3LYP/6-31G(2df,p) Fr
 eq
 ----------------------------------------------------------------------

 Structure from the checkpoint file:  "/scratch/puck/g09_f4703ee1-e0cb-4807-8215-f4a8b555b8b3/Gau-78290.chk"
 -----
 titel
 -----
 Charge =  0 Multiplicity = 1

                         Standard orientation:
 ---------------------------------------------------------------------
 Center     Atomic      Atomic             Coordinates (Angstroms)
 Number     Number       Type             X           Y           Z
 ---------------------------------------------------------------------
      1          6           0       -1.625983   -1.213939   -1.030471
      2          6           0       -1.316458   -0.354369    0.187106
      3          6           0       -1.432152    1.200617    0.060663
      4          6           0        0.034453    1.340605    0.503556
      5          8           0        0.945203    1.318863   -0.644029
      6          6           0        1.131803   -0.041302   -0.532135
      7          8           0        1.832277   -0.732902   -1.200544
      8          6           0        0.181809   -0.200018    0.654615
      9          6           0        0.669284   -0.973140    1.857586
     10          1           0       -1.383188   -2.265793   -0.846964
     11          1           0       -2.690866   -1.154788   -1.279722
     12          1           0       -1.057940   -0.890672   -1.908347
     13          1           0       -1.901998   -0.706177    1.042489
     14          1           0       -1.620728    1.588270   -0.943118
     15          1           0       -2.148753    1.646557    0.754025
     16          1           0        0.343473    2.085130    1.235950
     17          1           0        0.753426   -2.037462    1.613383
     18          1           0        1.655695   -0.630347    2.185698
     19          1           0       -0.025492   -0.873128    2.697656
 ---------------------------------------------------------------------

 SCF Done:  E(RB3LYP) =  -423.209607601     A.U. after    1 cycles

 The electronic state is 1-A.
 Alpha  occ. eigenvalues --  -19.17591 -19.13066 -10.30100 -10.25080 -10.21236
 Alpha  occ. eigenvalues --  -10.20884 -10.19593 -10.19391 -10.18302  -1.10135
 Alpha  occ. eigenvalues --   -1.02849  -0.85580  -0.75583  -0.73126  -0.66697
 Alpha  occ. eigenvalues --   -0.63679  -0.58988  -0.52096  -0.50572  -0.47795
 Alpha  occ. eigenvalues --   -0.46805  -0.43988  -0.43046  -0.42088  -0.41068
 Alpha  occ. eigenvalues --   -0.40839  -0.40579  -0.36997  -0.35250  -0.34601
 Alpha  occ. eigenvalues --   -0.32176  -0.30028  -0.29125  -0.26489
 Alpha virt. eigenvalues --    0.01203   0.07640   0.08108   0.10398   0.11660
 Alpha virt. eigenvalues --    0.12054   0.13441   0.14045   0.15042   0.16308
 Alpha virt. eigenvalues --    0.16860   0.17779   0.18183   0.19496   0.21976

 Mulliken charges:
               1
     1  C   -0.415558
     2  C   -0.024583
     3  C   -0.261260
     4  C    0.069024
     5  O   -0.264028
     6  C    0.436361
     7  O   -0.341378
     8  C    0.112370
     9  C   -0.501018
    10  H    0.125675
    11  H    0.118669
    12  H    0.138183
    13  H    0.083264
    14  H    0.120746
    15  H    0.111006
    16  H    0.096736
    17  H    0.142339
    18  H    0.132229
    19  H    0.121222
 Sum of Mulliken charges =   0.00000

 Dipole moment (field-independent basis, Debye):
    X=             -2.9214    Y=              0.4072    Z=              2.8485  Tot=              4.1005
 Quadrupole moment (field-independent basis, Debye-Ang):
   XX=            -56.3235   YY=            -53.4797   ZZ=            -53.8171
   XY=              0.7256   XZ=              4.5076   YZ=              0.1796

  Exact polarizability:  76.792  -3.925  75.431  -1.001   2.485  71.390
 Approx polarizability: 110.448  -8.580 114.985  -8.743   5.604 104.520

                      1                      2                      3
                      A                      A                      A
 Frequencies --     92.4847               134.8725               181.3026
 Red. masses --      3.0844                 5.8931                 1.1308
 Frc consts  --      0.0155                 0.0632                 0.0219
 IR Inten    --      0.2663                 2.6296                 0.4429

                      4                      5                      6
                      A                      A                      A
 Frequencies --    204.2391               220.7913               241.6247
 Red. masses --      1.6551                 1.4172                 2.2881
 Frc consts  --      0.0407                 0.0407                 0.0787
 IR Inten    --      0.3368                 0.4676                 1.4079

                      7                      8                      9
                      A                      A                      A
 Frequencies --    345.0711               375.3752               411.3860
 Red. masses --      2.3667                 3.0901                 3.3631
 Frc consts  --      0.1660                 0.2565                 0.3353
 IR Inten    --      0.7955                 0.4786                 0.9884

                     10                     11                     12
                      A                      A                      A
 Frequencies --    520.9034               630.5301               679.2731
 Red. masses --      2.9610                 5.3900                 4.4616
 Frc consts  --      0.4734                 1.2626                 1.2129
 IR Inten    --      1.9828                 0.0541                 1.7914

                     13                     14                     15
                      A                      A                      A
 Frequencies --    718.4316               774.9973               837.8040
 Red. masses --      2.9902                 5.5366                 2.7701
 Frc consts  --      0.9093                 1.9593                 1.1456
 IR Inten    --      0.9965                 2.7764                19.5199

                     16                     17                     18
                      A                      A                      A
 Frequencies --    866.1767               879.5534               903.0739
 Red. masses --      2.4349                 2.1862                 2.1448
 Frc consts  --      1.0763                 0.9965                 1.0306
 IR Inten    --      1.0672                 1.9586                 4.0247

                     19                     20                     21
                      A                      A                      A
 Frequencies --    935.7971               973.9550              1037.8316
 Red. masses --      1.7462                 1.9957                 1.4551
 Frc consts  --      0.9010                 1.1154                 0.9234
 IR Inten    --     38.8361                33.7334                 0.5014

                     22                     23                     24
                      A                      A                      A
 Frequencies --   1083.1793              1098.4370              1114.8468
 Red. masses --      2.7144                 1.9500                 1.9922
 Frc consts  --      1.8764                 1.3862                 1.4589
 IR Inten    --     55.6980                21.7825                 4.2433

                     25                     26                     27
                      A                      A                      A
 Frequencies --   1150.0959              1173.0676              1189.5767
 Red. masses --      2.3041                 2.0238                 2.6538
 Frc consts  --      1.7956                 1.6408                 2.2126
 IR Inten    --      6.9664                 5.8740                26.8988

                     28                     29                     30
                      A                      A                      A
 Frequencies --   1215.5482              1236.8776              1272.5070
 Red. masses --      2.0114                 1.6268                 1.5557
 Frc consts  --      1.7510                 1.4664                 1.4842
 IR Inten    --      3.6800                 0.4041                 2.5871

                     31                     32                     33
                      A                      A                      A
 Frequencies --   1317.0566              1340.0081              1372.5783
 Red. masses --      1.4440                 1.8555                 1.8998
 Frc consts  --      1.4758                 1.9630                 2.1088
 IR Inten    --     25.7797                 8.0663                 1.9094

                     34                     35                     36
                      A                      A                      A
 Frequencies --   1411.6340              1417.3635              1469.8335
 Red. masses --      1.2399                 1.2482                 1.1059
 Frc consts  --      1.4557                 1.4774                 1.4077
 IR Inten    --      2.0055                 2.4741                 2.3905

                     37                     38                     39
                      A                      A                      A
 Frequencies --   1489.1198              1491.7013              1492.2455
 Red. masses --      1.0531                 1.0476                 1.0491
 Frc consts  --      1.3759                 1.3734                 1.3764
 IR Inten    --      5.5564                 1.7709                 6.1582

                     40                     41                     42
                      A                      A                      A
 Frequencies --   1496.2052              1923.9440              3032.5678
 Red. masses --      1.0445                12.7798                 1.0351
 Frc consts  --      1.3777                27.8714                 5.6087
 IR Inten    --      4.4502               382.4129                25.4147

                     43                     44                     45
                      A                      A                      A
 Frequencies --   3033.2764              3048.4755              3069.2875
 Red. masses --      1.0355                 1.0848                 1.0594
 Frc consts  --      5.6135                 5.9396                 5.8799
 IR Inten    --     10.6479                16.5424                20.4372

                     46                     47                     48
                      A                      A                      A
 Frequencies --   3099.6158              3103.0896              3104.8136
 Red. masses --      1.1012                 1.1010                 1.1020
 Frc consts  --      6.2337                 6.2463                 6.2587
 IR Inten    --     17.4022                14.0467                13.0869

                     49                     50                     51
                      A                      A                      A
 Frequencies --   3108.2268              3122.5253              3130.4551
 Red. masses --      1.1017                 1.1017                 1.0966
 Frc consts  --      6.2710                 6.3286                 6.3319
 IR Inten    --     23.9942                12.3631                35.7291

 - Thermochemistry -
 -------------------
 Temperature   298.150 Kelvin.  Pressure   1.00000 Atm.
 Atom     1 has atomic number  6 and mass  12.00000

 Molecular mass:   126.06808 amu.
 Principal axes and moments of inertia in atomic units:
                           1         2         3
     Eigenvalues --   887.332361111.214721145.80068
           X            0.99133   0.01772   0.13018
           Y           -0.01316   0.99927  -0.03577
           Z           -0.13072   0.03375   0.99085
 This molecule is an asymmetric top.
 Rotational symmetry number  1.
 Warning -- assumption of classical behavior for rotation
           may cause significant error
 Rotational temperatures (Kelvin)      0.09761     0.07795     0.07559
 Rotational constants (GHZ):           2.03390     1.62412     1.57509
 Zero-point vibrational energy     416142.7 (Joules/Mol)
                                   99.46050 (Kcal/Mol)
 Warning -- explicit consideration of  10 degrees of freedom as
           vibrations may cause significant error
 Vibrational temperatures:    133.06   194.05   260.85   293.85   317.67
          (Kelvin)            347.64   496.48   540.08   591.89   749.46
                              907.19   977.32  1033.66  1115.05  1205.41
                             1246.23  1265.48  1299.32  1346.40  1401.30
                             1493.21  1558.45  1580.40  1604.01  1654.73
                             1687.78  1711.53  1748.90  1779.59  1830.85
                             1894.95  1927.97  1974.83  2031.02  2039.27
                             2114.76  2142.51  2146.22  2147.01  2152.70
                             2768.12  4363.18  4364.20  4386.07  4416.01
                             4459.65  4464.65  4467.13  4472.04  4492.61
                             4504.02

 Zero-point correction=                           0.158500 (Hartree/Particle)
 Thermal correction to Energy=                    0.167193
 Thermal correction to Enthalpy=                  0.168138
 Thermal correction to Gibbs Free Energy=         0.125322
 Sum of electronic and zero-point Energies=           -423.051107
 Sum of electronic and thermal Energies=              -423.042414
 Sum of electronic and thermal Enthalpies=            -423.041470
 Sum of electronic and thermal Free Energies=         -423.084285

                     E (Thermal)             CV                S
                      KCal/Mol        Cal/Mol-Kelvin    Cal/Mol-Kelvin
 Total                  104.915             32.614             90.113
 Electronic               0.000              0.000              0.000
 Translational            0.889              2.981             40.409
 Rotational               0.889              2.981             28.515
 Vibrational            103.138             26.652             21.189
 Vibration     1          0.602              1.955              3.607
 Vibration     2          0.613              1.919              2.875
 Vibration     3          0.630              1.865              2.315
 Vibration     4          0.640              1.834              2.095
 Vibration     5          0.648              1.809              1.953
 Vibration     6          0.658              1.777              1.791
 Vibration     7          0.723              1.585              1.189
 Vibration     8          0.746              1.523              1.058
 Vibration     9          0.775              1.446              0.922
 Vibration    10          0.876              1.204              0.608

 Optimization completed.
    -- Stationary point found.
 Normal termination of Gaussian 09 at Tue Jan 28 03:48:06 2020.
