 Gaussian 09, Revision D.01,
 Gaussian 09:  ES64L-G09RevD.01 24-Apr-2013

 -----------------------------
 # b3lyp 6-31G(2df,p) opt Freq
 -----------------------------

 -----
 titel
 -----
 Symbolic Z-matrix:
 Charge =  0 Multiplicity = 1

 SCF Done:  E(RB3LYP) =  -423.183934188     A.U. after   15 cycles
 Optimization completed.
    -- Stationary point found.
 Normal termination of Gaussian 09 at Mon Jan 27 15:37:21 2020.

 ----------------------------------------------------------------------
 #N Geom=AllCheck Guess=TCheck SCRF=Check GenChk RB3LYP/6-31G(2df,p) Fr
 eq
 ----------------------------------------------------------------------

 Structure from the checkpoint file:  "/scratch/puck/g09_282089e7-36cd-485a-ba04-816a6e0d7727/Gau-35258.chk"
 -----
 titel
 -----
 Charge =  0 Multiplicity = 1

                         Standard orientation:
 ---------------------------------------------------------------------
 Center     Atomic      Atomic             Coordinates (Angstroms)
 Number     Number       Type             X           Y           Z
 ---------------------------------------------------------------------
      1          6           0       -3.267716   -0.545087   -0.313563
      2          6           0       -1.974089    0.279420   -0.350759
      3          6           0       -2.045013    1.485186    0.594627
      4          6           0       -0.788748   -0.622018   -0.023573
      5          8           0        0.423228    0.144478   -0.200834
      6          6           0        1.565255   -0.496839    0.091660
      7          8           0        1.639726   -1.637035    0.477739
      8          6           0        2.708903    0.366294   -0.118411
      9          6           0        3.692644    1.038008   -0.274474
     10          1           0       -3.445777   -0.954571    0.687702
     11          1           0       -4.128893    0.077594   -0.573220
     12          1           0       -3.234733   -1.383105   -1.017558
     13          1           0       -1.826740    0.649115   -1.374170
     14          1           0       -2.209921    1.160028    1.629038
     15          1           0       -1.118911    2.064352    0.565960
     16          1           0       -2.871741    2.146931    0.318464
     17          1           0       -0.829277   -0.985331    1.009556
     18          1           0       -0.748169   -1.496342   -0.681329
     19          1           0        4.563106    1.632000   -0.412727
 ---------------------------------------------------------------------

 SCF Done:  E(RB3LYP) =  -423.183934188     A.U. after    1 cycles

 The electronic state is 1-A.
 Alpha  occ. eigenvalues --  -19.19075 -19.13535 -10.32918 -10.24099 -10.20715
 Alpha  occ. eigenvalues --  -10.20313 -10.19809 -10.18235 -10.17622  -1.11072
 Alpha  occ. eigenvalues --   -1.02355  -0.81814  -0.77776  -0.71674  -0.68966
 Alpha  occ. eigenvalues --   -0.63585  -0.57242  -0.55660  -0.52370  -0.49808
 Alpha  occ. eigenvalues --   -0.47589  -0.45182  -0.44135  -0.41254  -0.39296
 Alpha  occ. eigenvalues --   -0.38513  -0.37872  -0.34608  -0.33951  -0.33318
 Alpha  occ. eigenvalues --   -0.30912  -0.30639  -0.29824  -0.27761
 Alpha virt. eigenvalues --   -0.03981   0.03282   0.08029   0.10745   0.11734
 Alpha virt. eigenvalues --    0.11907   0.12813   0.14093   0.14856   0.16524
 Alpha virt. eigenvalues --    0.17012   0.17343   0.19987   0.20727   0.21968

 Mulliken charges:
               1
     1  C   -0.394931
     2  C    0.009474
     3  C   -0.384942
     4  C   -0.054289
     5  O   -0.237332
     6  C    0.298245
     7  O   -0.354214
     8  C    0.221642
     9  C   -0.359500
    10  H    0.118834
    11  H    0.119245
    12  H    0.116703
    13  H    0.088129
    14  H    0.112461
    15  H    0.130957
    16  H    0.113669
    17  H    0.122679
    18  H    0.121222
    19  H    0.211947
 Sum of Mulliken charges =   0.00000

 Dipole moment (field-independent basis, Debye):
    X=             -1.0401    Y=              1.7163    Z=             -0.6553  Tot=              2.1112
 Quadrupole moment (field-independent basis, Debye-Ang):
   XX=            -45.4454   YY=            -56.1466   ZZ=            -53.2936
   XY=              7.6262   XZ=             -1.7661   YZ=              1.1623

  Exact polarizability: 107.082  12.508  76.401  -1.819  -2.681  57.850
 Approx polarizability: 135.737  22.469 123.475  -4.188 -11.141  88.514

                      1                      2                      3
                      A                      A                      A
 Frequencies --     36.5459                59.4408                97.9153
 Red. masses --      4.6158                 3.3084                 3.8975
 Frc consts  --      0.0036                 0.0069                 0.0220
 IR Inten    --      1.3252                 0.4538                 1.4306

                      4                      5                      6
                      A                      A                      A
 Frequencies --    163.4231               196.5476               214.4740
 Red. masses --      2.8399                 3.3239                 1.0932
 Frc consts  --      0.0447                 0.0757                 0.0296
 IR Inten    --      2.3819                 2.2013                 0.2486

                      7                      8                      9
                      A                      A                      A
 Frequencies --    246.8612               266.9647               299.7881
 Red. masses --      1.1440                 3.7992                 5.0869
 Frc consts  --      0.0411                 0.1595                 0.2694
 IR Inten    --      0.8664                 6.5524                 0.1583

                     10                     11                     12
                      A                      A                      A
 Frequencies --    341.8597               421.3292               426.2931
 Red. masses --      2.9215                 2.7264                 2.0706
 Frc consts  --      0.2012                 0.2852                 0.2217
 IR Inten    --      1.6491                 0.8382                 4.0465

                     13                     14                     15
                      A                      A                      A
 Frequencies --    566.7144               609.6700               656.8696
 Red. masses --      5.4674                 9.4884                 1.2611
 Frc consts  --      1.0346                 2.0779                 0.3206
 IR Inten    --      0.4118                 4.9904                36.6492

                     16                     17                     18
                      A                      A                      A
 Frequencies --    697.0704               775.0550               823.8100
 Red. masses --      1.3309                 7.3831                 2.9286
 Frc consts  --      0.3810                 2.6131                 1.1710
 IR Inten    --     21.7034                28.4908                 1.4251

                     19                     20                     21
                      A                      A                      A
 Frequencies --    911.6504               927.0094               933.6189
 Red. masses --      1.3745                 2.7056                 1.5061
 Frc consts  --      0.6730                 1.3699                 0.7735
 IR Inten    --      2.2871                12.1713                 8.6872

                     22                     23                     24
                      A                      A                      A
 Frequencies --    957.9965               978.5128              1022.5614
 Red. masses --      1.5840                 1.8818                 5.1658
 Frc consts  --      0.8565                 1.0616                 3.1825
 IR Inten    --      2.6891                 3.9446                49.6281

                     25                     26                     27
                      A                      A                      A
 Frequencies --   1153.9020              1187.7800              1200.1939
 Red. masses --      2.2280                 1.8623                 1.7298
 Frc consts  --      1.7479                 1.5480                 1.4681
 IR Inten    --      0.9790                 2.4660                 3.7690

                     28                     29                     30
                      A                      A                      A
 Frequencies --   1254.3868              1274.2473              1329.8824
 Red. masses --      6.2556                 1.1952                 1.3541
 Frc consts  --      5.7994                 1.1434                 1.4110
 IR Inten    --    707.1291                12.3327                 0.6342

                     31                     32                     33
                      A                      A                      A
 Frequencies --   1373.3877              1399.7918              1405.4755
 Red. masses --      1.3617                 1.2755                 1.4289
 Frc consts  --      1.5133                 1.4725                 1.6631
 IR Inten    --      4.8823                 4.0348                 9.2028

                     34                     35                     36
                      A                      A                      A
 Frequencies --   1427.6870              1488.2975              1490.4225
 Red. masses --      1.2862                 1.0555                 1.0457
 Frc consts  --      1.5447                 1.3775                 1.3686
 IR Inten    --      3.0547                 0.1732                 1.2104

                     37                     38                     39
                      A                      A                      A
 Frequencies --   1502.7481              1506.0352              1514.1085
 Red. masses --      1.0552                 1.0718                 1.0630
 Frc consts  --      1.4039                 1.4323                 1.4358
 IR Inten    --      3.4186                 4.0309                12.5718

                     40                     41                     42
                      A                      A                      A
 Frequencies --   1790.7369              2237.1623              3020.5352
 Red. masses --     12.5815                 5.9135                 1.0810
 Frc consts  --     23.7708                17.4378                 5.8109
 IR Inten    --    250.0993                60.4965                 4.9849

                     43                     44                     45
                      A                      A                      A
 Frequencies --   3028.3316              3032.3419              3043.3055
 Red. masses --      1.0364                 1.0404                 1.0559
 Frc consts  --      5.5999                 5.6364                 5.7620
 IR Inten    --     19.4233                19.3557                25.6575

                     46                     47                     48
                      A                      A                      A
 Frequencies --   3087.4370              3094.0858              3100.4218
 Red. masses --      1.1066                 1.1000                 1.1008
 Frc consts  --      6.2149                 6.2044                 6.2343
 IR Inten    --      5.1318                14.4549                57.6875

                     49                     50                     51
                      A                      A                      A
 Frequencies --   3107.6834              3123.4527              3498.2188
 Red. masses --      1.1009                 1.1005                 1.1637
 Frc consts  --      6.2643                 6.3260                 8.3905
 IR Inten    --     33.0911                22.3858                57.7149

 - Thermochemistry -
 -------------------
 Temperature   298.150 Kelvin.  Pressure   1.00000 Atm.
 Atom     1 has atomic number  6 and mass  12.00000

 Molecular mass:   126.06808 amu.
 Principal axes and moments of inertia in atomic units:
                           1         2         3
     Eigenvalues --   487.804332350.412062689.62947
           X            0.99996   0.00813  -0.00233
           Y           -0.00805   0.99951   0.03026
           Z            0.00257  -0.03024   0.99954
 This molecule is an asymmetric top.
 Rotational symmetry number  1.
 Warning -- assumption of classical behavior for rotation
           may cause significant error
 Rotational temperatures (Kelvin)      0.17756     0.03685     0.03220
 Rotational constants (GHZ):           3.69972     0.76784     0.67100
 Zero-point vibrational energy     408548.9 (Joules/Mol)
                                   97.64553 (Kcal/Mol)
 Warning -- explicit consideration of  14 degrees of freedom as
           vibrations may cause significant error
 Vibrational temperatures:     52.58    85.52   140.88   235.13   282.79
          (Kelvin)            308.58   355.18   384.10   431.33   491.86
                              606.20   613.34   815.37   877.18   945.09
                             1002.93  1115.13  1185.28  1311.66  1333.76
                             1343.27  1378.34  1407.86  1471.24  1660.21
                             1708.95  1726.81  1804.78  1833.36  1913.40
                             1976.00  2013.99  2022.16  2054.12  2141.33
                             2144.38  2162.12  2166.85  2178.46  2576.47
                             3218.77  4345.87  4357.09  4362.86  4378.63
                             4442.13  4451.69  4460.81  4471.26  4493.95
                             5033.15

 Zero-point correction=                           0.155608 (Hartree/Particle)
 Thermal correction to Energy=                    0.166049
 Thermal correction to Enthalpy=                  0.166993
 Thermal correction to Gibbs Free Energy=         0.119087
 Sum of electronic and zero-point Energies=           -423.028326
 Sum of electronic and thermal Energies=              -423.017885
 Sum of electronic and thermal Enthalpies=            -423.016941
 Sum of electronic and thermal Free Energies=         -423.064847

                     E (Thermal)             CV                S
                      KCal/Mol        Cal/Mol-Kelvin    Cal/Mol-Kelvin
 Total                  104.198             36.727            100.827
 Electronic               0.000              0.000              0.000
 Translational            0.889              2.981             40.409
 Rotational               0.889              2.981             29.513
 Vibrational            102.420             30.765             30.906
 Vibration     1          0.594              1.982              5.438
 Vibration     2          0.597              1.974              4.476
 Vibration     3          0.603              1.951              3.495
 Vibration     4          0.623              1.887              2.510
 Vibration     5          0.636              1.845              2.165
 Vibration     6          0.644              1.819              2.005
 Vibration     7          0.661              1.768              1.753
 Vibration     8          0.672              1.734              1.616
 Vibration     9          0.692              1.674              1.418
 Vibration    10          0.721              1.592              1.203
 Vibration    11          0.784              1.424              0.887
 Vibration    12          0.788              1.413              0.871
 Vibration    13          0.923              1.103              0.511
 Vibration    14          0.969              1.011              0.433

 Optimization completed.
    -- Stationary point found.
 Normal termination of Gaussian 09 at Mon Jan 27 16:13:32 2020.
