 Gaussian 09, Revision D.01,
 Gaussian 09:  ES64L-G09RevD.01 24-Apr-2013

 -----------------------------
 # b3lyp 6-31G(2df,p) opt Freq
 -----------------------------

 -----
 titel
 -----
 Symbolic Z-matrix:
 Charge =  0 Multiplicity = 1

 SCF Done:  E(RB3LYP) =  -423.129165764     A.U. after   14 cycles
 Optimization completed.
    -- Stationary point found.
 Normal termination of Gaussian 09 at Tue Jan 28 04:01:53 2020.

 ----------------------------------------------------------------------
 #N Geom=AllCheck Guess=TCheck SCRF=Check GenChk RB3LYP/6-31G(2df,p) Fr
 eq
 ----------------------------------------------------------------------

 Structure from the checkpoint file:  "/scratch/puck/g09_7224214f-0fbc-4fab-8cd1-c3cf93c0f095/Gau-93606.chk"
 -----
 titel
 -----
 Charge =  0 Multiplicity = 1

                         Standard orientation:
 ---------------------------------------------------------------------
 Center     Atomic      Atomic             Coordinates (Angstroms)
 Number     Number       Type             X           Y           Z
 ---------------------------------------------------------------------
      1          6           0       -2.634542   -0.717594    0.139325
      2          6           0       -1.450211    0.115419    0.593360
      3          8           0       -1.430325    1.435065   -0.005996
      4          6           0       -0.272623    1.123004   -0.805534
      5          6           0       -0.061800   -0.207650   -0.047014
      6          8           0        0.075388   -1.390503   -0.788442
      7          6           0        1.089009   -0.183067    0.966164
      8          6           0        2.400201   -0.048381    0.343555
      9          6           0        3.476011    0.087003   -0.174237
     10          1           0       -3.565455   -0.259852    0.486201
     11          1           0       -2.688720   -0.785985   -0.952608
     12          1           0       -2.571933   -1.731201    0.547796
     13          1           0       -1.440314    0.187884    1.689204
     14          1           0       -0.522366    0.991632   -1.868792
     15          1           0        0.518171    1.875537   -0.718715
     16          1           0       -0.562958   -1.382098   -1.508522
     17          1           0        0.924554    0.648507    1.661392
     18          1           0        1.042851   -1.107677    1.554789
     19          1           0        4.429394    0.194348   -0.628951
 ---------------------------------------------------------------------

 SCF Done:  E(RB3LYP) =  -423.129165764     A.U. after    1 cycles

 The electronic state is 1-A.
 Alpha  occ. eigenvalues --  -19.15105 -19.13586 -10.25098 -10.23549 -10.22963
 Alpha  occ. eigenvalues --  -10.21161 -10.18512 -10.18095 -10.16997  -1.05291
 Alpha  occ. eigenvalues --   -1.02415  -0.80090  -0.75782  -0.72667  -0.68292
 Alpha  occ. eigenvalues --   -0.64440  -0.57241  -0.52860  -0.52244  -0.49267
 Alpha  occ. eigenvalues --   -0.48328  -0.44491  -0.42427  -0.41889  -0.40472
 Alpha  occ. eigenvalues --   -0.40122  -0.38878  -0.37973  -0.35731  -0.30331
 Alpha  occ. eigenvalues --   -0.27139  -0.26419  -0.26324  -0.25336
 Alpha virt. eigenvalues --    0.04493   0.05645   0.06066   0.08828   0.11600
 Alpha virt. eigenvalues --    0.12028   0.13061   0.13665   0.15511   0.16043
 Alpha virt. eigenvalues --    0.16689   0.16982   0.18657   0.19348   0.21533

 Mulliken charges:
               1
     1  C   -0.411298
     2  C    0.088767
     3  O   -0.292250
     4  C   -0.131378
     5  C    0.320966
     6  O   -0.461614
     7  C   -0.387661
     8  C    0.312845
     9  C   -0.448222
    10  H    0.132500
    11  H    0.105250
    12  H    0.128300
    13  H    0.076429
    14  H    0.089264
    15  H    0.118273
    16  H    0.284419
    17  H    0.140471
    18  H    0.138865
    19  H    0.196074
 Sum of Mulliken charges =   0.00000

 Dipole moment (field-independent basis, Debye):
    X=             -0.6360    Y=             -0.6406    Z=             -0.3185  Tot=              0.9572
 Quadrupole moment (field-independent basis, Debye-Ang):
   XX=            -51.6573   YY=            -57.8398   ZZ=            -48.8904
   XY=              5.3871   XZ=             -0.6651   YZ=             -0.4919

  Exact polarizability:  99.625   5.228  63.083  -8.127  -2.406  67.752
 Approx polarizability: 133.885   5.030  95.411 -18.502  -2.845 104.305

                      1                      2                      3
                      A                      A                      A
 Frequencies --     62.6608                82.7091               118.1517
 Red. masses --      4.2356                 3.0078                 3.6195
 Frc consts  --      0.0098                 0.0121                 0.0298
 IR Inten    --      1.6704                 2.6002                 0.7082

                      4                      5                      6
                      A                      A                      A
 Frequencies --    199.4767               229.7339               264.0797
 Red. masses --      1.2542                 2.4449                 1.4913
 Frc consts  --      0.0294                 0.0760                 0.0613
 IR Inten    --      1.4368                 5.1066                56.5346

                      7                      8                      9
                      A                      A                      A
 Frequencies --    288.4253               323.4054               351.7234
 Red. masses --      1.7457                 3.3618                 2.4726
 Frc consts  --      0.0856                 0.2072                 0.1802
 IR Inten    --     28.4566                 2.0416                 3.8606

                     10                     11                     12
                      A                      A                      A
 Frequencies --    381.2751               432.6374               462.7498
 Red. masses --      3.5867                 3.5188                 3.6976
 Frc consts  --      0.3072                 0.3881                 0.4665
 IR Inten    --      7.7886                16.9442                 5.5484

                     13                     14                     15
                      A                      A                      A
 Frequencies --    565.6321               617.2157               645.5779
 Red. masses --      3.5075                 1.2051                 1.2690
 Frc consts  --      0.6612                 0.2705                 0.3116
 IR Inten    --      2.9245                42.5338                37.4329

                     16                     17                     18
                      A                      A                      A
 Frequencies --    705.0330               812.5813               876.8653
 Red. masses --      3.2913                 2.6469                 2.9220
 Frc consts  --      0.9639                 1.0297                 1.3237
 IR Inten    --     13.2939                 5.2698                10.2202

                     19                     20                     21
                      A                      A                      A
 Frequencies --    895.5942               923.8984               972.0957
 Red. masses --      2.0194                 2.6834                 2.3080
 Frc consts  --      0.9543                 1.3495                 1.2850
 IR Inten    --      1.4399                23.7228                 6.2578

                     22                     23                     24
                      A                      A                      A
 Frequencies --   1003.5155              1024.8282              1053.0143
 Red. masses --      2.1227                 3.4522                 2.4732
 Frc consts  --      1.2594                 2.1362                 1.6157
 IR Inten    --     63.5590                33.9640                26.6069

                     25                     26                     27
                      A                      A                      A
 Frequencies --   1086.1861              1114.1011              1144.7078
 Red. masses --      2.1930                 2.2298                 2.3490
 Frc consts  --      1.5244                 1.6307                 1.8135
 IR Inten    --     20.6043                 7.9612                 0.8857

                     28                     29                     30
                      A                      A                      A
 Frequencies --   1151.3160              1174.3736              1267.8904
 Red. masses --      1.1780                 1.6853                 1.4433
 Frc consts  --      0.9200                 1.3694                 1.3670
 IR Inten    --      1.4259                66.7610                 1.7744

                     31                     32                     33
                      A                      A                      A
 Frequencies --   1297.6321              1325.5558              1352.7245
 Red. masses --      1.5425                 1.5111                 1.5462
 Frc consts  --      1.5303                 1.5644                 1.6670
 IR Inten    --     47.2210                12.9459                 1.4698

                     34                     35                     36
                      A                      A                      A
 Frequencies --   1372.9946              1399.1965              1413.4896
 Red. masses --      1.3534                 1.3749                 1.6888
 Frc consts  --      1.5032                 1.5859                 1.9880
 IR Inten    --      8.7050                 8.4761                33.6150

                     37                     38                     39
                      A                      A                      A
 Frequencies --   1458.1300              1480.5121              1496.8492
 Red. masses --      1.0907                 1.0663                 1.0504
 Frc consts  --      1.3663                 1.3771                 1.3866
 IR Inten    --      5.4290                 6.4778                 4.7231

                     40                     41                     42
                      A                      A                      A
 Frequencies --   1521.6717              2241.3584              2991.9123
 Red. masses --      1.0998                 5.9222                 1.0657
 Frc consts  --      1.5004                17.5288                 5.6206
 IR Inten    --      1.1720                 1.1897                66.5917

                     43                     44                     45
                      A                      A                      A
 Frequencies --   3012.7922              3030.8789              3034.3105
 Red. masses --      1.0843                 1.0597                 1.0360
 Frc consts  --      5.7988                 5.7355                 5.6200
 IR Inten    --     20.4366                17.6780                15.2621

                     46                     47                     48
                      A                      A                      A
 Frequencies --   3068.6773              3072.1295              3103.6839
 Red. masses --      1.1004                 1.1004                 1.1002
 Frc consts  --      6.1052                 6.1192                 6.2440
 IR Inten    --     11.9178                27.9253                31.4395

                     49                     50                     51
                      A                      A                      A
 Frequencies --   3117.4626              3506.5047              3823.3141
 Red. masses --      1.1016                 1.1625                 1.0658
 Frc consts  --      6.3077                 8.4218                 9.1791
 IR Inten    --     13.3690                65.3407                15.1269

 - Thermochemistry -
 -------------------
 Temperature   298.150 Kelvin.  Pressure   1.00000 Atm.
 Atom     1 has atomic number  6 and mass  12.00000

 Molecular mass:   126.06808 amu.
 Principal axes and moments of inertia in atomic units:
                           1         2         3
     Eigenvalues --   533.905771691.130991857.95533
           X            0.99963   0.02677  -0.00417
           Y           -0.02692   0.99881  -0.04073
           Z            0.00307   0.04082   0.99916
 This molecule is an asymmetric top.
 Rotational symmetry number  1.
 Warning -- assumption of classical behavior for rotation
           may cause significant error
 Rotational temperatures (Kelvin)      0.16223     0.05122     0.04662
 Rotational constants (GHZ):           3.38026     1.06718     0.97136
 Zero-point vibrational energy     408843.1 (Joules/Mol)
                                   97.71585 (Kcal/Mol)
 Warning -- explicit consideration of  14 degrees of freedom as
           vibrations may cause significant error
 Vibrational temperatures:     90.15   119.00   169.99   287.00   330.54
          (Kelvin)            379.95   414.98   465.31   506.05   548.57
                              622.47   665.79   813.82   888.03   928.84
                             1014.38  1169.12  1261.61  1288.56  1329.28
                             1398.63  1443.83  1474.50  1515.05  1562.78
                             1602.94  1646.98  1656.48  1689.66  1824.21
                             1867.00  1907.18  1946.27  1975.43  2013.13
                             2033.69  2097.92  2130.12  2153.63  2189.34
                             3224.81  4304.69  4334.73  4360.75  4365.69
                             4415.14  4420.10  4465.50  4485.33  5045.07
                             5500.89

 Zero-point correction=                           0.155720 (Hartree/Particle)
 Thermal correction to Energy=                    0.165573
 Thermal correction to Enthalpy=                  0.166518
 Thermal correction to Gibbs Free Energy=         0.120931
 Sum of electronic and zero-point Energies=           -422.973446
 Sum of electronic and thermal Energies=              -422.963592
 Sum of electronic and thermal Enthalpies=            -422.962648
 Sum of electronic and thermal Free Energies=         -423.008235

                     E (Thermal)             CV                S
                      KCal/Mol        Cal/Mol-Kelvin    Cal/Mol-Kelvin
 Total                  103.899             36.272             95.946
 Electronic               0.000              0.000              0.000
 Translational            0.889              2.981             40.409
 Rotational               0.889              2.981             28.908
 Vibrational            102.121             30.310             26.629
 Vibration     1          0.597              1.972              4.372
 Vibration     2          0.600              1.961              3.826
 Vibration     3          0.608              1.934              3.130
 Vibration     4          0.638              1.841              2.138
 Vibration     5          0.652              1.796              1.881
 Vibration     6          0.671              1.739              1.635
 Vibration     7          0.685              1.695              1.483
 Vibration     8          0.708              1.629              1.293
 Vibration     9          0.728              1.572              1.158
 Vibration    10          0.751              1.510              1.034
 Vibration    11          0.794              1.399              0.850
 Vibration    12          0.820              1.333              0.758
 Vibration    13          0.921              1.106              0.513
 Vibration    14          0.977              0.996              0.421

 Optimization completed.
    -- Stationary point found.
 Normal termination of Gaussian 09 at Tue Jan 28 04:43:39 2020.
