 Gaussian 09, Revision D.01,
 Gaussian 09:  ES64L-G09RevD.01 24-Apr-2013

 -----------------------------
 # b3lyp 6-31G(2df,p) opt Freq
 -----------------------------

 -----
 titel
 -----
 Symbolic Z-matrix:
 Charge =  0 Multiplicity = 1

 SCF Done:  E(RB3LYP) =  -423.127748385     A.U. after   14 cycles
 Optimization completed.
    -- Stationary point found.
 Normal termination of Gaussian 09 at Mon Jan 27 14:28:12 2020.

 ----------------------------------------------------------------------
 #N Geom=AllCheck Guess=TCheck SCRF=Check GenChk RB3LYP/6-31G(2df,p) Fr
 eq
 ----------------------------------------------------------------------

 Structure from the checkpoint file:  "/scratch/puck/g09_0bef618d-c23c-4db1-a6d3-4d3575c42a73/Gau-172054.chk"
 -----
 titel
 -----
 Charge =  0 Multiplicity = 1

                         Standard orientation:
 ---------------------------------------------------------------------
 Center     Atomic      Atomic             Coordinates (Angstroms)
 Number     Number       Type             X           Y           Z
 ---------------------------------------------------------------------
      1          6           0        3.289119   -0.922301    0.360855
      2          6           0        2.425798    0.086224   -0.411421
      3          8           0        2.750755    1.430113   -0.062189
      4          6           0        0.995676   -0.193919   -0.247440
      5          6           0       -0.177568   -0.416330   -0.080204
      6          6           0       -1.590761   -0.685164    0.117267
      7          6           0       -2.373712    0.238215    1.093209
      8          6           0       -3.265507    0.532507   -0.127391
      9          8           0       -2.431504   -0.268788   -0.991586
     10          1           0        3.061066   -0.881564    1.431008
     11          1           0        3.103155   -1.942284    0.012401
     12          1           0        4.345233   -0.680368    0.216810
     13          1           0        2.673416    0.015709   -1.477650
     14          1           0        2.420045    1.583353    0.829855
     15          1           0       -1.737344   -1.754552    0.322641
     16          1           0       -2.848608   -0.268148    1.934006
     17          1           0       -1.794715    1.087884    1.454526
     18          1           0       -4.287017    0.136935   -0.066873
     19          1           0       -3.307512    1.577040   -0.455761
 ---------------------------------------------------------------------

 SCF Done:  E(RB3LYP) =  -423.127748385     A.U. after    1 cycles

 The electronic state is 1-A.
 Alpha  occ. eigenvalues --  -19.13959 -19.13473 -10.25814 -10.25709 -10.23378
 Alpha  occ. eigenvalues --  -10.19785 -10.18282 -10.18078 -10.17814  -1.03961
 Alpha  occ. eigenvalues --   -1.02289  -0.78755  -0.75987  -0.73682  -0.69312
 Alpha  occ. eigenvalues --   -0.63732  -0.58226  -0.53606  -0.51148  -0.49239
 Alpha  occ. eigenvalues --   -0.46674  -0.45248  -0.43809  -0.42626  -0.39898
 Alpha  occ. eigenvalues --   -0.38285  -0.37893  -0.35429  -0.34624  -0.31395
 Alpha  occ. eigenvalues --   -0.28678  -0.26475  -0.26143  -0.24998
 Alpha virt. eigenvalues --    0.01713   0.03668   0.08727   0.10087   0.11324
 Alpha virt. eigenvalues --    0.12369   0.12681   0.13762   0.14943   0.16432
 Alpha virt. eigenvalues --    0.16784   0.17455   0.18306   0.21167   0.21977

 Mulliken charges:
               1
     1  C   -0.384944
     2  C   -0.021851
     3  O   -0.411968
     4  C    0.086237
     5  C    0.054936
     6  C   -0.030427
     7  C   -0.284608
     8  C   -0.058326
     9  O   -0.277022
    10  H    0.115519
    11  H    0.126853
    12  H    0.126681
    13  H    0.123834
    14  H    0.280904
    15  H    0.101979
    16  H    0.115937
    17  H    0.121443
    18  H    0.103315
    19  H    0.111508
 Sum of Mulliken charges =   0.00000

 Dipole moment (field-independent basis, Debye):
    X=             -0.5413    Y=             -0.5182    Z=              2.6541  Tot=              2.7578
 Quadrupole moment (field-independent basis, Debye-Ang):
   XX=            -49.8548   YY=            -53.3896   ZZ=            -53.3013
   XY=             -4.4732   XZ=             -2.8987   YZ=              1.4997

  Exact polarizability: 117.509  -0.396  66.909  -3.607  -0.119  62.650
 Approx polarizability: 154.010   7.643  97.472  -7.687   0.336  94.117

                      1                      2                      3
                      A                      A                      A
 Frequencies --     19.2911                51.8169                87.4398
 Red. masses --      3.3595                 2.5972                 3.6237
 Frc consts  --      0.0007                 0.0041                 0.0163
 IR Inten    --      0.8368                 0.8298                 0.5134

                      4                      5                      6
                      A                      A                      A
 Frequencies --     98.1737               198.3785               213.7268
 Red. masses --      4.0547                 3.0617                 2.2630
 Frc consts  --      0.0230                 0.0710                 0.0609
 IR Inten    --      0.1742                 9.5919                 5.5902

                      7                      8                      9
                      A                      A                      A
 Frequencies --    250.7428               284.4004               366.3715
 Red. masses --      1.1637                 1.3709                 5.0189
 Frc consts  --      0.0431                 0.0653                 0.3969
 IR Inten    --     15.7464                79.7114                20.0110

                     10                     11                     12
                      A                      A                      A
 Frequencies --    438.4453               505.2323               546.3745
 Red. masses --      3.5612                 5.6768                 4.3789
 Frc consts  --      0.4033                 0.8538                 0.7702
 IR Inten    --      3.4919                 2.6192                12.5917

                     13                     14                     15
                      A                      A                      A
 Frequencies --    597.4329               691.8444               783.8235
 Red. masses --      5.0880                 2.5006                 1.5469
 Frc consts  --      1.0700                 0.7052                 0.5600
 IR Inten    --      5.8315                 8.7920                 3.1184

                     16                     17                     18
                      A                      A                      A
 Frequencies --    820.3491               881.3021               929.2536
 Red. masses --      2.1091                 2.9114                 2.2050
 Frc consts  --      0.8363                 1.3323                 1.1218
 IR Inten    --      1.8876                10.5409                 8.3636

                     19                     20                     21
                      A                      A                      A
 Frequencies --    945.3112               997.7037              1019.6352
 Red. masses --      3.2088                 3.0087                 5.0377
 Frc consts  --      1.6894                 1.7645                 3.0858
 IR Inten    --     30.5428                21.5682               101.1778

                     22                     23                     24
                      A                      A                      A
 Frequencies --   1034.9890              1079.5229              1087.5050
 Red. masses --      2.2594                 2.1912                 2.0229
 Frc consts  --      1.4260                 1.5045                 1.4096
 IR Inten    --     77.4081                 4.2654                 1.1294

                     25                     26                     27
                      A                      A                      A
 Frequencies --   1102.8046              1163.5269              1185.3098
 Red. masses --      2.6644                 1.1625                 2.1882
 Frc consts  --      1.9092                 0.9273                 1.8113
 IR Inten    --     61.8603                 0.5188                53.5487

                     28                     29                     30
                      A                      A                      A
 Frequencies --   1214.9038              1257.3362              1262.6421
 Red. masses --      1.2599                 1.4461                 1.2492
 Frc consts  --      1.0956                 1.3470                 1.1734
 IR Inten    --      0.7190                 2.5310                 1.8060

                     31                     32                     33
                      A                      A                      A
 Frequencies --   1282.4372              1334.2414              1352.8462
 Red. masses --      1.3622                 1.3735                 1.3984
 Frc consts  --      1.3199                 1.4406                 1.5079
 IR Inten    --      9.3800                24.5475                 3.0199

                     34                     35                     36
                      A                      A                      A
 Frequencies --   1367.1539              1398.7345              1416.9603
 Red. masses --      1.4151                 1.2360                 1.1872
 Frc consts  --      1.5584                 1.4248                 1.4043
 IR Inten    --     66.7848                 4.5383                73.7591

                     37                     38                     39
                      A                      A                      A
 Frequencies --   1488.0018              1488.6152              1491.1150
 Red. masses --      1.0511                 1.1010                 1.0574
 Frc consts  --      1.3713                 1.4375                 1.3852
 IR Inten    --      7.9456                 2.1953                 0.9547

                     40                     41                     42
                      A                      A                      A
 Frequencies --   1531.3939              2349.7396              3003.2725
 Red. masses --      1.1073                11.9399                 1.0817
 Frc consts  --      1.5301                38.8410                 5.7485
 IR Inten    --      1.1803                 1.3582                44.1596

                     43                     44                     45
                      A                      A                      A
 Frequencies --   3020.4559              3037.3498              3041.4627
 Red. masses --      1.0585                 1.0562                 1.0603
 Frc consts  --      5.6898                 5.7411                 5.7788
 IR Inten    --     82.2794                10.0260                17.0094

                     46                     47                     48
                      A                      A                      A
 Frequencies --   3063.1435              3091.0546              3113.9190
 Red. masses --      1.1094                 1.0593                 1.1012
 Frc consts  --      6.1329                 5.9630                 6.2913
 IR Inten    --     33.8568                22.0861                25.0689

                     49                     50                     51
                      A                      A                      A
 Frequencies --   3128.3118              3151.0931              3805.3386
 Red. masses --      1.1031                 1.1096                 1.0661
 Frc consts  --      6.3605                 6.4911                 9.0956
 IR Inten    --     21.2339                19.6578                15.8559

 - Thermochemistry -
 -------------------
 Temperature   298.150 Kelvin.  Pressure   1.00000 Atm.
 Atom     1 has atomic number  6 and mass  12.00000

 Molecular mass:   126.06808 amu.
 Principal axes and moments of inertia in atomic units:
                           1         2         3
     Eigenvalues --   416.544502841.496102929.76391
           X            0.99984  -0.01723  -0.00456
           Y            0.01716   0.99975  -0.01414
           Z            0.00481   0.01406   0.99989
 This molecule is an asymmetric top.
 Rotational symmetry number  1.
 Rotational temperatures (Kelvin)      0.20793     0.03048     0.02956
 Rotational constants (GHZ):           4.33265     0.63514     0.61600
 Zero-point vibrational energy     413143.7 (Joules/Mol)
                                   98.74371 (Kcal/Mol)
 Warning -- explicit consideration of  13 degrees of freedom as
           vibrations may cause significant error
 Vibrational temperatures:     27.76    74.55   125.81   141.25   285.42
          (Kelvin)            307.50   360.76   409.19   527.13   630.82
                              726.92   786.11   859.57   995.41  1127.75
                             1180.30  1268.00  1336.99  1360.09  1435.47
                             1467.03  1489.12  1553.19  1564.68  1586.69
                             1674.05  1705.39  1747.97  1809.02  1816.66
                             1845.14  1919.67  1946.44  1967.03  2012.46
                             2038.69  2140.90  2141.78  2145.38  2203.33
                             3380.75  4321.03  4345.76  4370.06  4375.98
                             4407.17  4447.33  4480.23  4500.94  4533.71
                             5475.03

 Zero-point correction=                           0.157358 (Hartree/Particle)
 Thermal correction to Energy=                    0.167397
 Thermal correction to Enthalpy=                  0.168341
 Thermal correction to Gibbs Free Energy=         0.120060
 Sum of electronic and zero-point Energies=           -422.970390
 Sum of electronic and thermal Energies=              -422.960352
 Sum of electronic and thermal Enthalpies=            -422.959407
 Sum of electronic and thermal Free Energies=         -423.007689

                     E (Thermal)             CV                S
                      KCal/Mol        Cal/Mol-Kelvin    Cal/Mol-Kelvin
 Total                  105.043             34.842            101.617
 Electronic               0.000              0.000              0.000
 Translational            0.889              2.981             40.409
 Rotational               0.889              2.981             29.629
 Vibrational            103.266             28.880             31.579
 Vibration     1          0.593              1.986              6.706
 Vibration     2          0.596              1.977              4.747
 Vibration     3          0.601              1.958              3.717
 Vibration     4          0.604              1.950              3.490
 Vibration     5          0.637              1.842              2.148
 Vibration     6          0.644              1.820              2.012
 Vibration     7          0.663              1.762              1.725
 Vibration     8          0.683              1.703              1.507
 Vibration     9          0.739              1.541              1.095
 Vibration    10          0.799              1.386              0.832
 Vibration    11          0.860              1.238              0.645
 Vibration    12          0.902              1.148              0.552
 Vibration    13          0.955              1.037              0.454

 Normal termination of Gaussian 09 at Mon Jan 27 15:00:36 2020.
