 Gaussian 09, Revision D.01,
 Gaussian 09:  ES64L-G09RevD.01 24-Apr-2013

 -----------------------------
 # b3lyp 6-31G(2df,p) opt Freq
 -----------------------------

 -----
 titel
 -----
 Symbolic Z-matrix:
 Charge =  0 Multiplicity = 1

 SCF Done:  E(RB3LYP) =  -423.193518111     A.U. after   14 cycles
 Optimization completed.
    -- Stationary point found.
 Normal termination of Gaussian 09 at Tue Jan 28 14:11:24 2020.

 ----------------------------------------------------------------------
 #N Geom=AllCheck Guess=TCheck SCRF=Check GenChk RB3LYP/6-31G(2df,p) Fr
 eq
 ----------------------------------------------------------------------

 Structure from the checkpoint file:  "/scratch/puck/g09_433b27d4-db7e-4317-a853-c115745543ca/Gau-33632.chk"
 -----
 titel
 -----
 Charge =  0 Multiplicity = 1

                         Standard orientation:
 ---------------------------------------------------------------------
 Center     Atomic      Atomic             Coordinates (Angstroms)
 Number     Number       Type             X           Y           Z
 ---------------------------------------------------------------------
      1          6           0        3.065422    0.796107    0.329043
      2          6           0        2.304199   -0.472930   -0.069927
      3          6           0        0.831623   -0.420781    0.282673
      4          6           0       -0.178366   -1.162038   -0.519945
      5          8           0       -1.377481   -1.538224    0.119068
      6          6           0       -2.073103   -0.377495    0.550768
      7          6           0       -1.375395    0.842669   -0.076905
      8          8           0       -1.821276    1.961652   -0.101729
      9          6           0       -0.109636    0.339233   -0.678518
     10          1           0        2.653433    1.678048   -0.171604
     11          1           0        3.003178    0.969357    1.408589
     12          1           0        4.123900    0.719174    0.063282
     13          1           0        2.411908   -0.645820   -1.148174
     14          1           0        2.750779   -1.344401    0.425664
     15          1           0        0.617153   -0.315323    1.344114
     16          1           0        0.114492   -1.856589   -1.299473
     17          1           0       -3.115839   -0.426295    0.219638
     18          1           0       -2.069737   -0.290787    1.646693
     19          1           0        0.312327    0.856626   -1.530573
 ---------------------------------------------------------------------

 SCF Done:  E(RB3LYP) =  -423.193518111     A.U. after    1 cycles

 The electronic state is 1-A.
 Alpha  occ. eigenvalues --  -19.15595 -19.13112 -10.27334 -10.25163 -10.23928
 Alpha  occ. eigenvalues --  -10.21115 -10.20361 -10.19968 -10.18318  -1.06184
 Alpha  occ. eigenvalues --   -1.03814  -0.87288  -0.77150  -0.74032  -0.66304
 Alpha  occ. eigenvalues --   -0.60931  -0.59232  -0.57074  -0.50835  -0.47900
 Alpha  occ. eigenvalues --   -0.46228  -0.45255  -0.43749  -0.42862  -0.40884
 Alpha  occ. eigenvalues --   -0.39825  -0.38959  -0.36873  -0.35897  -0.35262
 Alpha  occ. eigenvalues --   -0.34022  -0.29151  -0.26079  -0.23578
 Alpha virt. eigenvalues --   -0.01988   0.08484   0.08874   0.10493   0.11104
 Alpha virt. eigenvalues --    0.12683   0.13838   0.15095   0.15978   0.16419
 Alpha virt. eigenvalues --    0.16808   0.18055   0.19200   0.21346   0.21816

 Mulliken charges:
               1
     1  C   -0.371890
     2  C   -0.213547
     3  C   -0.054981
     4  C    0.084805
     5  O   -0.264857
     6  C   -0.198650
     7  C    0.380987
     8  O   -0.320953
     9  C   -0.209974
    10  H    0.125969
    11  H    0.120138
    12  H    0.116496
    13  H    0.100160
    14  H    0.109324
    15  H    0.100743
    16  H    0.113217
    17  H    0.140363
    18  H    0.129333
    19  H    0.113317
 Sum of Mulliken charges =   0.00000

 Dipole moment (field-independent basis, Debye):
    X=              2.1009    Y=             -1.4682    Z=             -0.0846  Tot=              2.5644
 Quadrupole moment (field-independent basis, Debye-Ang):
   XX=            -52.6643   YY=            -62.1234   ZZ=            -50.2141
   XY=              2.5465   XZ=             -1.2789   YZ=              0.9569

  Exact polarizability:  92.860  -4.011  73.658  -2.730  -0.150  63.138
 Approx polarizability: 117.560 -10.840 119.217  -2.522  -2.013  97.635

                      1                      2                      3
                      A                      A                      A
 Frequencies --     81.6992               117.9930               126.2595
 Red. masses --      2.6811                 3.7819                 2.4157
 Frc consts  --      0.0105                 0.0310                 0.0227
 IR Inten    --      0.7353                 1.0745                 6.9656

                      4                      5                      6
                      A                      A                      A
 Frequencies --    176.6745               225.9495               301.3237
 Red. masses --      2.0792                 1.5773                 2.2047
 Frc consts  --      0.0382                 0.0474                 0.1179
 IR Inten    --      1.2900                 0.3379                 2.4196

                      7                      8                      9
                      A                      A                      A
 Frequencies --    361.8429               426.9549               477.8011
 Red. masses --      3.4898                 3.6537                 3.2969
 Frc consts  --      0.2692                 0.3924                 0.4435
 IR Inten    --      0.6913                 3.4435                11.7806

                     10                     11                     12
                      A                      A                      A
 Frequencies --    540.6710               629.2835               689.4161
 Red. masses --      3.2065                 5.7615                 5.0140
 Frc consts  --      0.5523                 1.3442                 1.4041
 IR Inten    --      3.9656                 4.1991                 7.1211

                     13                     14                     15
                      A                      A                      A
 Frequencies --    762.2484               833.5797               846.0762
 Red. masses --      1.5169                 1.7957                 2.6474
 Frc consts  --      0.5193                 0.7352                 1.1166
 IR Inten    --      9.5773                 0.8061                 1.3148

                     16                     17                     18
                      A                      A                      A
 Frequencies --    872.8311               915.3712               951.2523
 Red. masses --      1.7826                 2.7591                 3.3404
 Frc consts  --      0.8001                 1.3621                 1.7809
 IR Inten    --     10.1507                41.6334                23.0706

                     19                     20                     21
                      A                      A                      A
 Frequencies --    984.6176              1011.8244              1047.3890
 Red. masses --      1.8192                 2.1796                 1.6923
 Frc consts  --      1.0391                 1.3147                 1.0938
 IR Inten    --      5.8218                 1.4447                 7.7037

                     22                     23                     24
                      A                      A                      A
 Frequencies --   1056.3669              1063.6491              1103.2373
 Red. masses --      1.9118                 1.5102                 2.3058
 Frc consts  --      1.2570                 1.0066                 1.6535
 IR Inten    --     23.3925                 0.4649                25.7853

                     25                     26                     27
                      A                      A                      A
 Frequencies --   1126.0307              1160.4198              1187.5844
 Red. masses --      2.0855                 1.8229                 2.1652
 Frc consts  --      1.5580                 1.4463                 1.7992
 IR Inten    --     10.8340                 9.9539                52.8207

                     28                     29                     30
                      A                      A                      A
 Frequencies --   1203.4701              1219.7867              1274.0673
 Red. masses --      1.1810                 2.5624                 1.6134
 Frc consts  --      1.0078                 2.2463                 1.5430
 IR Inten    --      0.3518               103.5228                12.8071

                     31                     32                     33
                      A                      A                      A
 Frequencies --   1289.4937              1312.8870              1332.9288
 Red. masses --      1.4184                 1.2314                 1.3578
 Frc consts  --      1.3896                 1.2506                 1.4214
 IR Inten    --     22.1185                 4.9392                 4.8472

                     34                     35                     36
                      A                      A                      A
 Frequencies --   1372.8221              1413.5805              1436.5472
 Red. masses --      1.4547                 1.2488                 2.2357
 Frc consts  --      1.6153                 1.4703                 2.7184
 IR Inten    --      2.7478                 3.2865                13.7774

                     37                     38                     39
                      A                      A                      A
 Frequencies --   1483.5736              1486.7500              1498.0848
 Red. masses --      1.0643                 1.0847                 1.0399
 Frc consts  --      1.3801                 1.4127                 1.3750
 IR Inten    --      1.5017                 6.6090                 6.1868

                     40                     41                     42
                      A                      A                      A
 Frequencies --   1506.3168              1840.8153              3009.9493
 Red. masses --      1.0708                12.5007                 1.0656
 Frc consts  --      1.4316                24.9577                 5.6880
 IR Inten    --      2.1767               271.0527                26.3649

                     43                     44                     45
                      A                      A                      A
 Frequencies --   3020.7383              3036.9637              3053.4736
 Red. masses --      1.0594                 1.0351                 1.1017
 Frc consts  --      5.6958                 5.6249                 6.0523
 IR Inten    --     25.7528                23.2275                12.1091

                     46                     47                     48
                      A                      A                      A
 Frequencies --   3072.6954              3105.7930              3111.0611
 Red. masses --      1.0965                 1.1018                 1.1019
 Frc consts  --      6.0997                 6.2616                 6.2835
 IR Inten    --     15.3181                28.1572                32.3428

                     49                     50                     51
                      A                      A                      A
 Frequencies --   3132.3424              3176.2423              3200.1181
 Red. masses --      1.0883                 1.0913                 1.0924
 Frc consts  --      6.2914                 6.4869                 6.5915
 IR Inten    --     12.7954                14.1270                 2.2326

 - Thermochemistry -
 -------------------
 Temperature   298.150 Kelvin.  Pressure   1.00000 Atm.
 Atom     1 has atomic number  6 and mass  12.00000

 Molecular mass:   126.06808 amu.
 Principal axes and moments of inertia in atomic units:
                           1         2         3
     Eigenvalues --   635.502521539.263131979.27440
           X            0.99964   0.02673  -0.00342
           Y           -0.02669   0.99958   0.01099
           Z            0.00371  -0.01090   0.99993
 This molecule is an asymmetric top.
 Rotational symmetry number  1.
 Warning -- assumption of classical behavior for rotation
           may cause significant error
 Rotational temperatures (Kelvin)      0.13629     0.05627     0.04376
 Rotational constants (GHZ):           2.83986     1.17247     0.91182
 Zero-point vibrational energy     416712.2 (Joules/Mol)
                                   99.59662 (Kcal/Mol)
 Warning -- explicit consideration of  10 degrees of freedom as
           vibrations may cause significant error
 Vibrational temperatures:    117.55   169.77   181.66   254.19   325.09
          (Kelvin)            433.54   520.61   614.29   687.45   777.90
                              905.40   991.91  1096.70  1199.33  1217.31
                             1255.81  1317.01  1368.64  1416.64  1455.79
                             1506.96  1519.87  1530.35  1587.31  1620.10
                             1669.58  1708.67  1731.52  1755.00  1833.10
                             1855.29  1888.95  1917.78  1975.18  2033.82
                             2066.87  2134.53  2139.10  2155.41  2167.25
                             2648.52  4330.64  4346.16  4369.51  4393.26
                             4420.92  4468.54  4476.12  4506.74  4569.90
                             4604.25

 Zero-point correction=                           0.158717 (Hartree/Particle)
 Thermal correction to Energy=                    0.167323
 Thermal correction to Enthalpy=                  0.168267
 Thermal correction to Gibbs Free Energy=         0.125021
 Sum of electronic and zero-point Energies=           -423.034801
 Sum of electronic and thermal Energies=              -423.026195
 Sum of electronic and thermal Enthalpies=            -423.025251
 Sum of electronic and thermal Free Energies=         -423.068498

                     E (Thermal)             CV                S
                      KCal/Mol        Cal/Mol-Kelvin    Cal/Mol-Kelvin
 Total                  104.997             32.035             91.020
 Electronic               0.000              0.000              0.000
 Translational            0.889              2.981             40.409
 Rotational               0.889              2.981             29.050
 Vibrational            103.219             26.074             21.561
 Vibration     1          0.600              1.962              3.850
 Vibration     2          0.608              1.934              3.133
 Vibration     3          0.611              1.927              3.002
 Vibration     4          0.628              1.871              2.363
 Vibration     5          0.650              1.802              1.911
 Vibration     6          0.693              1.671              1.410
 Vibration     7          0.736              1.551              1.114
 Vibration     8          0.789              1.412              0.869
 Vibration     9          0.834              1.299              0.716
 Vibration    10          0.896              1.160              0.564

 Optimization completed.
    -- Stationary point found.
 Normal termination of Gaussian 09 at Tue Jan 28 14:50:33 2020.
