 Gaussian 09, Revision D.01,
 Gaussian 09:  ES64L-G09RevD.01 24-Apr-2013

 -----------------------------
 # b3lyp 6-31G(2df,p) opt Freq
 -----------------------------

 -----
 titel
 -----
 Symbolic Z-matrix:
 Charge =  0 Multiplicity = 1

 SCF Done:  E(RB3LYP) =  -423.189985202     A.U. after   14 cycles
 Optimization completed.
    -- Stationary point found.
 Normal termination of Gaussian 09 at Tue Jan 28 04:08:24 2020.

 ----------------------------------------------------------------------
 #N Geom=AllCheck Guess=TCheck SCRF=Check GenChk RB3LYP/6-31G(2df,p) Fr
 eq
 ----------------------------------------------------------------------

 Structure from the checkpoint file:  "/scratch/puck/g09_87fc8047-5ef6-4a72-8b88-7cbc586a5e86/Gau-91967.chk"
 -----
 titel
 -----
 Charge =  0 Multiplicity = 1

                         Standard orientation:
 ---------------------------------------------------------------------
 Center     Atomic      Atomic             Coordinates (Angstroms)
 Number     Number       Type             X           Y           Z
 ---------------------------------------------------------------------
      1          6           0       -2.151009    1.360991   -0.406683
      2          6           0       -1.584345    0.225472    0.453870
      3          6           0       -1.451167   -1.104804   -0.331390
      4          8           0       -0.132554   -1.133085   -0.886737
      5          6           0        0.699391   -0.358181   -0.070158
      6          6           0        0.693867   -0.598352    1.425688
      7          6           0       -0.143370    0.512169    0.856719
      8          6           0        1.902250    0.168666   -0.749764
      9          8           0        2.778946    0.784435   -0.190851
     10          1           0       -2.147259    2.310779    0.137227
     11          1           0       -1.556091    1.491130   -1.316878
     12          1           0       -3.182538    1.149176   -0.704871
     13          1           0       -2.226119    0.073385    1.328915
     14          1           0       -1.594825   -1.968742    0.330773
     15          1           0       -2.162935   -1.190193   -1.157309
     16          1           0        0.218914   -1.502595    1.790279
     17          1           0        1.603170   -0.305919    1.938565
     18          1           0        0.157972    1.536355    1.045282
     19          1           0        1.924872   -0.039957   -1.840971
 ---------------------------------------------------------------------

 SCF Done:  E(RB3LYP) =  -423.189985202     A.U. after    1 cycles

 The electronic state is 1-A.
 Alpha  occ. eigenvalues --  -19.15552 -19.13468 -10.26829 -10.24770 -10.23858
 Alpha  occ. eigenvalues --  -10.20762 -10.20694 -10.19907 -10.18576  -1.06071
 Alpha  occ. eigenvalues --   -1.03970  -0.86394  -0.79622  -0.70978  -0.65203
 Alpha  occ. eigenvalues --   -0.63562  -0.58211  -0.55202  -0.51441  -0.48728
 Alpha  occ. eigenvalues --   -0.47118  -0.45861  -0.42437  -0.42124  -0.41315
 Alpha  occ. eigenvalues --   -0.40044  -0.39090  -0.38637  -0.35032  -0.33422
 Alpha  occ. eigenvalues --   -0.32636  -0.30724  -0.25278  -0.24161
 Alpha virt. eigenvalues --   -0.02557   0.08377   0.09380   0.10844   0.12282
 Alpha virt. eigenvalues --    0.12769   0.13623   0.14595   0.15975   0.16383
 Alpha virt. eigenvalues --    0.17190   0.18495   0.19594   0.20994   0.22158

 Mulliken charges:
               1
     1  C   -0.399975
     2  C   -0.012932
     3  C   -0.115588
     4  O   -0.306228
     5  C    0.344500
     6  C   -0.369311
     7  C   -0.085666
     8  C    0.085139
     9  O   -0.275282
    10  H    0.120398
    11  H    0.128606
    12  H    0.116785
    13  H    0.085634
    14  H    0.102498
    15  H    0.114714
    16  H    0.123343
    17  H    0.144435
    18  H    0.111458
    19  H    0.087470
 Sum of Mulliken charges =   0.00000

 Dipole moment (field-independent basis, Debye):
    X=             -3.1413    Y=             -0.4137    Z=              0.6623  Tot=              3.2369
 Quadrupole moment (field-independent basis, Debye-Ang):
   XX=            -58.2817   YY=            -53.8851   ZZ=            -52.3867
   XY=             -2.4990   XZ=             -0.3298   YZ=             -1.5220

  Exact polarizability:  88.274   2.872  67.848  -0.089  -0.758  72.144
 Approx polarizability: 122.734   8.126 101.601  -0.972   3.183 111.380

                      1                      2                      3
                      A                      A                      A
 Frequencies --     94.8745               129.3519               179.5624
 Red. masses --      4.6009                 2.7316                 2.8152
 Frc consts  --      0.0244                 0.0269                 0.0535
 IR Inten    --      2.3916                 2.0168                 7.8487

                      4                      5                      6
                      A                      A                      A
 Frequencies --    216.8796               242.6914               315.9664
 Red. masses --      3.3432                 1.1340                 2.3499
 Frc consts  --      0.0927                 0.0394                 0.1382
 IR Inten    --      7.4634                 0.5917                 0.4710

                      7                      8                      9
                      A                      A                      A
 Frequencies --    364.9867               381.1770               453.9109
 Red. masses --      2.1086                 3.5578                 2.6681
 Frc consts  --      0.1655                 0.3046                 0.3239
 IR Inten    --      1.9538                 1.7945                 1.0627

                     10                     11                     12
                      A                      A                      A
 Frequencies --    514.2770               697.5591               703.0634
 Red. masses --      5.0372                 4.4856                 3.3559
 Frc consts  --      0.7849                 1.2860                 0.9773
 IR Inten    --      2.6527                19.4123                 1.3962

                     13                     14                     15
                      A                      A                      A
 Frequencies --    735.1821               797.3719               806.8382
 Red. masses --      3.0596                 2.8710                 3.5128
 Frc consts  --      0.9743                 1.0755                 1.3473
 IR Inten    --      6.1770                 4.4270                13.1433

                     16                     17                     18
                      A                      A                      A
 Frequencies --    887.4585               932.2302               953.3443
 Red. masses --      1.8044                 1.6885                 1.5696
 Frc consts  --      0.8373                 0.8646                 0.8405
 IR Inten    --      6.0494                45.2247                 6.2680

                     19                     20                     21
                      A                      A                      A
 Frequencies --    970.2240              1002.6567              1031.5942
 Red. masses --      1.6412                 2.3336                 1.5041
 Frc consts  --      0.9102                 1.3822                 0.9431
 IR Inten    --      6.4280                 4.1246                 0.5971

                     22                     23                     24
                      A                      A                      A
 Frequencies --   1047.1563              1067.9024              1076.5619
 Red. masses --      1.6794                 1.6374                 2.9211
 Frc consts  --      1.0850                 1.1002                 1.9947
 IR Inten    --     30.7418                19.1280                65.6479

                     25                     26                     27
                      A                      A                      A
 Frequencies --   1103.6116              1143.4929              1160.8787
 Red. masses --      1.7857                 1.4493                 2.0427
 Frc consts  --      1.2814                 1.1166                 1.6219
 IR Inten    --      5.4363                 0.6165                 4.9540

                     28                     29                     30
                      A                      A                      A
 Frequencies --   1229.6752              1243.3189              1275.4108
 Red. masses --      2.1765                 1.5166                 1.5847
 Frc consts  --      1.9391                 1.3813                 1.5188
 IR Inten    --     54.0413                15.2979                16.7689

                     31                     32                     33
                      A                      A                      A
 Frequencies --   1293.5576              1346.3528              1381.2275
 Red. masses --      1.5907                 1.6712                 1.3691
 Frc consts  --      1.5682                 1.7848                 1.5389
 IR Inten    --      4.4176                24.7283                 4.7222

                     34                     35                     36
                      A                      A                      A
 Frequencies --   1388.7018              1409.9593              1424.2017
 Red. masses --      1.8005                 1.2584                 1.5331
 Frc consts  --      2.0458                 1.4740                 1.8322
 IR Inten    --      5.3807                 8.1049                11.1731

                     37                     38                     39
                      A                      A                      A
 Frequencies --   1461.6956              1497.7113              1499.5949
 Red. masses --      1.2912                 1.0465                 1.0494
 Frc consts  --      1.6254                 1.3830                 1.3904
 IR Inten    --     13.5971                 5.3548                 2.3238

                     40                     41                     42
                      A                      A                      A
 Frequencies --   1529.4018              1810.9886              2907.8024
 Red. masses --      1.0906                10.0774                 1.0840
 Frc consts  --      1.5031                19.4729                 5.4001
 IR Inten    --      1.4160               163.8426                96.8152

                     43                     44                     45
                      A                      A                      A
 Frequencies --   3012.6567              3034.3430              3045.5788
 Red. masses --      1.0690                 1.0349                 1.0835
 Frc consts  --      5.7166                 5.6139                 5.9212
 IR Inten    --     41.2618                18.4460                30.5064

                     46                     47                     48
                      A                      A                      A
 Frequencies --   3087.7720              3106.6250              3107.6106
 Red. masses --      1.0976                 1.1018                 1.1018
 Frc consts  --      6.1656                 6.2649                 6.2689
 IR Inten    --     24.3503                28.6230                27.4125

                     49                     50                     51
                      A                      A                      A
 Frequencies --   3137.5166              3179.7646              3232.6650
 Red. masses --      1.0536                 1.0908                 1.1172
 Frc consts  --      6.1106                 6.4983                 6.8789
 IR Inten    --      7.3095                 4.7721                 1.4484

 - Thermochemistry -
 -------------------
 Temperature   298.150 Kelvin.  Pressure   1.00000 Atm.
 Atom     1 has atomic number  6 and mass  12.00000

 Molecular mass:   126.06808 amu.
 Principal axes and moments of inertia in atomic units:
                           1         2         3
     Eigenvalues --   614.138921431.921311507.47481
           X            0.99958  -0.02424   0.01566
           Y            0.02639   0.98741  -0.15595
           Z           -0.01168   0.15630   0.98764
 This molecule is an asymmetric top.
 Rotational symmetry number  1.
 Warning -- assumption of classical behavior for rotation
           may cause significant error
 Rotational temperatures (Kelvin)      0.14103     0.06049     0.05746
 Rotational constants (GHZ):           2.93865     1.26036     1.19719
 Zero-point vibrational energy     416629.0 (Joules/Mol)
                                   99.57673 (Kcal/Mol)
 Warning -- explicit consideration of  10 degrees of freedom as
           vibrations may cause significant error
 Vibrational temperatures:    136.50   186.11   258.35   312.04   349.18
          (Kelvin)            454.60   525.13   548.43   653.08   739.93
                             1003.63  1011.55  1057.76  1147.24  1160.86
                             1276.85  1341.27  1371.65  1395.93  1442.60
                             1484.23  1506.62  1536.47  1548.93  1587.85
                             1645.23  1670.24  1769.23  1788.86  1835.03
                             1861.14  1937.10  1987.28  1998.03  2028.61
                             2049.11  2103.05  2154.87  2157.58  2200.47
                             2605.61  4183.67  4334.54  4365.74  4381.90
                             4442.61  4469.73  4471.15  4514.18  4574.97
                             4651.08

 Zero-point correction=                           0.158686 (Hartree/Particle)
 Thermal correction to Energy=                    0.167119
 Thermal correction to Enthalpy=                  0.168063
 Thermal correction to Gibbs Free Energy=         0.125693
 Sum of electronic and zero-point Energies=           -423.031300
 Sum of electronic and thermal Energies=              -423.022866
 Sum of electronic and thermal Enthalpies=            -423.021922
 Sum of electronic and thermal Free Energies=         -423.064292

                     E (Thermal)             CV                S
                      KCal/Mol        Cal/Mol-Kelvin    Cal/Mol-Kelvin
 Total                  104.869             32.061             89.176
 Electronic               0.000              0.000              0.000
 Translational            0.889              2.981             40.409
 Rotational               0.889              2.981             28.674
 Vibrational            103.091             26.100             20.094
 Vibration     1          0.603              1.953              3.557
 Vibration     2          0.612              1.924              2.956
 Vibration     3          0.629              1.867              2.333
 Vibration     4          0.646              1.815              1.985
 Vibration     5          0.659              1.775              1.783
 Vibration     6          0.703              1.643              1.331
 Vibration     7          0.738              1.544              1.101
 Vibration     8          0.751              1.510              1.034
 Vibration     9          0.812              1.352              0.784
 Vibration    10          0.869              1.218              0.623

 Optimization completed.
    -- Stationary point found.
 Normal termination of Gaussian 09 at Tue Jan 28 04:48:35 2020.
