 Gaussian 09, Revision D.01,
 Gaussian 09:  ES64L-G09RevD.01 24-Apr-2013

 -----------------------------
 # b3lyp 6-31G(2df,p) opt Freq
 -----------------------------

 -----
 titel
 -----
 Symbolic Z-matrix:
 Charge =  0 Multiplicity = 1

 SCF Done:  E(RB3LYP) =  -423.192685970     A.U. after   13 cycles
 Optimization completed.
    -- Stationary point found.
 Normal termination of Gaussian 09 at Mon Jan 27 22:07:27 2020.

 ----------------------------------------------------------------------
 #N Geom=AllCheck Guess=TCheck SCRF=Check GenChk RB3LYP/6-31G(2df,p) Fr
 eq
 ----------------------------------------------------------------------

 Structure from the checkpoint file:  "/scratch/puck/g09_1bc1edd8-24a6-4320-9033-16bf2471027f/Gau-116812.chk"
 -----
 titel
 -----
 Charge =  0 Multiplicity = 1

                         Standard orientation:
 ---------------------------------------------------------------------
 Center     Atomic      Atomic             Coordinates (Angstroms)
 Number     Number       Type             X           Y           Z
 ---------------------------------------------------------------------
      1          8           0        2.219002   -0.197830   -0.420801
      2          6           0        1.046067   -0.799374    0.079585
      3          6           0       -0.080608   -1.008506   -0.927447
      4          6           0       -1.391541   -0.895735   -0.167323
      5          6           0       -1.055820   -0.553799    1.281884
      6          6           0        0.336883    0.075502    1.138260
      7          8           0        0.270894    1.406337    0.604762
      8          6           0       -0.580858    1.532837   -0.541943
      9          6           0       -0.978406    0.190944   -1.128165
     10          1           0        2.061287    0.755016   -0.373925
     11          1           0        1.343114   -1.764104    0.508390
     12          1           0        0.051790   -1.715831   -1.737305
     13          1           0       -2.241396   -1.528181   -0.396177
     14          1           0       -1.765370    0.134976    1.752376
     15          1           0       -1.002474   -1.456268    1.901357
     16          1           0        0.892945    0.166744    2.072551
     17          1           0       -1.480032    2.098168   -0.254472
     18          1           0       -0.040915    2.136333   -1.282411
     19          1           0       -1.512412    0.253875   -2.071176
 ---------------------------------------------------------------------

 SCF Done:  E(RB3LYP) =  -423.192685970     A.U. after    1 cycles

 The electronic state is 1-A.
 Alpha  occ. eigenvalues --  -19.14621 -19.12288 -10.23416 -10.23213 -10.22602
 Alpha  occ. eigenvalues --  -10.19624 -10.19442 -10.18836 -10.18753  -1.04348
 Alpha  occ. eigenvalues --   -1.00191  -0.88180  -0.77725  -0.70332  -0.67644
 Alpha  occ. eigenvalues --   -0.62645  -0.55759  -0.54341  -0.52718  -0.48747
 Alpha  occ. eigenvalues --   -0.47839  -0.44975  -0.42416  -0.41894  -0.40795
 Alpha  occ. eigenvalues --   -0.40176  -0.38637  -0.36877  -0.32540  -0.30468
 Alpha  occ. eigenvalues --   -0.29998  -0.28598  -0.25377  -0.24181
 Alpha virt. eigenvalues --    0.07692   0.10259   0.10743   0.12339   0.12762
 Alpha virt. eigenvalues --    0.14351   0.14794   0.15826   0.17382   0.17606
 Alpha virt. eigenvalues --    0.17772   0.18261   0.19037   0.20163   0.21952

 Mulliken charges:
               1
     1  O   -0.453457
     2  C    0.153825
     3  C   -0.098343
     4  C   -0.069483
     5  C   -0.245934
     6  C    0.040316
     7  O   -0.296491
     8  C   -0.106971
     9  C   -0.056135
    10  H    0.284794
    11  H    0.080914
    12  H    0.085716
    13  H    0.083185
    14  H    0.107237
    15  H    0.105371
    16  H    0.084925
    17  H    0.103194
    18  H    0.107631
    19  H    0.089706
 Sum of Mulliken charges =   0.00000

 Dipole moment (field-independent basis, Debye):
    X=             -2.2211    Y=             -0.3448    Z=             -0.0682  Tot=              2.2487
 Quadrupole moment (field-independent basis, Debye-Ang):
   XX=            -57.0249   YY=            -52.1680   ZZ=            -51.1129
   XY=              1.1915   XZ=              1.9771   YZ=             -2.5708

  Exact polarizability:  73.215  -0.906  73.174   0.337  -3.462  71.501
 Approx polarizability: 107.629  -1.548 109.695  -1.453  -4.567 104.286

                      1                      2                      3
                      A                      A                      A
 Frequencies --    135.2311               233.5161               293.7971
 Red. masses --      2.9993                 3.2117                 4.6947
 Frc consts  --      0.0323                 0.1032                 0.2388
 IR Inten    --      2.0804                 8.6937                 5.0582

                      4                      5                      6
                      A                      A                      A
 Frequencies --    392.9672               433.1294               461.7024
 Red. masses --      2.1068                 3.4809                 1.1217
 Frc consts  --      0.1917                 0.3847                 0.1409
 IR Inten    --      1.5568                 3.1729                53.6161

                      7                      8                      9
                      A                      A                      A
 Frequencies --    519.5666               560.4018               636.9465
 Red. masses --      5.0445                 4.4915                 4.6433
 Frc consts  --      0.8023                 0.8311                 1.1099
 IR Inten    --     11.6409                 0.7551                 1.4492

                     10                     11                     12
                      A                      A                      A
 Frequencies --    667.5472               777.8675               800.1374
 Red. masses --      4.0551                 2.4488                 2.1730
 Frc consts  --      1.0647                 0.8730                 0.8197
 IR Inten    --      1.8782                 4.9442                11.3888

                     13                     14                     15
                      A                      A                      A
 Frequencies --    816.0199               845.3734               884.7846
 Red. masses --      3.8127                 1.8736                 2.5367
 Frc consts  --      1.4958                 0.7889                 1.1700
 IR Inten    --     22.4759                 0.4910                 4.9557

                     16                     17                     18
                      A                      A                      A
 Frequencies --    924.6192               934.1617               978.8988
 Red. masses --      2.3262                 2.3549                 1.8089
 Frc consts  --      1.1717                 1.2108                 1.0213
 IR Inten    --     15.4494                 3.0575                 3.4014

                     19                     20                     21
                      A                      A                      A
 Frequencies --   1017.5347              1038.7184              1048.4794
 Red. masses --      1.8743                 1.3919                 2.3202
 Frc consts  --      1.1434                 0.8848                 1.5028
 IR Inten    --     10.8948                 0.0356                21.5949

                     22                     23                     24
                      A                      A                      A
 Frequencies --   1075.7345              1090.1008              1102.9035
 Red. masses --      1.6336                 2.3724                 2.0175
 Frc consts  --      1.1138                 1.6610                 1.4459
 IR Inten    --     11.0361                12.3395                26.1473

                     25                     26                     27
                      A                      A                      A
 Frequencies --   1112.4745              1119.4709              1162.5976
 Red. masses --      3.2496                 1.6008                 1.5358
 Frc consts  --      2.3695                 1.1820                 1.2231
 IR Inten    --    115.9840                14.7997                21.2118

                     28                     29                     30
                      A                      A                      A
 Frequencies --   1202.9897              1242.8160              1254.7903
 Red. masses --      1.3354                 1.7586                 1.2601
 Frc consts  --      1.1387                 1.6004                 1.1689
 IR Inten    --     20.6713                10.0271                 8.9324

                     31                     32                     33
                      A                      A                      A
 Frequencies --   1263.7866              1311.8514              1326.6592
 Red. masses --      1.3201                 1.7897                 1.5086
 Frc consts  --      1.2422                 1.8146                 1.5644
 IR Inten    --      5.8470                 0.8631                 2.1712

                     34                     35                     36
                      A                      A                      A
 Frequencies --   1339.0817              1348.0862              1366.6208
 Red. masses --      1.3855                 1.6684                 1.3493
 Frc consts  --      1.4637                 1.7864                 1.4847
 IR Inten    --      1.0436                 0.7160                 0.9853

                     37                     38                     39
                      A                      A                      A
 Frequencies --   1404.0936              1431.3895              1450.3082
 Red. masses --      1.6704                 1.3991                 1.7285
 Frc consts  --      1.9402                 1.6890                 2.1421
 IR Inten    --     17.0560                48.8526                31.1451

                     40                     41                     42
                      A                      A                      A
 Frequencies --   1489.0299              1524.5514              2987.4878
 Red. masses --      1.1105                 1.0830                 1.0664
 Frc consts  --      1.4506                 1.4830                 5.6076
 IR Inten    --      2.7623                 0.8016                78.0168

                     43                     44                     45
                      A                      A                      A
 Frequencies --   3033.6383              3035.5253              3040.9613
 Red. masses --      1.0971                 1.0726                 1.0714
 Frc consts  --      5.9486                 5.8230                 5.8374
 IR Inten    --     37.2707                19.8775                47.9966

                     46                     47                     48
                      A                      A                      A
 Frequencies --   3079.9417              3105.7176              3156.7447
 Red. masses --      1.1050                 1.0890                 1.0885
 Frc consts  --      6.1759                 6.1888                 6.3911
 IR Inten    --     23.7172                38.1549                12.0385

                     49                     50                     51
                      A                      A                      A
 Frequencies --   3173.2525              3186.5988              3750.2110
 Red. masses --      1.0897                 1.0939                 1.0647
 Frc consts  --      6.4649                 6.5445                 8.8220
 IR Inten    --     15.7491                20.7047                32.6334

 - Thermochemistry -
 -------------------
 Temperature   298.150 Kelvin.  Pressure   1.00000 Atm.
 Atom     1 has atomic number  8 and mass  15.99491

 Molecular mass:   126.06808 amu.
 Principal axes and moments of inertia in atomic units:
                           1         2         3
     Eigenvalues --   745.02411 931.269331007.95433
           X            0.99985   0.00999   0.01405
           Y           -0.00750   0.98588  -0.16727
           Z           -0.01552   0.16714   0.98581
 This molecule is an asymmetric top.
 Rotational symmetry number  1.
 Warning -- assumption of classical behavior for rotation
           may cause significant error
 Rotational temperatures (Kelvin)      0.11626     0.09301     0.08593
 Rotational constants (GHZ):           2.42239     1.93794     1.79050
 Zero-point vibrational energy     428088.5 (Joules/Mol)
                                  102.31562 (Kcal/Mol)
 Warning -- explicit consideration of   8 degrees of freedom as
           vibrations may cause significant error
 Vibrational temperatures:    194.57   335.98   422.71   565.39   623.18
          (Kelvin)            664.29   747.54   806.29   916.42   960.45
                             1119.18  1151.22  1174.07  1216.30  1273.01
                             1330.32  1344.05  1408.42  1464.00  1494.48
                             1508.53  1547.74  1568.41  1586.83  1600.60
                             1610.67  1672.72  1730.83  1788.13  1805.36
                             1818.30  1887.46  1908.76  1926.64  1939.59
                             1966.26  2020.17  2059.45  2086.67  2142.38
                             2193.49  4298.32  4364.72  4367.44  4375.26
                             4431.34  4468.43  4541.85  4565.60  4584.80
                             5395.71

 Zero-point correction=                           0.163050 (Hartree/Particle)
 Thermal correction to Energy=                    0.169872
 Thermal correction to Enthalpy=                  0.170816
 Thermal correction to Gibbs Free Energy=         0.132177
 Sum of electronic and zero-point Energies=           -423.029636
 Sum of electronic and thermal Energies=              -423.022814
 Sum of electronic and thermal Enthalpies=            -423.021870
 Sum of electronic and thermal Free Energies=         -423.060509

                     E (Thermal)             CV                S
                      KCal/Mol        Cal/Mol-Kelvin    Cal/Mol-Kelvin
 Total                  106.596             28.592             81.323
 Electronic               0.000              0.000              0.000
 Translational            0.889              2.981             40.409
 Rotational               0.889              2.981             28.038
 Vibrational            104.819             22.631             12.876
 Vibration     1          0.613              1.918              2.870
 Vibration     2          0.654              1.790              1.852
 Vibration     3          0.689              1.685              1.452
 Vibration     4          0.760              1.485              0.989
 Vibration     5          0.794              1.398              0.848
 Vibration     6          0.819              1.335              0.761
 Vibration     7          0.875              1.207              0.611
 Vibration     8          0.916              1.117              0.523

 Optimization completed.
    -- Stationary point found.
 Normal termination of Gaussian 09 at Mon Jan 27 23:07:24 2020.
