 Gaussian 09, Revision D.01,
 Gaussian 09:  ES64L-G09RevD.01 24-Apr-2013

 -----------------------------
 # b3lyp 6-31G(2df,p) opt Freq
 -----------------------------

 -----
 titel
 -----
 Symbolic Z-matrix:
 Charge =  0 Multiplicity = 1

 SCF Done:  E(RB3LYP) =  -423.138928774     A.U. after   14 cycles
 Optimization completed.
    -- Stationary point found.
 Normal termination of Gaussian 09 at Tue Jan 28 00:48:52 2020.

 ----------------------------------------------------------------------
 #N Geom=AllCheck Guess=TCheck SCRF=Check GenChk RB3LYP/6-31G(2df,p) Fr
 eq
 ----------------------------------------------------------------------

 Structure from the checkpoint file:  "/scratch/puck/g09_1c98307a-a038-42e2-8ccb-b408dc3c4bbe/Gau-38544.chk"
 -----
 titel
 -----
 Charge =  0 Multiplicity = 1

                         Standard orientation:
 ---------------------------------------------------------------------
 Center     Atomic      Atomic             Coordinates (Angstroms)
 Number     Number       Type             X           Y           Z
 ---------------------------------------------------------------------
      1          6           0        0.652893    1.964717   -0.700499
      2          6           0        0.373742    0.604863   -0.093363
      3          8           0        0.187163    0.686288    1.316481
      4          6           0        1.340667   -0.593485   -0.396068
      5          8           0        2.309651   -0.863672    0.573788
      6          6           0        0.104603   -1.526294   -0.516476
      7          6           0       -0.788125   -0.257586   -0.701375
      8          6           0       -2.096889   -0.211916   -0.088337
      9          6           0       -3.188704   -0.182489    0.414424
     10          1           0        1.583192    2.383750   -0.295666
     11          1           0        0.771435    1.894100   -1.785762
     12          1           0       -0.164877    2.660601   -0.485927
     13          1           0        0.765362    1.381073    1.647911
     14          1           0        1.861134   -0.470906   -1.350737
     15          1           0        1.854103   -0.760663    1.420791
     16          1           0        0.092189   -2.266811   -1.317899
     17          1           0       -0.106767   -2.017946    0.435544
     18          1           0       -0.870480   -0.014794   -1.766649
     19          1           0       -4.148929   -0.156184    0.866409
 ---------------------------------------------------------------------

 SCF Done:  E(RB3LYP) =  -423.138928774     A.U. after    1 cycles

 The electronic state is 1-A.
 Alpha  occ. eigenvalues --  -19.15453 -19.13481 -10.24510 -10.22896 -10.20998
 Alpha  occ. eigenvalues --  -10.18813 -10.18316 -10.17497 -10.16525  -1.04507
 Alpha  occ. eigenvalues --   -1.01288  -0.84394  -0.74709  -0.73261  -0.66384
 Alpha  occ. eigenvalues --   -0.63168  -0.58607  -0.53764  -0.50740  -0.48493
 Alpha  occ. eigenvalues --   -0.46760  -0.44628  -0.42939  -0.42508  -0.41460
 Alpha  occ. eigenvalues --   -0.38774  -0.36450  -0.35869  -0.33748  -0.32106
 Alpha  occ. eigenvalues --   -0.28993  -0.25949  -0.25380  -0.24765
 Alpha virt. eigenvalues --    0.04518   0.05186   0.06804   0.10123   0.10827
 Alpha virt. eigenvalues --    0.12592   0.13237   0.13969   0.14734   0.15810
 Alpha virt. eigenvalues --    0.17064   0.19086   0.19420   0.21310   0.21531

 Mulliken charges:
               1
     1  C   -0.489022
     2  C    0.362160
     3  O   -0.467189
     4  C    0.111067
     5  O   -0.439764
     6  C   -0.289575
     7  C   -0.230851
     8  C    0.342897
     9  C   -0.449069
    10  H    0.120408
    11  H    0.124431
    12  H    0.135654
    13  H    0.287777
    14  H    0.084990
    15  H    0.277132
    16  H    0.106854
    17  H    0.118969
    18  H    0.101758
    19  H    0.191373
 Sum of Mulliken charges =   0.00000

 Dipole moment (field-independent basis, Debye):
    X=              0.0962    Y=              1.5123    Z=             -0.3583  Tot=              1.5571
 Quadrupole moment (field-independent basis, Debye-Ang):
   XX=            -56.7932   YY=            -51.6322   ZZ=            -49.3742
   XY=              3.4563   XZ=             -0.4486   YZ=              1.2660

  Exact polarizability:  95.826   0.868  69.779  -7.352   0.871  67.761
 Approx polarizability: 139.996  -1.021  94.218 -16.551   1.818 106.605

                      1                      2                      3
                      A                      A                      A
 Frequencies --     70.4190               129.0012               159.5023
 Red. masses --      3.9972                 3.7665                 1.1789
 Frc consts  --      0.0117                 0.0369                 0.0177
 IR Inten    --      1.7204                 2.6367               139.1003

                      4                      5                      6
                      A                      A                      A
 Frequencies --    180.7073               227.7307               253.9580
 Red. masses --      3.4374                 1.3902                 2.1046
 Frc consts  --      0.0661                 0.0425                 0.0800
 IR Inten    --      7.7483                 1.7226                 0.0904

                      7                      8                      9
                      A                      A                      A
 Frequencies --    283.1956               349.5938               360.8052
 Red. masses --      2.8104                 4.0822                 3.6695
 Frc consts  --      0.1328                 0.2939                 0.2815
 IR Inten    --      3.9659                 3.5613                 0.8952

                     10                     11                     12
                      A                      A                      A
 Frequencies --    423.2559               483.1559               522.3083
 Red. masses --      3.0525                 5.4435                 3.8987
 Frc consts  --      0.3222                 0.7487                 0.6266
 IR Inten    --      8.2786                 2.2438                 1.3948

                     13                     14                     15
                      A                      A                      A
 Frequencies --    538.7649               597.8009               616.6211
 Red. masses --      1.1676                 2.2968                 1.2958
 Frc consts  --      0.1997                 0.4836                 0.2903
 IR Inten    --     43.9471                 1.9188                38.0059

                     16                     17                     18
                      A                      A                      A
 Frequencies --    626.6066               654.3543               749.7771
 Red. masses --      1.2879                 2.7961                 3.1505
 Frc consts  --      0.2979                 0.7054                 1.0435
 IR Inten    --     41.5587                 5.5264                11.9680

                     19                     20                     21
                      A                      A                      A
 Frequencies --    786.4606               891.2067               919.2486
 Red. masses --      2.4375                 2.4252                 2.1118
 Frc consts  --      0.8883                 1.1349                 1.0514
 IR Inten    --      9.4206                 1.5416                23.9781

                     22                     23                     24
                      A                      A                      A
 Frequencies --    964.3720              1032.7232              1046.7322
 Red. masses --      1.7511                 3.7495                 2.4995
 Frc consts  --      0.9595                 2.3561                 1.6135
 IR Inten    --      5.0432                12.4107                29.4567

                     25                     26                     27
                      A                      A                      A
 Frequencies --   1093.2728              1117.7813              1140.9227
 Red. masses --      1.6223                 1.5833                 2.1878
 Frc consts  --      1.1425                 1.1656                 1.6779
 IR Inten    --     14.5633                14.9469                75.0676

                     28                     29                     30
                      A                      A                      A
 Frequencies --   1158.9073              1183.3033              1202.1572
 Red. masses --      2.6003                 2.2922                 1.2066
 Frc consts  --      2.0577                 1.8910                 1.0274
 IR Inten    --     41.1027                64.6754                 9.9752

                     31                     32                     33
                      A                      A                      A
 Frequencies --   1250.9829              1287.4720              1324.0506
 Red. masses --      1.4421                 1.6317                 1.4368
 Frc consts  --      1.3297                 1.5935                 1.4840
 IR Inten    --      6.1902                 2.2864                 9.7085

                     34                     35                     36
                      A                      A                      A
 Frequencies --   1345.5156              1389.8395              1409.9057
 Red. masses --      1.6428                 1.6194                 1.3983
 Frc consts  --      1.7523                 1.8431                 1.6377
 IR Inten    --     12.6750                30.3787                16.8454

                     37                     38                     39
                      A                      A                      A
 Frequencies --   1447.3360              1481.9812              1490.7109
 Red. masses --      1.2643                 1.1262                 1.0520
 Frc consts  --      1.5604                 1.4574                 1.3774
 IR Inten    --     71.3804                 5.9200                 5.7799

                     40                     41                     42
                      A                      A                      A
 Frequencies --   1492.0920              2236.6720              3021.3258
 Red. masses --      1.0644                 5.9807                 1.0385
 Frc consts  --      1.3962                17.6281                 5.5856
 IR Inten    --      8.0183                 4.4823                18.4255

                     43                     44                     45
                      A                      A                      A
 Frequencies --   3044.5053              3068.3724              3075.7972
 Red. masses --      1.0829                 1.0869                 1.0580
 Frc consts  --      5.9139                 6.0293                 5.8975
 IR Inten    --      8.8429                25.4246                22.3681

                     46                     47                     48
                      A                      A                      A
 Frequencies --   3089.7165              3112.1512              3136.9305
 Red. masses --      1.0971                 1.1015                 1.1089
 Frc consts  --      6.1708                 6.2860                 6.4292
 IR Inten    --     18.8128                15.4738                25.0150

                     49                     50                     51
                      A                      A                      A
 Frequencies --   3505.6030              3748.6848              3818.2560
 Red. masses --      1.1611                 1.0644                 1.0663
 Frc consts  --      8.4069                 8.8127                 9.1596
 IR Inten    --     69.6349                26.1431                26.3521

 - Thermochemistry -
 -------------------
 Temperature   298.150 Kelvin.  Pressure   1.00000 Atm.
 Atom     1 has atomic number  6 and mass  12.00000

 Molecular mass:   126.06808 amu.
 Principal axes and moments of inertia in atomic units:
                           1         2         3
     Eigenvalues --   715.978351405.318241635.67834
           X            0.99971   0.02154  -0.01057
           Y           -0.02181   0.99944  -0.02530
           Z            0.01002   0.02552   0.99962
 This molecule is an asymmetric top.
 Rotational symmetry number  1.
 Warning -- assumption of classical behavior for rotation
           may cause significant error
 Rotational temperatures (Kelvin)      0.12097     0.06163     0.05295
 Rotational constants (GHZ):           2.52066     1.28422     1.10336
 Zero-point vibrational energy     409975.5 (Joules/Mol)
                                   97.98649 (Kcal/Mol)
 Warning -- explicit consideration of  15 degrees of freedom as
           vibrations may cause significant error
 Vibrational temperatures:    101.32   185.60   229.49   260.00   327.65
          (Kelvin)            365.39   407.45   502.99   519.12   608.97
                              695.15   751.48   775.16   860.10   887.18
                              901.55   941.47  1078.76  1131.54  1282.25
                             1322.59  1387.51  1485.86  1506.01  1572.97
                             1608.24  1641.53  1667.41  1702.51  1729.63
                             1799.88  1852.38  1905.01  1935.89  1999.67
                             2028.54  2082.39  2132.24  2144.80  2146.78
                             3218.07  4347.01  4380.36  4414.70  4425.38
                             4445.41  4477.69  4513.34  5043.77  5393.51
                             5493.61

 Zero-point correction=                           0.156151 (Hartree/Particle)
 Thermal correction to Energy=                    0.165942
 Thermal correction to Enthalpy=                  0.166886
 Thermal correction to Gibbs Free Energy=         0.121940
 Sum of electronic and zero-point Energies=           -422.982777
 Sum of electronic and thermal Energies=              -422.972987
 Sum of electronic and thermal Enthalpies=            -422.972042
 Sum of electronic and thermal Free Energies=         -423.016989

                     E (Thermal)             CV                S
                      KCal/Mol        Cal/Mol-Kelvin    Cal/Mol-Kelvin
 Total                  104.130             37.071             94.598
 Electronic               0.000              0.000              0.000
 Translational            0.889              2.981             40.409
 Rotational               0.889              2.981             28.889
 Vibrational            102.353             31.110             25.301
 Vibration     1          0.598              1.968              4.142
 Vibration     2          0.611              1.924              2.961
 Vibration     3          0.621              1.892              2.556
 Vibration     4          0.630              1.866              2.321
 Vibration     5          0.651              1.799              1.897
 Vibration     6          0.665              1.756              1.703
 Vibration     7          0.682              1.705              1.514
 Vibration     8          0.727              1.576              1.168
 Vibration     9          0.735              1.553              1.119
 Vibration    10          0.785              1.420              0.881
 Vibration    11          0.839              1.287              0.702
 Vibration    12          0.877              1.201              0.605
 Vibration    13          0.894              1.164              0.568
 Vibration    14          0.956              1.036              0.453
 Vibration    15          0.976              0.997              0.422

 Optimization completed.
    -- Stationary point found.
 Normal termination of Gaussian 09 at Tue Jan 28 02:53:03 2020.
