 Gaussian 09, Revision D.01,
 Gaussian 09:  ES64L-G09RevD.01 24-Apr-2013

 -----------------------------
 # b3lyp 6-31G(2df,p) opt Freq
 -----------------------------

 -----
 titel
 -----
 Symbolic Z-matrix:
 Charge =  0 Multiplicity = 1

 SCF Done:  E(RB3LYP) =  -423.191815614     A.U. after   14 cycles
 Optimization completed.
    -- Stationary point found.
 Normal termination of Gaussian 09 at Tue Jan 28 14:01:18 2020.

 ----------------------------------------------------------------------
 #N Geom=AllCheck Guess=TCheck SCRF=Check GenChk RB3LYP/6-31G(2df,p) Fr
 eq
 ----------------------------------------------------------------------

 Structure from the checkpoint file:  "/scratch/puck/g09_765cfdbb-138e-43c5-8a5d-eb67c515a4b5/Gau-9703.chk"
 -----
 titel
 -----
 Charge =  0 Multiplicity = 1

                         Standard orientation:
 ---------------------------------------------------------------------
 Center     Atomic      Atomic             Coordinates (Angstroms)
 Number     Number       Type             X           Y           Z
 ---------------------------------------------------------------------
      1          6           0       -2.929185    0.262657   -0.764433
      2          6           0       -2.092484   -0.581197    0.204871
      3          6           0       -0.636718   -0.687784   -0.203886
      4          6           0        0.405166   -0.973478    0.817544
      5          8           0        1.666186   -1.248203    0.144854
      6          6           0        1.692522    0.057186   -0.336693
      7          8           0        2.567431    0.586377   -0.941491
      8          6           0        0.349743    0.425178    0.250108
      9          6           0       -0.004731    1.780370    0.788492
     10          1           0       -3.980112    0.279207   -0.461307
     11          1           0       -2.573130    1.296443   -0.805533
     12          1           0       -2.879923   -0.144772   -1.779564
     13          1           0       -2.171904   -0.176147    1.220595
     14          1           0       -2.503684   -1.597298    0.254130
     15          1           0       -0.473692   -1.124778   -1.187486
     16          1           0        0.284791   -1.353150    1.822890
     17          1           0        0.749106    2.128602    1.501531
     18          1           0       -0.054360    2.512042   -0.024551
     19          1           0       -0.971893    1.776865    1.296375
 ---------------------------------------------------------------------

 SCF Done:  E(RB3LYP) =  -423.191815614     A.U. after    1 cycles

 The electronic state is 1-A.
 Alpha  occ. eigenvalues --  -19.17371 -19.13328 -10.30542 -10.25799 -10.22088
 Alpha  occ. eigenvalues --  -10.21931 -10.20520 -10.19895 -10.18890  -1.10486
 Alpha  occ. eigenvalues --   -1.03306  -0.87098  -0.77843  -0.73632  -0.66379
 Alpha  occ. eigenvalues --   -0.64119  -0.59182  -0.53091  -0.50481  -0.49596
 Alpha  occ. eigenvalues --   -0.46391  -0.45247  -0.42861  -0.42173  -0.41663
 Alpha  occ. eigenvalues --   -0.41256  -0.39472  -0.37444  -0.36347  -0.35894
 Alpha  occ. eigenvalues --   -0.34372  -0.29119  -0.27211  -0.26789
 Alpha virt. eigenvalues --    0.00659   0.07017   0.09541   0.10013   0.11145
 Alpha virt. eigenvalues --    0.11653   0.12823   0.14183   0.15067   0.15913
 Alpha virt. eigenvalues --    0.16823   0.17664   0.18770   0.20337   0.20877

 Mulliken charges:
               1
     1  C   -0.376034
     2  C   -0.230258
     3  C   -0.067296
     4  C    0.022460
     5  O   -0.268736
     6  C    0.433042
     7  O   -0.330469
     8  C    0.086214
     9  C   -0.499303
    10  H    0.119091
    11  H    0.125687
    12  H    0.124505
    13  H    0.102418
    14  H    0.113623
    15  H    0.107799
    16  H    0.127360
    17  H    0.136445
    18  H    0.143531
    19  H    0.129920
 Sum of Mulliken charges =   0.00000

 Dipole moment (field-independent basis, Debye):
    X=             -4.1547    Y=              0.1117    Z=              1.8492  Tot=              4.5491
 Quadrupole moment (field-independent basis, Debye-Ang):
   XX=            -61.5774   YY=            -53.5661   ZZ=            -51.9045
   XY=              0.6090   XZ=              3.6240   YZ=              0.9398

  Exact polarizability:  88.989   4.357  73.264  -2.426  -2.197  65.284
 Approx polarizability: 120.523   9.766 113.270  -8.431  -8.047 101.537

                      1                      2                      3
                      A                      A                      A
 Frequencies --     98.8028               109.8303               144.8668
 Red. masses --      2.7194                 4.0969                 1.0421
 Frc consts  --      0.0156                 0.0291                 0.0129
 IR Inten    --      1.2065                 1.4198                 0.0654

                      4                      5                      6
                      A                      A                      A
 Frequencies --    172.8842               217.2106               253.8049
 Red. masses --      2.2605                 1.4403                 2.6696
 Frc consts  --      0.0398                 0.0400                 0.1013
 IR Inten    --      0.3866                 0.0799                 1.1546

                      7                      8                      9
                      A                      A                      A
 Frequencies --    290.6235               314.4812               374.6037
 Red. masses --      2.9484                 2.8085                 3.2615
 Frc consts  --      0.1467                 0.1637                 0.2697
 IR Inten    --      0.2754                 1.0232                 0.3531

                     10                     11                     12
                      A                      A                      A
 Frequencies --    481.0062               558.0129               657.9405
 Red. masses --      3.4477                 3.3077                 6.4234
 Frc consts  --      0.4700                 0.6068                 1.6383
 IR Inten    --      2.5485                 3.0033                 2.8352

                     13                     14                     15
                      A                      A                      A
 Frequencies --    682.4523               775.1920               792.1437
 Red. masses --      4.3372                 2.3060                 2.5004
 Frc consts  --      1.1902                 0.8165                 0.9244
 IR Inten    --      1.2707                 9.6984                10.1987

                     16                     17                     18
                      A                      A                      A
 Frequencies --    854.2752               865.8886               909.0449
 Red. masses --      2.5984                 2.2827                 2.3715
 Frc consts  --      1.1173                 1.0084                 1.1547
 IR Inten    --      6.1271                12.5665                49.0722

                     19                     20                     21
                      A                      A                      A
 Frequencies --    925.3021               982.4336              1028.2109
 Red. masses --      2.1063                 1.9222                 2.2641
 Frc consts  --      1.0625                 1.0931                 1.4103
 IR Inten    --     24.2623                17.5991                 2.0775

                     22                     23                     24
                      A                      A                      A
 Frequencies --   1057.9292              1063.4321              1104.8359
 Red. masses --      2.1093                 1.6128                 1.6538
 Frc consts  --      1.3909                 1.0746                 1.1894
 IR Inten    --     50.7332                13.9162                 1.3501

                     25                     26                     27
                      A                      A                      A
 Frequencies --   1116.2217              1132.2621              1148.0712
 Red. masses --      1.9460                 1.7330                 2.3376
 Frc consts  --      1.4285                 1.3090                 1.8153
 IR Inten    --      4.3696                 5.1111                 2.5740

                     28                     29                     30
                      A                      A                      A
 Frequencies --   1228.6002              1248.1789              1290.3244
 Red. masses --      2.4593                 1.6062                 1.3071
 Frc consts  --      2.1872                 1.4744                 1.2822
 IR Inten    --     24.6178                16.5014                 2.4594

                     31                     32                     33
                      A                      A                      A
 Frequencies --   1331.1040              1385.9390              1414.2670
 Red. masses --      1.4206                 1.8694                 1.2312
 Frc consts  --      1.4830                 2.1156                 1.4509
 IR Inten    --      7.0229                 1.4665                 2.7406

                     34                     35                     36
                      A                      A                      A
 Frequencies --   1418.0070              1442.2651              1482.6425
 Red. masses --      1.2907                 3.4022                 1.0638
 Frc consts  --      1.5290                 4.1697                 1.3778
 IR Inten    --      1.1018                 3.7331                 1.2012

                     37                     38                     39
                      A                      A                      A
 Frequencies --   1486.7701              1498.8328              1501.2865
 Red. masses --      1.0562                 1.0404                 1.0486
 Frc consts  --      1.3756                 1.3771                 1.3925
 IR Inten    --      4.0089                 6.3720                 3.1939

                     40                     41                     42
                      A                      A                      A
 Frequencies --   1507.9855              1936.1165              3028.2449
 Red. masses --      1.0803                12.8994                 1.0601
 Frc consts  --      1.4474                28.4893                 5.7279
 IR Inten    --      6.0079               457.4881                20.7808

                     43                     44                     45
                      A                      A                      A
 Frequencies --   3039.5937              3040.9360              3059.4530
 Red. masses --      1.0356                 1.0365                 1.1001
 Frc consts  --      5.6372                 5.6472                 6.0669
 IR Inten    --     18.4967                20.5275                13.2876

                     46                     47                     48
                      A                      A                      A
 Frequencies --   3100.9886              3108.3729              3114.4331
 Red. masses --      1.1013                 1.1015                 1.1019
 Frc consts  --      6.2398                 6.2703                 6.2971
 IR Inten    --     14.9318                22.8884                33.6482

                     49                     50                     51
                      A                      A                      A
 Frequencies --   3122.0482              3125.2585              3217.3173
 Red. masses --      1.0992                 1.0895                 1.0949
 Frc consts  --      6.3125                 6.2700                 6.6772
 IR Inten    --     11.0844                17.9039                 4.1285

 - Thermochemistry -
 -------------------
 Temperature   298.150 Kelvin.  Pressure   1.00000 Atm.
 Atom     1 has atomic number  6 and mass  12.00000

 Molecular mass:   126.06808 amu.
 Principal axes and moments of inertia in atomic units:
                           1         2         3
     Eigenvalues --   601.557981587.663371802.08438
           X            0.99982  -0.00175   0.01906
           Y            0.00086   0.99892   0.04656
           Z           -0.01912  -0.04653   0.99873
 This molecule is an asymmetric top.
 Rotational symmetry number  1.
 Warning -- assumption of classical behavior for rotation
           may cause significant error
 Rotational temperatures (Kelvin)      0.14398     0.05455     0.04806
 Rotational constants (GHZ):           3.00011     1.13673     1.00147
 Zero-point vibrational energy     414151.5 (Joules/Mol)
                                   98.98459 (Kcal/Mol)
 Warning -- explicit consideration of  11 degrees of freedom as
           vibrations may cause significant error
 Vibrational temperatures:    142.16   158.02   208.43   248.74   312.52
          (Kelvin)            365.17   418.14   452.47   538.97   692.06
                              802.86   946.63   981.90  1115.33  1139.72
                             1229.11  1245.82  1307.91  1331.30  1413.50
                             1479.36  1522.12  1530.04  1589.61  1605.99
                             1629.07  1651.82  1767.68  1795.85  1856.49
                             1915.16  1994.05  2034.81  2040.19  2075.10
                             2133.19  2139.13  2156.48  2160.01  2169.65
                             2785.64  4356.96  4373.29  4375.22  4401.87
                             4461.63  4472.25  4480.97  4491.93  4496.54
                             4629.00

 Zero-point correction=                           0.157742 (Hartree/Particle)
 Thermal correction to Energy=                    0.166861
 Thermal correction to Enthalpy=                  0.167805
 Thermal correction to Gibbs Free Energy=         0.123831
 Sum of electronic and zero-point Energies=           -423.034074
 Sum of electronic and thermal Energies=              -423.024954
 Sum of electronic and thermal Enthalpies=            -423.024010
 Sum of electronic and thermal Free Energies=         -423.067984

                     E (Thermal)             CV                S
                      KCal/Mol        Cal/Mol-Kelvin    Cal/Mol-Kelvin
 Total                  104.707             33.544             92.551
 Electronic               0.000              0.000              0.000
 Translational            0.889              2.981             40.409
 Rotational               0.889              2.981             28.933
 Vibrational            102.930             27.583             23.210
 Vibration     1          0.604              1.950              3.478
 Vibration     2          0.606              1.941              3.272
 Vibration     3          0.616              1.908              2.739
 Vibration     4          0.626              1.876              2.404
 Vibration     5          0.646              1.815              1.982
 Vibration     6          0.665              1.756              1.704
 Vibration     7          0.687              1.691              1.470
 Vibration     8          0.702              1.646              1.339
 Vibration     9          0.746              1.524              1.061
 Vibration    10          0.837              1.292              0.707
 Vibration    11          0.914              1.122              0.528

 Normal termination of Gaussian 09 at Tue Jan 28 14:47:52 2020.
