 Gaussian 09, Revision D.01,
 Gaussian 09:  ES64L-G09RevD.01 24-Apr-2013

 -----------------------------
 # b3lyp 6-31G(2df,p) opt Freq
 -----------------------------

 -----
 titel
 -----
 Symbolic Z-matrix:
 Charge =  0 Multiplicity = 1

 SCF Done:  E(RB3LYP) =  -423.174503136     A.U. after   13 cycles
 Optimization completed.
    -- Stationary point found.
 Normal termination of Gaussian 09 at Tue Jan 28 03:08:25 2020.

 ----------------------------------------------------------------------
 #N Geom=AllCheck Guess=TCheck SCRF=Check GenChk RB3LYP/6-31G(2df,p) Fr
 eq
 ----------------------------------------------------------------------

 Structure from the checkpoint file:  "/scratch/puck/g09_c4162ed3-a22e-475a-8c2c-841770c98515/Gau-44624.chk"
 -----
 titel
 -----
 Charge =  0 Multiplicity = 1

                         Standard orientation:
 ---------------------------------------------------------------------
 Center     Atomic      Atomic             Coordinates (Angstroms)
 Number     Number       Type             X           Y           Z
 ---------------------------------------------------------------------
      1          6           0        2.577565    0.232795    0.192085
      2          6           0        1.193342    0.412309   -0.424544
      3          8           0        0.715236   -0.838118   -0.953272
      4          6           0       -0.153428   -1.418590   -0.020987
      5          6           0       -1.528959   -0.796381    0.156788
      6          8           0       -1.846412    0.323530   -0.624294
      7          6           0       -1.126253    1.443297   -0.103528
      8          6           0        0.115976    0.858979    0.589790
      9          6           0       -0.420513   -0.484047    1.130580
     10          1           0        3.258475   -0.210359   -0.539536
     11          1           0        2.991042    1.195614    0.511543
     12          1           0        2.532564   -0.429648    1.062814
     13          1           0        1.251987    1.104113   -1.272462
     14          1           0       -0.023362   -2.488768    0.104016
     15          1           0       -2.379531   -1.420615    0.410926
     16          1           0       -0.888999    2.109817   -0.938352
     17          1           0       -1.750551    1.992143    0.618020
     18          1           0        0.515496    1.519082    1.361924
     19          1           0       -0.404090   -0.744843    2.180532
 ---------------------------------------------------------------------

 SCF Done:  E(RB3LYP) =  -423.174503136     A.U. after    1 cycles

 The electronic state is 1-A.
 Alpha  occ. eigenvalues --  -19.13912 -19.13762 -10.23360 -10.23053 -10.23002
 Alpha  occ. eigenvalues --  -10.22869 -10.19896 -10.19200 -10.17576  -1.05640
 Alpha  occ. eigenvalues --   -1.02224  -0.83801  -0.79253  -0.72783  -0.64908
 Alpha  occ. eigenvalues --   -0.59758  -0.58287  -0.56851  -0.53373  -0.47534
 Alpha  occ. eigenvalues --   -0.46240  -0.44212  -0.43479  -0.43237  -0.39946
 Alpha  occ. eigenvalues --   -0.39662  -0.37505  -0.35608  -0.34777  -0.32828
 Alpha  occ. eigenvalues --   -0.31861  -0.28347  -0.25536  -0.21998
 Alpha virt. eigenvalues --    0.08165   0.10268   0.10824   0.11986   0.12367
 Alpha virt. eigenvalues --    0.14030   0.14472   0.15469   0.16239   0.16851
 Alpha virt. eigenvalues --    0.17370   0.19181   0.19926   0.20736   0.21917

 Mulliken charges:
               1
     1  C   -0.404816
     2  C    0.138175
     3  O   -0.264914
     4  C    0.061120
     5  C    0.064792
     6  O   -0.253656
     7  C   -0.085121
     8  C   -0.083273
     9  C   -0.181123
    10  H    0.126804
    11  H    0.110137
    12  H    0.120795
    13  H    0.084040
    14  H    0.096478
    15  H    0.097075
    16  H    0.108932
    17  H    0.091123
    18  H    0.080602
    19  H    0.092830
 Sum of Mulliken charges =   0.00000

 Dipole moment (field-independent basis, Debye):
    X=              0.8296    Y=              0.7713    Z=              2.2617  Tot=              2.5296
 Quadrupole moment (field-independent basis, Debye-Ang):
   XX=            -54.9391   YY=            -49.1522   ZZ=            -54.5661
   XY=              2.4370   XZ=             -1.8438   YZ=             -2.0039

  Exact polarizability:  79.529   2.156  76.205  -1.501  -1.573  63.628
 Approx polarizability: 106.439   2.867 111.135  -0.609   0.288 102.477

                      1                      2                      3
                      A                      A                      A
 Frequencies --    100.2348               213.6939               241.4485
 Red. masses --      3.5094                 4.5237                 1.1268
 Frc consts  --      0.0208                 0.1217                 0.0387
 IR Inten    --      1.7532                 2.2530                 0.1544

                      4                      5                      6
                      A                      A                      A
 Frequencies --    269.9388               337.3306               435.3594
 Red. masses --      2.1620                 3.2607                 2.8674
 Frc consts  --      0.0928                 0.2186                 0.3202
 IR Inten    --      0.9473                 0.9216                 2.1984

                      7                      8                      9
                      A                      A                      A
 Frequencies --    582.0505               641.5324               728.0281
 Red. masses --      3.5779                 3.7426                 4.4252
 Frc consts  --      0.7142                 0.9075                 1.3819
 IR Inten    --      8.8950                 0.6361                 4.1354

                     10                     11                     12
                      A                      A                      A
 Frequencies --    734.3064               766.8061               784.5229
 Red. masses --      5.9958                 3.3725                 2.5434
 Frc consts  --      1.9048                 1.1684                 0.9223
 IR Inten    --      8.8023                30.7428                 1.8590

                     13                     14                     15
                      A                      A                      A
 Frequencies --    796.1008               819.4697               885.6620
 Red. masses --      1.6129                 2.8209                 2.5640
 Frc consts  --      0.6023                 1.1161                 1.1850
 IR Inten    --      3.6943                10.3150                 4.2914

                     16                     17                     18
                      A                      A                      A
 Frequencies --    933.5338               957.3177               993.3554
 Red. masses --      2.6042                 2.5910                 2.1578
 Frc consts  --      1.3372                 1.3990                 1.2545
 IR Inten    --      3.0659                 6.9917                 5.0505

                     19                     20                     21
                      A                      A                      A
 Frequencies --   1003.8441              1013.2500              1047.9553
 Red. masses --      1.5321                 1.5790                 2.0091
 Frc consts  --      0.9096                 0.9551                 1.3000
 IR Inten    --      0.1442                 3.0727                27.5978

                     22                     23                     24
                      A                      A                      A
 Frequencies --   1058.4582              1073.7997              1098.7938
 Red. masses --      2.3134                 1.4825                 2.0214
 Frc consts  --      1.5270                 1.0071                 1.4379
 IR Inten    --     25.1554                 2.2511                18.9533

                     25                     26                     27
                      A                      A                      A
 Frequencies --   1116.2273              1131.9596              1137.4181
 Red. masses --      4.3170                 1.8185                 2.0669
 Frc consts  --      3.1691                 1.3728                 1.5755
 IR Inten    --     33.7629                11.4305                 4.3862

                     28                     29                     30
                      A                      A                      A
 Frequencies --   1183.8152              1213.6912              1242.7952
 Red. masses --      2.7573                 1.3969                 1.5536
 Frc consts  --      2.2766                 1.2124                 1.4138
 IR Inten    --    112.9950                14.9486                 5.0459

                     31                     32                     33
                      A                      A                      A
 Frequencies --   1267.9867              1295.7468              1309.4227
 Red. masses --      1.3211                 1.3528                 1.3769
 Frc consts  --      1.2515                 1.3382                 1.3909
 IR Inten    --      0.2300                 5.9427                 0.4153

                     34                     35                     36
                      A                      A                      A
 Frequencies --   1339.8512              1365.3898              1396.0795
 Red. masses --      1.5608                 1.4688                 1.3740
 Frc consts  --      1.6508                 1.6133                 1.5778
 IR Inten    --     13.1386                12.8656                 0.5755

                     37                     38                     39
                      A                      A                      A
 Frequencies --   1402.1323              1412.6833              1487.0077
 Red. masses --      1.3082                 1.9235                 1.0529
 Frc consts  --      1.5153                 2.2617                 1.3717
 IR Inten    --     11.1927                 6.9658                 2.2573

                     40                     41                     42
                      A                      A                      A
 Frequencies --   1494.4582              1515.9933              2986.8358
 Red. masses --      1.0486                 1.0981                 1.0698
 Frc consts  --      1.3798                 1.4869                 5.6233
 IR Inten    --      2.4332                 0.5930                76.0501

                     43                     44                     45
                      A                      A                      A
 Frequencies --   3033.4855              3044.8269              3082.6715
 Red. masses --      1.0354                 1.0857                 1.0943
 Frc consts  --      5.6137                 5.9304                 6.1266
 IR Inten    --     15.4824                20.9334                33.4725

                     46                     47                     48
                      A                      A                      A
 Frequencies --   3099.3822              3105.1215              3119.2005
 Red. masses --      1.0894                 1.0992                 1.1014
 Frc consts  --      6.1656                 6.2443                 6.3136
 IR Inten    --     10.2822                41.7617                21.2733

                     49                     50                     51
                      A                      A                      A
 Frequencies --   3157.2580              3165.1633              3193.2082
 Red. masses --      1.0890                 1.0918                 1.0954
 Frc consts  --      6.3960                 6.4444                 6.5809
 IR Inten    --      7.0636                38.2088                12.6480

 - Thermochemistry -
 -------------------
 Temperature   298.150 Kelvin.  Pressure   1.00000 Atm.
 Atom     1 has atomic number  6 and mass  12.00000

 Molecular mass:   126.06808 amu.
 Principal axes and moments of inertia in atomic units:
                           1         2         3
     Eigenvalues --   575.423631062.616541248.29862
           X            0.99984   0.01764  -0.00262
           Y           -0.01773   0.99895  -0.04225
           Z            0.00187   0.04229   0.99910
 This molecule is an asymmetric top.
 Rotational symmetry number  1.
 Warning -- assumption of classical behavior for rotation
           may cause significant error
 Rotational temperatures (Kelvin)      0.15052     0.08151     0.06939
 Rotational constants (GHZ):           3.13637     1.69839     1.44576
 Zero-point vibrational energy     423577.4 (Joules/Mol)
                                  101.23742 (Kcal/Mol)
 Warning -- explicit consideration of   7 degrees of freedom as
           vibrations may cause significant error
 Vibrational temperatures:    144.22   307.46   347.39   388.38   485.34
          (Kelvin)            626.38   837.44   923.02  1047.47  1056.50
                             1103.26  1128.75  1145.41  1179.03  1274.27
                             1343.15  1377.36  1429.22  1444.31  1457.84
                             1507.77  1522.88  1544.96  1580.92  1606.00
                             1628.64  1636.49  1703.24  1746.23  1788.10
                             1824.35  1864.29  1883.96  1927.74  1964.49
                             2008.64  2017.35  2032.53  2139.47  2150.19
                             2181.17  4297.39  4364.50  4380.82  4435.27
                             4459.31  4467.57  4487.83  4542.58  4553.96
                             4594.31

 Zero-point correction=                           0.161332 (Hartree/Particle)
 Thermal correction to Energy=                    0.168457
 Thermal correction to Enthalpy=                  0.169401
 Thermal correction to Gibbs Free Energy=         0.129889
 Sum of electronic and zero-point Energies=           -423.013171
 Sum of electronic and thermal Energies=              -423.006047
 Sum of electronic and thermal Enthalpies=            -423.005102
 Sum of electronic and thermal Free Energies=         -423.044614

                     E (Thermal)             CV                S
                      KCal/Mol        Cal/Mol-Kelvin    Cal/Mol-Kelvin
 Total                  105.708             28.806             83.160
 Electronic               0.000              0.000              0.000
 Translational            0.889              2.981             40.409
 Rotational               0.889              2.981             28.125
 Vibrational            103.931             22.844             14.626
 Vibration     1          0.604              1.949              3.450
 Vibration     2          0.644              1.820              2.012
 Vibration     3          0.658              1.777              1.792
 Vibration     4          0.674              1.729              1.597
 Vibration     5          0.718              1.601              1.225
 Vibration     6          0.796              1.393              0.841
 Vibration     7          0.939              1.070              0.482

 Optimization completed.
    -- Stationary point found.
 Normal termination of Gaussian 09 at Tue Jan 28 05:14:31 2020.
