 Gaussian 09, Revision D.01,
 Gaussian 09:  ES64L-G09RevD.01 24-Apr-2013

 -----------------------------
 # b3lyp 6-31G(2df,p) opt Freq
 -----------------------------

 -----
 titel
 -----
 Symbolic Z-matrix:
 Charge =  0 Multiplicity = 1

 SCF Done:  E(RB3LYP) =  -423.174142610     A.U. after   14 cycles
 Optimization completed.
    -- Stationary point found.
 Normal termination of Gaussian 09 at Tue Jan 28 02:17:38 2020.

 ----------------------------------------------------------------------
 #N Geom=AllCheck Guess=TCheck SCRF=Check GenChk RB3LYP/6-31G(2df,p) Fr
 eq
 ----------------------------------------------------------------------

 Structure from the checkpoint file:  "/scratch/puck/g09_54189572-ead2-4106-81c3-90100439eda6/Gau-112227.chk"
 -----
 titel
 -----
 Charge =  0 Multiplicity = 1

                         Standard orientation:
 ---------------------------------------------------------------------
 Center     Atomic      Atomic             Coordinates (Angstroms)
 Number     Number       Type             X           Y           Z
 ---------------------------------------------------------------------
      1          6           0        3.303759   -0.407737    0.473372
      2          6           0        2.067091   -0.197450   -0.360736
      3          8           0        1.567856    1.141122   -0.448138
      4          6           0        0.765897    0.166285    0.223659
      5          6           0       -0.538966   -0.208247   -0.422407
      6          6           0       -1.261436   -1.528909    0.005743
      7          6           0       -2.622194   -0.774757    0.090304
      8          6           0       -1.824503    0.537616    0.012108
      9          8           0       -2.058934    1.671713    0.307007
     10          1           0        4.192308   -0.055763   -0.061001
     11          1           0        3.233269    0.141320    1.416160
     12          1           0        3.443692   -1.471318    0.694915
     13          1           0        2.049475   -0.731254   -1.313488
     14          1           0        0.723109    0.301721    1.306430
     15          1           0       -0.433377   -0.146583   -1.511674
     16          1           0       -1.203179   -2.355727   -0.702428
     17          1           0       -0.924304   -1.878347    0.985080
     18          1           0       -3.248463   -0.915834   -0.796729
     19          1           0       -3.241791   -0.911702    0.979524
 ---------------------------------------------------------------------

 SCF Done:  E(RB3LYP) =  -423.174142610     A.U. after    1 cycles

 The electronic state is 1-A.
 Alpha  occ. eigenvalues --  -19.14908 -19.13909 -10.27112 -10.24128 -10.24081
 Alpha  occ. eigenvalues --  -10.20299 -10.20218 -10.19758 -10.18669  -1.07106
 Alpha  occ. eigenvalues --   -1.04794  -0.85274  -0.74787  -0.72001  -0.63764
 Alpha  occ. eigenvalues --   -0.62824  -0.59624  -0.54253  -0.50173  -0.47193
 Alpha  occ. eigenvalues --   -0.46381  -0.44905  -0.43461  -0.42252  -0.40459
 Alpha  occ. eigenvalues --   -0.39408  -0.38243  -0.37269  -0.35871  -0.34453
 Alpha  occ. eigenvalues --   -0.34005  -0.30061  -0.26764  -0.24026
 Alpha virt. eigenvalues --   -0.02195   0.07781   0.10170   0.10387   0.11042
 Alpha virt. eigenvalues --    0.12191   0.13299   0.14462   0.15222   0.15835
 Alpha virt. eigenvalues --    0.16869   0.17268   0.17549   0.18400   0.20974

 Mulliken charges:
               1
     1  C   -0.419656
     2  C    0.074524
     3  O   -0.252978
     4  C    0.046951
     5  C   -0.118467
     6  C   -0.258063
     7  C   -0.336141
     8  C    0.384367
     9  O   -0.286596
    10  H    0.132146
    11  H    0.129895
    12  H    0.121496
    13  H    0.085484
    14  H    0.092711
    15  H    0.110285
    16  H    0.112969
    17  H    0.115885
    18  H    0.134464
    19  H    0.130723
 Sum of Mulliken charges =   0.00000

 Dipole moment (field-independent basis, Debye):
    X=              0.5144    Y=             -4.1433    Z=             -0.0878  Tot=              4.1760
 Quadrupole moment (field-independent basis, Debye-Ang):
   XX=            -51.3189   YY=            -59.7404   ZZ=            -50.5900
   XY=              2.6034   XZ=              2.0621   YZ=              0.4545

  Exact polarizability:  96.462  -0.791  72.534  -2.272   2.142  63.307
 Approx polarizability: 116.191  -3.171 117.555  -6.110   3.886  98.283

                      1                      2                      3
                      A                      A                      A
 Frequencies --     48.6456                80.5662               100.0097
 Red. masses --      4.2302                 2.7612                 3.4840
 Frc consts  --      0.0059                 0.0106                 0.0205
 IR Inten    --      0.2848                 0.6844                 0.8496

                      4                      5                      6
                      A                      A                      A
 Frequencies --    178.2309               194.8551               269.8840
 Red. masses --      2.6095                 1.1611                 3.4020
 Frc consts  --      0.0488                 0.0260                 0.1460
 IR Inten    --      2.9069                 0.1942                 0.8810

                      7                      8                      9
                      A                      A                      A
 Frequencies --    326.7920               359.5136               464.6118
 Red. masses --      3.1308                 3.2545                 4.0894
 Frc consts  --      0.1970                 0.2478                 0.5201
 IR Inten    --      2.8358                 1.0185                11.8865

                     10                     11                     12
                      A                      A                      A
 Frequencies --    472.7667               563.9505               686.1399
 Red. masses --      2.6254                 2.9228                 2.8254
 Frc consts  --      0.3457                 0.5477                 0.7837
 IR Inten    --      1.2207                 0.4061                 4.4079

                     13                     14                     15
                      A                      A                      A
 Frequencies --    747.5441               761.9929               815.4419
 Red. masses --      1.6712                 2.4676                 2.8601
 Frc consts  --      0.5503                 0.8442                 1.1205
 IR Inten    --      1.2639                 6.2848                 7.9204

                     16                     17                     18
                      A                      A                      A
 Frequencies --    874.7764               918.1494               932.4862
 Red. masses --      2.8005                 2.0351                 2.6381
 Frc consts  --      1.2627                 1.0108                 1.3515
 IR Inten    --     13.8509                 4.8503                 9.7040

                     19                     20                     21
                      A                      A                      A
 Frequencies --    978.7711               996.3702              1032.4082
 Red. masses --      2.8189                 1.4752                 1.6047
 Frc consts  --      1.5911                 0.8629                 1.0077
 IR Inten    --     24.4970                 0.9203                25.6035

                     22                     23                     24
                      A                      A                      A
 Frequencies --   1043.8886              1080.4081              1093.3691
 Red. masses --      2.2987                 2.8742                 1.9573
 Frc consts  --      1.4758                 1.9767                 1.3786
 IR Inten    --      6.4579                43.5498                13.1038

                     25                     26                     27
                      A                      A                      A
 Frequencies --   1151.9412              1166.9647              1177.9966
 Red. masses --      1.7965                 1.6319                 1.8937
 Frc consts  --      1.4045                 1.3094                 1.5482
 IR Inten    --     16.2728                 3.3603                 3.4056

                     28                     29                     30
                      A                      A                      A
 Frequencies --   1199.4641              1227.2848              1232.8136
 Red. masses --      1.4564                 1.2044                 1.4388
 Frc consts  --      1.2346                 1.0688                 1.2884
 IR Inten    --      0.8330                 2.3525                 4.5236

                     31                     32                     33
                      A                      A                      A
 Frequencies --   1248.7350              1281.1592              1297.6578
 Red. masses --      1.4075                 1.6024                 1.4533
 Frc consts  --      1.2931                 1.5496                 1.4419
 IR Inten    --      3.6759                 6.2531                 1.7613

                     34                     35                     36
                      A                      A                      A
 Frequencies --   1377.7971              1411.6387              1442.6089
 Red. masses --      1.2642                 1.2776                 1.0988
 Frc consts  --      1.4140                 1.5000                 1.3473
 IR Inten    --     26.1853                 7.1655                 5.8685

                     37                     38                     39
                      A                      A                      A
 Frequencies --   1473.7174              1489.1409              1492.4295
 Red. masses --      1.2936                 1.1174                 1.1010
 Frc consts  --      1.6553                 1.4599                 1.4449
 IR Inten    --      2.7563                 8.3143                 0.6946

                     40                     41                     42
                      A                      A                      A
 Frequencies --   1507.6035              1893.1424              3036.1348
 Red. masses --      1.7493                12.7609                 1.0356
 Frc consts  --      2.3426                26.9462                 5.6247
 IR Inten    --      7.1098               249.3137                20.0592

                     43                     44                     45
                      A                      A                      A
 Frequencies --   3051.4309              3059.7600              3073.1347
 Red. masses --      1.0812                 1.0622                 1.0621
 Frc consts  --      5.9312                 5.8594                 5.9101
 IR Inten    --      1.3543                10.3150                16.6142

                     46                     47                     48
                      A                      A                      A
 Frequencies --   3081.3388              3090.4123              3101.3587
 Red. masses --      1.0875                 1.0860                 1.1008
 Frc consts  --      6.0838                 6.1112                 6.2381
 IR Inten    --      9.9970                30.5743                18.0683

                     49                     50                     51
                      A                      A                      A
 Frequencies --   3116.5039              3123.1569              3136.2884
 Red. masses --      1.1032                 1.1013                 1.1062
 Frc consts  --      6.3131                 6.3289                 6.4111
 IR Inten    --      6.2505                26.4949                23.1237

 - Thermochemistry -
 -------------------
 Temperature   298.150 Kelvin.  Pressure   1.00000 Atm.
 Atom     1 has atomic number  6 and mass  12.00000

 Molecular mass:   126.06808 amu.
 Principal axes and moments of inertia in atomic units:
                           1         2         3
     Eigenvalues --   513.585511904.042242252.59082
           X            0.99989   0.01051   0.01022
           Y           -0.01055   0.99994   0.00384
           Z           -0.01018  -0.00395   0.99994
 This molecule is an asymmetric top.
 Rotational symmetry number  1.
 Warning -- assumption of classical behavior for rotation
           may cause significant error
 Rotational temperatures (Kelvin)      0.16865     0.04549     0.03845
 Rotational constants (GHZ):           3.51400     0.94785     0.80118
 Zero-point vibrational energy     412491.5 (Joules/Mol)
                                   98.58782 (Kcal/Mol)
 Warning -- explicit consideration of  11 degrees of freedom as
           vibrations may cause significant error
 Vibrational temperatures:     69.99   115.92   143.89   256.43   280.35
          (Kelvin)            388.30   470.18   517.26   668.47   680.20
                              811.40   987.20  1075.55  1096.34  1173.24
                             1258.61  1321.01  1341.64  1408.23  1433.55
                             1485.40  1501.92  1554.46  1573.11  1657.38
                             1679.00  1694.87  1725.76  1765.79  1773.74
                             1796.65  1843.30  1867.04  1982.34  2031.03
                             2075.59  2120.35  2142.54  2147.27  2169.10
                             2723.81  4368.32  4390.32  4402.31  4421.55
                             4433.35  4446.41  4462.16  4483.95  4493.52
                             4512.41

 Zero-point correction=                           0.157110 (Hartree/Particle)
 Thermal correction to Energy=                    0.166240
 Thermal correction to Enthalpy=                  0.167184
 Thermal correction to Gibbs Free Energy=         0.122201
 Sum of electronic and zero-point Energies=           -423.017033
 Sum of electronic and thermal Energies=              -423.007903
 Sum of electronic and thermal Enthalpies=            -423.006959
 Sum of electronic and thermal Free Energies=         -423.051941

                     E (Thermal)             CV                S
                      KCal/Mol        Cal/Mol-Kelvin    Cal/Mol-Kelvin
 Total                  104.317             33.049             94.674
 Electronic               0.000              0.000              0.000
 Translational            0.889              2.981             40.409
 Rotational               0.889              2.981             29.178
 Vibrational            102.539             27.087             25.087
 Vibration     1          0.595              1.978              4.872
 Vibration     2          0.600              1.962              3.877
 Vibration     3          0.604              1.949              3.454
 Vibration     4          0.629              1.869              2.347
 Vibration     5          0.636              1.847              2.181
 Vibration     6          0.674              1.729              1.597
 Vibration     7          0.710              1.622              1.276
 Vibration     8          0.734              1.556              1.124
 Vibration     9          0.822              1.329              0.753
 Vibration    10          0.830              1.310              0.730
 Vibration    11          0.920              1.109              0.516

 Normal termination of Gaussian 09 at Tue Jan 28 02:55:40 2020.
