 Gaussian 09, Revision D.01,
 Gaussian 09:  ES64L-G09RevD.01 24-Apr-2013

 -----------------------------
 # b3lyp 6-31G(2df,p) opt Freq
 -----------------------------

 -----
 titel
 -----
 Symbolic Z-matrix:
 Charge =  0 Multiplicity = 1

 SCF Done:  E(RB3LYP) =  -423.125593270     A.U. after   14 cycles
 Optimization completed.
    -- Stationary point found.
 Normal termination of Gaussian 09 at Mon Jan 27 14:11:51 2020.

 ----------------------------------------------------------------------
 #N Geom=AllCheck Guess=TCheck SCRF=Check GenChk RB3LYP/6-31G(2df,p) Fr
 eq
 ----------------------------------------------------------------------

 Structure from the checkpoint file:  "/scratch/puck/g09_05375411-37b0-4770-93a0-c1f57758d421/Gau-64274.chk"
 -----
 titel
 -----
 Charge =  0 Multiplicity = 1

                         Standard orientation:
 ---------------------------------------------------------------------
 Center     Atomic      Atomic             Coordinates (Angstroms)
 Number     Number       Type             X           Y           Z
 ---------------------------------------------------------------------
      1          6           0        0.216481    0.122754    1.780993
      2          6           0        0.508599    0.051015    0.292782
      3          6           0        1.808229    0.734614   -0.197467
      4          6           0        2.222819   -0.682908   -0.635641
      5          8           0        1.008070   -1.254186   -0.101185
      6          6           0       -0.716385    0.417036   -0.583461
      7          8           0       -1.058137    1.792770   -0.422592
      8          6           0       -1.858572   -0.464236   -0.343106
      9          6           0       -2.817927   -1.150677   -0.111024
     10          1           0        1.108489   -0.145312    2.352941
     11          1           0       -0.079179    1.138708    2.063651
     12          1           0       -0.588054   -0.567728    2.049247
     13          1           0        1.676332    1.472414   -0.989787
     14          1           0        2.415695    1.169055    0.597915
     15          1           0        2.306394   -0.840993   -1.717874
     16          1           0        3.113974   -1.097277   -0.150394
     17          1           0       -0.403455    0.310193   -1.628975
     18          1           0       -1.668975    1.857016    0.318859
     19          1           0       -3.660144   -1.770329    0.076187
 ---------------------------------------------------------------------

 SCF Done:  E(RB3LYP) =  -423.125593270     A.U. after    1 cycles

 The electronic state is 1-A.
 Alpha  occ. eigenvalues --  -19.14857 -19.13009 -10.25576 -10.24203 -10.23015
 Alpha  occ. eigenvalues --  -10.18652 -10.18621 -10.18200 -10.17646  -1.04049
 Alpha  occ. eigenvalues --   -1.02673  -0.78741  -0.75305  -0.72978  -0.69543
 Alpha  occ. eigenvalues --   -0.63442  -0.55636  -0.54122  -0.50595  -0.49486
 Alpha  occ. eigenvalues --   -0.48399  -0.46236  -0.44197  -0.41621  -0.38806
 Alpha  occ. eigenvalues --   -0.38284  -0.37201  -0.36133  -0.32469  -0.30236
 Alpha  occ. eigenvalues --   -0.29679  -0.27631  -0.27590  -0.24074
 Alpha virt. eigenvalues --    0.02793   0.04154   0.08793   0.09753   0.10330
 Alpha virt. eigenvalues --    0.12198   0.12300   0.13131   0.15362   0.16326
 Alpha virt. eigenvalues --    0.17529   0.17689   0.18514   0.20777   0.22738

 Mulliken charges:
               1
     1  C   -0.460734
     2  C    0.429583
     3  C   -0.336010
     4  C   -0.070122
     5  O   -0.320440
     6  C   -0.091641
     7  O   -0.426635
     8  C    0.297674
     9  C   -0.440467
    10  H    0.121044
    11  H    0.114846
    12  H    0.137527
    13  H    0.121534
    14  H    0.107672
    15  H    0.103745
    16  H    0.104827
    17  H    0.115214
    18  H    0.290832
    19  H    0.201551
 Sum of Mulliken charges =   0.00000

 Dipole moment (field-independent basis, Debye):
    X=              0.2192    Y=              0.6205    Z=              0.8713  Tot=              1.0919
 Quadrupole moment (field-independent basis, Debye-Ang):
   XX=            -45.6706   YY=            -57.0212   ZZ=            -51.9459
   XY=              2.6157   XZ=             -3.0721   YZ=              1.9863

  Exact polarizability:  93.370   8.749  70.645  -5.006   0.403  66.425
 Approx polarizability: 127.744  19.023 111.860  -9.984  -2.856  95.453

                      1                      2                      3
                      A                      A                      A
 Frequencies --     64.3528                85.7764               133.8503
 Red. masses --      3.7583                 2.3985                 4.0125
 Frc consts  --      0.0092                 0.0104                 0.0424
 IR Inten    --      1.5610                 1.5769                 3.1483

                      4                      5                      6
                      A                      A                      A
 Frequencies --    197.8123               210.8131               233.3479
 Red. masses --      2.5226                 1.1882                 3.5769
 Frc consts  --      0.0582                 0.0311                 0.1148
 IR Inten    --     12.6196                17.2772                 2.0983

                      7                      8                      9
                      A                      A                      A
 Frequencies --    265.6271               306.2050               345.3567
 Red. masses --      1.2859                 2.7117                 2.7170
 Frc consts  --      0.0535                 0.1498                 0.1909
 IR Inten    --     72.8981                 0.9679                 5.9214

                     10                     11                     12
                      A                      A                      A
 Frequencies --    374.5915               459.0926               507.5634
 Red. masses --      3.9989                 3.8302                 4.8305
 Frc consts  --      0.3306                 0.4756                 0.7332
 IR Inten    --      3.1507                 7.3265                 3.6021

                     13                     14                     15
                      A                      A                      A
 Frequencies --    590.4434               630.9328               671.4694
 Red. masses --      5.8722                 1.2456                 1.2489
 Frc consts  --      1.2062                 0.2922                 0.3318
 IR Inten    --     12.0588                41.5856                34.1770

                     16                     17                     18
                      A                      A                      A
 Frequencies --    734.4477               782.7846               849.4014
 Red. masses --      2.9404                 1.1749                 3.7922
 Frc consts  --      0.9345                 0.4242                 1.6120
 IR Inten    --      6.5922                 0.9420                 1.1254

                     19                     20                     21
                      A                      A                      A
 Frequencies --    892.2200               907.3259               969.4019
 Red. masses --      2.4059                 2.5790                 2.0050
 Frc consts  --      1.1284                 1.2509                 1.1101
 IR Inten    --     30.3540                 9.7366                 4.3718

                     22                     23                     24
                      A                      A                      A
 Frequencies --    995.3964              1006.0481              1022.2322
 Red. masses --      2.0589                 2.1635                 6.6752
 Frc consts  --      1.2019                 1.2901                 4.1098
 IR Inten    --      9.8477                32.5489               115.5740

                     25                     26                     27
                      A                      A                      A
 Frequencies --   1067.7116              1135.3385              1160.6296
 Red. masses --      4.9041                 2.7223                 1.2230
 Frc consts  --      3.2939                 2.0674                 0.9706
 IR Inten    --     91.1624                17.1202                 1.1297

                     28                     29                     30
                      A                      A                      A
 Frequencies --   1192.1305              1205.4001              1255.2916
 Red. masses --      2.1444                 1.3453                 1.3225
 Frc consts  --      1.7956                 1.1517                 1.2279
 IR Inten    --      4.7387                 2.4954                10.5384

                     31                     32                     33
                      A                      A                      A
 Frequencies --   1261.1341              1274.0908              1345.8260
 Red. masses --      1.5006                 2.3992                 1.3710
 Frc consts  --      1.4062                 2.2946                 1.4631
 IR Inten    --     21.0753                 7.0750                 3.2302

                     34                     35                     36
                      A                      A                      A
 Frequencies --   1355.7558              1400.6455              1407.2425
 Red. masses --      1.4405                 1.2871                 1.3241
 Frc consts  --      1.5600                 1.4878                 1.5450
 IR Inten    --      1.1301                23.4323                53.5875

                     37                     38                     39
                      A                      A                      A
 Frequencies --   1486.0638              1490.0499              1495.4246
 Red. masses --      1.0555                 1.0632                 1.0866
 Frc consts  --      1.3734                 1.3908                 1.4317
 IR Inten    --      6.8361                 2.1528                 3.7291

                     40                     41                     42
                      A                      A                      A
 Frequencies --   1531.4099              2231.8174              3019.0588
 Red. masses --      1.1075                 5.9141                 1.0560
 Frc consts  --      1.5303                17.3564                 5.6709
 IR Inten    --      0.7384                 1.6919                85.4757

                     43                     44                     45
                      A                      A                      A
 Frequencies --   3039.7292              3040.6017              3058.8824
 Red. masses --      1.0641                 1.0536                 1.1104
 Frc consts  --      5.7929                 5.7394                 6.1213
 IR Inten    --     28.0179                 1.3547                34.6515

                     46                     47                     48
                      A                      A                      A
 Frequencies --   3083.5604              3112.9891              3124.2125
 Red. masses --      1.0598                 1.0999                 1.1024
 Frc consts  --      5.9371                 6.2798                 6.3396
 IR Inten    --     21.1534                16.8319                13.7753

                     49                     50                     51
                      A                      A                      A
 Frequencies --   3138.1800              3501.9976              3821.6051
 Red. masses --      1.1086                 1.1623                 1.0664
 Frc consts  --      6.4325                 8.3986                 9.1762
 IR Inten    --     20.6013                64.7504                28.3346

 - Thermochemistry -
 -------------------
 Temperature   298.150 Kelvin.  Pressure   1.00000 Atm.
 Atom     1 has atomic number  6 and mass  12.00000

 Molecular mass:   126.06808 amu.
 Principal axes and moments of inertia in atomic units:
                           1         2         3
     Eigenvalues --   704.934901411.525461586.97672
           X            0.99976   0.01715  -0.01345
           Y           -0.01670   0.99932   0.03301
           Z            0.01401  -0.03278   0.99936
 This molecule is an asymmetric top.
 Rotational symmetry number  1.
 Warning -- assumption of classical behavior for rotation
           may cause significant error
 Rotational temperatures (Kelvin)      0.12287     0.06136     0.05458
 Rotational constants (GHZ):           2.56015     1.27858     1.13722
 Zero-point vibrational energy     409561.1 (Joules/Mol)
                                   97.88746 (Kcal/Mol)
 Warning -- explicit consideration of  13 degrees of freedom as
           vibrations may cause significant error
 Vibrational temperatures:     92.59   123.41   192.58   284.61   303.31
          (Kelvin)            335.74   382.18   440.56   496.89   538.95
                              660.53   730.27   849.52   907.77   966.09
                             1056.71  1126.25  1222.10  1283.70  1305.44
                             1394.75  1432.15  1447.48  1470.76  1536.20
                             1633.50  1669.89  1715.21  1734.30  1806.08
                             1814.49  1833.13  1936.34  1950.63  2015.21
                             2024.71  2138.11  2143.85  2151.58  2203.35
                             3211.08  4343.75  4373.49  4374.74  4401.04
                             4436.55  4478.89  4495.04  4515.14  5038.59
                             5498.43

 Zero-point correction=                           0.155994 (Hartree/Particle)
 Thermal correction to Energy=                    0.165871
 Thermal correction to Enthalpy=                  0.166815
 Thermal correction to Gibbs Free Energy=         0.121236
 Sum of electronic and zero-point Energies=           -422.969600
 Sum of electronic and thermal Energies=              -422.959722
 Sum of electronic and thermal Enthalpies=            -422.958778
 Sum of electronic and thermal Free Energies=         -423.004358

                     E (Thermal)             CV                S
                      KCal/Mol        Cal/Mol-Kelvin    Cal/Mol-Kelvin
 Total                  104.086             36.258             95.931
 Electronic               0.000              0.000              0.000
 Translational            0.889              2.981             40.409
 Rotational               0.889              2.981             28.848
 Vibrational            102.308             30.297             26.675
 Vibration     1          0.597              1.971              4.319
 Vibration     2          0.601              1.959              3.754
 Vibration     3          0.613              1.920              2.890
 Vibration     4          0.637              1.843              2.153
 Vibration     5          0.643              1.824              2.037
 Vibration     6          0.654              1.790              1.853
 Vibration     7          0.671              1.736              1.624
 Vibration     8          0.697              1.662              1.383
 Vibration     9          0.724              1.585              1.187
 Vibration    10          0.746              1.524              1.061
 Vibration    11          0.817              1.341              0.769
 Vibration    12          0.863              1.233              0.639
 Vibration    13          0.948              1.052              0.466

 Normal termination of Gaussian 09 at Mon Jan 27 15:05:06 2020.
