 Gaussian 09, Revision D.01,
 Gaussian 09:  ES64L-G09RevD.01 24-Apr-2013

 -----------------------------
 # b3lyp 6-31G(2df,p) opt Freq
 -----------------------------

 -----
 titel
 -----
 Symbolic Z-matrix:
 Charge =  0 Multiplicity = 1

 SCF Done:  E(RB3LYP) =  -423.169073431     A.U. after   14 cycles
 Optimization completed.
    -- Stationary point found.
 Normal termination of Gaussian 09 at Mon Jan 27 14:08:24 2020.

 ----------------------------------------------------------------------
 #N Geom=AllCheck Guess=TCheck SCRF=Check GenChk RB3LYP/6-31G(2df,p) Fr
 eq
 ----------------------------------------------------------------------

 Structure from the checkpoint file:  "/scratch/puck/g09_ecc71165-6840-49f9-aa7e-137baccc043d/Gau-41176.chk"
 -----
 titel
 -----
 Charge =  0 Multiplicity = 1

                         Standard orientation:
 ---------------------------------------------------------------------
 Center     Atomic      Atomic             Coordinates (Angstroms)
 Number     Number       Type             X           Y           Z
 ---------------------------------------------------------------------
      1          6           0        2.833257    0.014461   -0.959941
      2          6           0        1.684311   -0.142528    0.016078
      3          8           0        1.654837   -1.033797    0.841437
      4          6           0        0.573742    0.847710   -0.094218
      5          6           0       -0.184366    1.200744    1.184393
      6          6           0       -0.838191    0.351064    0.168529
      7          6           0       -1.322620   -1.090908    0.271490
      8          8           0       -2.482986   -0.768970   -0.535963
      9          6           0       -2.085731    0.609690   -0.669365
     10          1           0        3.577808   -0.763649   -0.789375
     11          1           0        2.464254   -0.044772   -1.990567
     12          1           0        3.295023    1.002042   -0.845587
     13          1           0        0.685137    1.628220   -0.840608
     14          1           0        0.176172    0.715263    2.085562
     15          1           0       -0.510435    2.229488    1.297230
     16          1           0       -0.690698   -1.852387   -0.196530
     17          1           0       -1.600970   -1.424141    1.278193
     18          1           0       -1.914466    0.892851   -1.716701
     19          1           0       -2.819041    1.297823   -0.227207
 ---------------------------------------------------------------------

 SCF Done:  E(RB3LYP) =  -423.169073431     A.U. after    1 cycles

 The electronic state is 1-A.
 Alpha  occ. eigenvalues --  -19.13186 -19.12783 -10.27302 -10.23503 -10.22854
 Alpha  occ. eigenvalues --  -10.21470 -10.20583 -10.20220 -10.19250  -1.04017
 Alpha  occ. eigenvalues --   -1.03598  -0.87315  -0.75454  -0.69490  -0.68785
 Alpha  occ. eigenvalues --   -0.64234  -0.55793  -0.53055  -0.50951  -0.48709
 Alpha  occ. eigenvalues --   -0.47967  -0.44591  -0.43592  -0.42415  -0.41546
 Alpha  occ. eigenvalues --   -0.40417  -0.38243  -0.37481  -0.34991  -0.33069
 Alpha  occ. eigenvalues --   -0.30795  -0.28437  -0.25270  -0.24321
 Alpha virt. eigenvalues --   -0.01805   0.07220   0.09086   0.10582   0.10921
 Alpha virt. eigenvalues --    0.11427   0.13909   0.14228   0.15437   0.16633
 Alpha virt. eigenvalues --    0.17029   0.18463   0.19593   0.20542   0.22103

 Mulliken charges:
               1
     1  C   -0.484244
     2  C    0.394148
     3  O   -0.331523
     4  C   -0.198592
     5  C   -0.346436
     6  C    0.303927
     7  C   -0.127896
     8  O   -0.277683
     9  C   -0.138915
    10  H    0.143314
    11  H    0.141736
    12  H    0.141216
    13  H    0.089313
    14  H    0.141487
    15  H    0.120001
    16  H    0.115551
    17  H    0.109964
    18  H    0.100711
    19  H    0.103920
 Sum of Mulliken charges =   0.00000

 Dipole moment (field-independent basis, Debye):
    X=              1.1320    Y=              2.8468    Z=             -1.0228  Tot=              3.2298
 Quadrupole moment (field-independent basis, Debye-Ang):
   XX=            -56.9480   YY=            -53.0564   ZZ=            -52.5532
   XY=             -0.6751   XZ=             -5.1924   YZ=              0.4298

  Exact polarizability:  87.829  -3.959  73.236  -3.349  -3.348  70.306
 Approx polarizability: 113.073  -4.672 112.818  -1.789  -9.420 107.957

                      1                      2                      3
                      A                      A                      A
 Frequencies --     54.2552               103.0502               130.9919
 Red. masses --      3.9982                 3.9794                 1.3762
 Frc consts  --      0.0069                 0.0249                 0.0139
 IR Inten    --      2.6595                 5.9840                 1.2434

                      4                      5                      6
                      A                      A                      A
 Frequencies --    141.7104               161.0176               303.6444
 Red. masses --      2.2201                 2.6245                 3.0347
 Frc consts  --      0.0263                 0.0401                 0.1649
 IR Inten    --      1.9286                 0.5664                 3.2772

                      7                      8                      9
                      A                      A                      A
 Frequencies --    319.3734               370.4642               404.0917
 Red. masses --      2.7689                 2.6232                 2.4445
 Frc consts  --      0.1664                 0.2121                 0.2352
 IR Inten    --      1.5298                 3.2484                 1.3949

                     10                     11                     12
                      A                      A                      A
 Frequencies --    529.3109               597.6965               637.8995
 Red. masses --      4.0260                 3.2826                 2.6845
 Frc consts  --      0.6646                 0.6909                 0.6436
 IR Inten    --      3.9636                 8.2191                 0.3549

                     13                     14                     15
                      A                      A                      A
 Frequencies --    781.9128               837.7508               868.4902
 Red. masses --      1.9204                 3.5601                 3.2014
 Frc consts  --      0.6918                 1.4721                 1.4227
 IR Inten    --      0.4469                18.4187                10.8040

                     16                     17                     18
                      A                      A                      A
 Frequencies --    893.5962               936.0980               942.0117
 Red. masses --      1.3755                 1.8017                 2.5505
 Frc consts  --      0.6471                 0.9302                 1.3335
 IR Inten    --      0.6751                 0.9360                 5.8620

                     19                     20                     21
                      A                      A                      A
 Frequencies --    968.5102              1020.7079              1026.2919
 Red. masses --      2.4199                 2.7505                 2.8842
 Frc consts  --      1.3374                 1.6883                 1.7899
 IR Inten    --     60.7501                16.2259                33.2400

                     22                     23                     24
                      A                      A                      A
 Frequencies --   1033.8897              1051.4882              1078.1845
 Red. masses --      2.7692                 1.9109                 1.4201
 Frc consts  --      1.7440                 1.2448                 0.9726
 IR Inten    --     34.4131                 8.0436                 6.5189

                     25                     26                     27
                      A                      A                      A
 Frequencies --   1117.6241              1121.8364              1147.8663
 Red. masses --      1.3525                 1.7492                 1.0772
 Frc consts  --      0.9953                 1.2970                 0.8362
 IR Inten    --      9.8158                 1.6811                 0.4400

                     28                     29                     30
                      A                      A                      A
 Frequencies --   1158.4368              1185.4514              1232.7475
 Red. masses --      1.2626                 1.8686                 2.7947
 Frc consts  --      0.9983                 1.5472                 2.5023
 IR Inten    --      9.5831                74.9704                31.1538

                     31                     32                     33
                      A                      A                      A
 Frequencies --   1305.7451              1323.9762              1368.8225
 Red. masses --      1.3295                 1.6901                 1.3984
 Frc consts  --      1.3355                 1.7456                 1.5438
 IR Inten    --      1.9244                 8.4467                22.6699

                     34                     35                     36
                      A                      A                      A
 Frequencies --   1384.3465              1432.2053              1462.6701
 Red. masses --      1.4855                 1.4394                 1.0597
 Frc consts  --      1.6773                 1.7396                 1.3357
 IR Inten    --     61.3741                22.5986                11.6054

                     37                     38                     39
                      A                      A                      A
 Frequencies --   1474.7483              1485.6988              1509.5428
 Red. masses --      1.0489                 2.5689                 1.0819
 Frc consts  --      1.3440                 3.3409                 1.4525
 IR Inten    --      8.2922                16.6082                 1.2230

                     40                     41                     42
                      A                      A                      A
 Frequencies --   1533.0167              1782.7020              2996.7019
 Red. masses --      1.1115                10.1082                 1.0538
 Frc consts  --      1.5391                18.9271                 5.5754
 IR Inten    --      0.5291               111.4495                89.0074

                     43                     44                     45
                      A                      A                      A
 Frequencies --   3030.4931              3033.1861              3037.2831
 Red. masses --      1.0583                 1.0373                 1.1106
 Frc consts  --      5.7262                 5.6230                 6.0366
 IR Inten    --     29.0554                 3.4684                43.6728

                     46                     47                     48
                      A                      A                      A
 Frequencies --   3078.7017              3092.6827              3127.5615
 Red. masses --      1.1088                 1.0981                 1.0530
 Frc consts  --      6.1923                 6.1883                 6.0683
 IR Inten    --     30.8981                 7.1116                10.1489

                     49                     50                     51
                      A                      A                      A
 Frequencies --   3153.3653              3157.7299              3222.5985
 Red. masses --      1.1004                 1.0901                 1.1174
 Frc consts  --      6.4471                 6.4044                 6.8368
 IR Inten    --      8.7244                11.0154                 2.3187

 - Thermochemistry -
 -------------------
 Temperature   298.150 Kelvin.  Pressure   1.00000 Atm.
 Atom     1 has atomic number  6 and mass  12.00000

 Molecular mass:   126.06808 amu.
 Principal axes and moments of inertia in atomic units:
                           1         2         3
     Eigenvalues --   563.200851683.902371768.09737
           X            0.99961  -0.00425  -0.02757
           Y            0.00373   0.99981  -0.01895
           Z            0.02765   0.01884   0.99944
 This molecule is an asymmetric top.
 Rotational symmetry number  1.
 Warning -- assumption of classical behavior for rotation
           may cause significant error
 Rotational temperatures (Kelvin)      0.15379     0.05144     0.04899
 Rotational constants (GHZ):           3.20444     1.07176     1.02073
 Zero-point vibrational energy     413609.9 (Joules/Mol)
                                   98.85514 (Kcal/Mol)
 Warning -- explicit consideration of  11 degrees of freedom as
           vibrations may cause significant error
 Vibrational temperatures:     78.06   148.27   188.47   203.89   231.67
          (Kelvin)            436.88   459.51   533.01   581.40   761.56
                              859.95   917.79  1125.00  1205.34  1249.56
                             1285.68  1346.83  1355.34  1393.47  1468.57
                             1476.60  1487.53  1512.86  1551.27  1608.01
                             1614.07  1651.52  1666.73  1705.60  1773.65
                             1878.67  1904.90  1969.43  1991.76  2060.62
                             2104.45  2121.83  2137.59  2171.89  2205.67
                             2564.91  4311.58  4360.20  4364.07  4369.97
                             4429.56  4449.68  4499.86  4536.98  4543.26
                             4636.59

 Zero-point correction=                           0.157536 (Hartree/Particle)
 Thermal correction to Energy=                    0.166593
 Thermal correction to Enthalpy=                  0.167538
 Thermal correction to Gibbs Free Energy=         0.123020
 Sum of electronic and zero-point Energies=           -423.011538
 Sum of electronic and thermal Energies=              -423.002480
 Sum of electronic and thermal Enthalpies=            -423.001536
 Sum of electronic and thermal Free Energies=         -423.046053

                     E (Thermal)             CV                S
                      KCal/Mol        Cal/Mol-Kelvin    Cal/Mol-Kelvin
 Total                  104.539             32.806             93.695
 Electronic               0.000              0.000              0.000
 Translational            0.889              2.981             40.409
 Rotational               0.889              2.981             28.907
 Vibrational            102.762             26.844             24.379
 Vibration     1          0.596              1.976              4.656
 Vibration     2          0.605              1.947              3.396
 Vibration     3          0.612              1.922              2.931
 Vibration     4          0.615              1.912              2.781
 Vibration     5          0.622              1.890              2.538
 Vibration     6          0.695              1.667              1.397
 Vibration     7          0.705              1.637              1.313
 Vibration     8          0.742              1.533              1.078
 Vibration     9          0.769              1.461              0.948
 Vibration    10          0.884              1.185              0.589
 Vibration    11          0.956              1.037              0.454

 Optimization completed.
    -- Stationary point found.
 Normal termination of Gaussian 09 at Mon Jan 27 14:49:26 2020.
