 Gaussian 09, Revision D.01,
 Gaussian 09:  ES64L-G09RevD.01 24-Apr-2013

 -----------------------------
 # b3lyp 6-31G(2df,p) opt Freq
 -----------------------------

 -----
 titel
 -----
 Symbolic Z-matrix:
 Charge =  0 Multiplicity = 1

 SCF Done:  E(RB3LYP) =  -423.123369321     A.U. after   13 cycles
 Optimization completed.
    -- Stationary point found.
 Normal termination of Gaussian 09 at Tue Jan 28 14:04:42 2020.

 ----------------------------------------------------------------------
 #N Geom=AllCheck Guess=TCheck SCRF=Check GenChk RB3LYP/6-31G(2df,p) Fr
 eq
 ----------------------------------------------------------------------

 Structure from the checkpoint file:  "/scratch/puck/g09_f0604db6-abb5-4d95-83ca-1e66e5629e35/Gau-122916.chk"
 -----
 titel
 -----
 Charge =  0 Multiplicity = 1

                         Standard orientation:
 ---------------------------------------------------------------------
 Center     Atomic      Atomic             Coordinates (Angstroms)
 Number     Number       Type             X           Y           Z
 ---------------------------------------------------------------------
      1          8           0       -3.019605   -1.075427   -0.151735
      2          6           0       -2.474826    0.216504    0.061477
      3          6           0       -1.025866    0.314588   -0.357532
      4          6           0       -0.174256    1.374308    0.274265
      5          6           0        1.215800    1.398616   -0.384948
      6          6           0        1.383956   -0.070784    0.057935
      7          6           0        2.599211   -0.756512    0.490076
      8          8           0        1.937569   -1.108801   -0.734732
      9          6           0        0.007231   -0.100140    0.672125
     10          1           0       -2.429968   -1.710113    0.268983
     11          1           0       -3.089633    0.896545   -0.537856
     12          1           0       -2.576129    0.529650    1.114701
     13          1           0       -0.848195    0.052580   -1.399427
     14          1           0       -0.592618    2.171577    0.875204
     15          1           0        1.231739    1.579750   -1.463818
     16          1           0        1.926454    2.069472    0.104058
     17          1           0        3.566582   -0.267504    0.377302
     18          1           0        2.550701   -1.507968    1.278064
     19          1           0       -0.270144   -0.599650    1.594131
 ---------------------------------------------------------------------

 SCF Done:  E(RB3LYP) =  -423.123369321     A.U. after    1 cycles

 The electronic state is 1-A.
 Alpha  occ. eigenvalues --  -19.14842 -19.13270 -10.24654 -10.23342 -10.23104
 Alpha  occ. eigenvalues --  -10.20449 -10.20022 -10.19815 -10.19334  -1.07018
 Alpha  occ. eigenvalues --   -1.01484  -0.90369  -0.74798  -0.67626  -0.66767
 Alpha  occ. eigenvalues --   -0.63093  -0.57995  -0.53859  -0.52625  -0.49744
 Alpha  occ. eigenvalues --   -0.48136  -0.46371  -0.43677  -0.42852  -0.41155
 Alpha  occ. eigenvalues --   -0.39523  -0.36018  -0.34815  -0.33062  -0.32767
 Alpha  occ. eigenvalues --   -0.28422  -0.27128  -0.26465  -0.26331
 Alpha virt. eigenvalues --    0.07822   0.08029   0.09323   0.10528   0.11939
 Alpha virt. eigenvalues --    0.12388   0.13469   0.13525   0.15185   0.15841
 Alpha virt. eigenvalues --    0.16151   0.18083   0.19028   0.19741   0.22252

 Mulliken charges:
               1
     1  O   -0.418631
     2  C   -0.090704
     3  C   -0.040802
     4  C   -0.067364
     5  C   -0.348216
     6  C    0.462149
     7  C   -0.273454
     8  O   -0.272497
     9  C   -0.165613
    10  H    0.283162
    11  H    0.114467
    12  H    0.081261
    13  H    0.100604
    14  H    0.093799
    15  H    0.113614
    16  H    0.112370
    17  H    0.114832
    18  H    0.113681
    19  H    0.087344
 Sum of Mulliken charges =   0.00000

 Dipole moment (field-independent basis, Debye):
    X=              1.1782    Y=              1.4915    Z=              2.1246  Tot=              2.8508
 Quadrupole moment (field-independent basis, Debye-Ang):
   XX=            -58.3666   YY=            -52.2058   ZZ=            -52.9429
   XY=             -0.5072   XZ=              1.1060   YZ=             -3.5323

  Exact polarizability:  92.241  -2.614  73.322   2.525  -3.677  63.377
 Approx polarizability: 115.808  -3.436 111.522   5.038  -2.035 101.563

                      1                      2                      3
                      A                      A                      A
 Frequencies --     89.3617               114.2978               153.5231
 Red. masses --      4.0893                 4.2111                 2.8374
 Frc consts  --      0.0192                 0.0324                 0.0394
 IR Inten    --      1.3651                 0.5831                 1.9038

                      4                      5                      6
                      A                      A                      A
 Frequencies --    233.4402               303.6394               336.7506
 Red. masses --      2.4252                 1.6089                 1.6954
 Frc consts  --      0.0779                 0.0874                 0.1133
 IR Inten    --      4.3086                55.0508                34.2712

                      7                      8                      9
                      A                      A                      A
 Frequencies --    359.7808               394.3580               452.7189
 Red. masses --      2.8295                 3.5888                 2.3549
 Frc consts  --      0.2158                 0.3288                 0.2844
 IR Inten    --     13.2848                13.3026                 5.6949

                     10                     11                     12
                      A                      A                      A
 Frequencies --    502.2462               587.9652               784.9427
 Red. masses --      3.8009                 4.9804                 2.1134
 Frc consts  --      0.5649                 1.0144                 0.7672
 IR Inten    --      3.2421                 2.1024                 4.9141

                     13                     14                     15
                      A                      A                      A
 Frequencies --    802.2303               843.2490               862.4738
 Red. masses --      3.0802                 2.5165                 1.3758
 Frc consts  --      1.1679                 1.0543                 0.6030
 IR Inten    --     11.2504                27.7393                11.3733

                     16                     17                     18
                      A                      A                      A
 Frequencies --    886.2797               907.6242               952.0676
 Red. masses --      3.0780                 1.6715                 2.4513
 Frc consts  --      1.4245                 0.8113                 1.3092
 IR Inten    --     18.9691                 7.3990                12.3645

                     19                     20                     21
                      A                      A                      A
 Frequencies --    979.6557              1009.3434              1017.1898
 Red. masses --      1.9333                 2.9287                 1.3757
 Frc consts  --      1.0932                 1.7579                 0.8386
 IR Inten    --      8.0155                 0.9927                 4.5448

                     22                     23                     24
                      A                      A                      A
 Frequencies --   1060.6275              1073.0106              1090.1145
 Red. masses --      3.2282                 1.8822                 2.1828
 Frc consts  --      2.1396                 1.2768                 1.5283
 IR Inten    --     78.1929                 9.6818                42.0886

                     25                     26                     27
                      A                      A                      A
 Frequencies --   1116.1963              1123.0233              1154.2176
 Red. masses --      1.5337                 1.2973                 1.3657
 Frc consts  --      1.1258                 0.9640                 1.0720
 IR Inten    --      4.8848                 6.7348                 6.5105

                     28                     29                     30
                      A                      A                      A
 Frequencies --   1157.5041              1184.1609              1185.2112
 Red. masses --      1.4656                 1.9386                 1.3908
 Frc consts  --      1.1569                 1.6016                 1.1511
 IR Inten    --      6.3234                 0.1023                 6.9167

                     31                     32                     33
                      A                      A                      A
 Frequencies --   1233.1610              1240.8057              1270.1152
 Red. masses --      1.4748                 1.5798                 1.9865
 Frc consts  --      1.3214                 1.4330                 1.8881
 IR Inten    --      0.7396                10.5106                 3.6443

                     34                     35                     36
                      A                      A                      A
 Frequencies --   1289.4862              1361.7690              1412.5299
 Red. masses --      1.4506                 1.4194                 1.4702
 Frc consts  --      1.4211                 1.5508                 1.7283
 IR Inten    --      3.6835                 5.6638                27.8238

                     37                     38                     39
                      A                      A                      A
 Frequencies --   1433.3908              1449.5756              1483.5771
 Red. masses --      1.5971                 2.1163                 1.1294
 Frc consts  --      1.9333                 2.6200                 1.4646
 IR Inten    --     56.3581                28.4348                 2.0679

                     40                     41                     42
                      A                      A                      A
 Frequencies --   1507.9314              1539.6051              2959.3888
 Red. masses --      1.0865                 1.6644                 1.0718
 Frc consts  --      1.4556                 2.3245                 5.5305
 IR Inten    --      0.9876                12.3956                55.5196

                     43                     44                     45
                      A                      A                      A
 Frequencies --   3054.8788              3067.7835              3074.1406
 Red. masses --      1.0587                 1.0897                 1.0505
 Frc consts  --      5.8212                 6.0423                 5.8491
 IR Inten    --     31.6393                32.8485                29.0207

                     46                     47                     48
                      A                      A                      A
 Frequencies --   3109.7137              3121.1414              3158.7807
 Red. masses --      1.1072                 1.0890                 1.1189
 Frc consts  --      6.3084                 6.2503                 6.5779
 IR Inten    --     14.5090                17.3712                20.1519

                     49                     50                     51
                      A                      A                      A
 Frequencies --   3168.5733              3196.5679              3809.3739
 Red. masses --      1.0911                 1.0938                 1.0660
 Frc consts  --      6.4545                 6.5851                 9.1138
 IR Inten    --     15.3299                12.5542                11.2805

 - Thermochemistry -
 -------------------
 Temperature   298.150 Kelvin.  Pressure   1.00000 Atm.
 Atom     1 has atomic number  8 and mass  15.99491

 Molecular mass:   126.06808 amu.
 Principal axes and moments of inertia in atomic units:
                           1         2         3
     Eigenvalues --   513.594101765.982562048.94764
           X            1.00000   0.00010   0.00314
           Y            0.00004   0.99901  -0.04444
           Z           -0.00315   0.04444   0.99901
 This molecule is an asymmetric top.
 Rotational symmetry number  1.
 Warning -- assumption of classical behavior for rotation
           may cause significant error
 Rotational temperatures (Kelvin)      0.16864     0.04905     0.04227
 Rotational constants (GHZ):           3.51394     1.02195     0.88081
 Zero-point vibrational energy     416656.3 (Joules/Mol)
                                   99.58324 (Kcal/Mol)
 Warning -- explicit consideration of  11 degrees of freedom as
           vibrations may cause significant error
 Vibrational temperatures:    128.57   164.45   220.89   335.87   436.87
          (Kelvin)            484.51   517.64   567.39   651.36   722.62
                              845.95  1129.36  1154.23  1213.25  1240.91
                             1275.16  1305.87  1369.81  1409.50  1452.22
                             1463.51  1526.00  1543.82  1568.43  1605.96
                             1615.78  1660.66  1665.39  1703.74  1705.25
                             1774.24  1785.24  1827.41  1855.28  1959.28
                             2032.31  2062.33  2085.61  2134.53  2169.57
                             2215.15  4257.90  4395.28  4413.85  4423.00
                             4474.18  4490.62  4544.78  4558.86  4599.14
                             5480.83

 Zero-point correction=                           0.158696 (Hartree/Particle)
 Thermal correction to Energy=                    0.167100
 Thermal correction to Enthalpy=                  0.168044
 Thermal correction to Gibbs Free Energy=         0.125477
 Sum of electronic and zero-point Energies=           -422.964673
 Sum of electronic and thermal Energies=              -422.956269
 Sum of electronic and thermal Enthalpies=            -422.955325
 Sum of electronic and thermal Free Energies=         -422.997892

                     E (Thermal)             CV                S
                      KCal/Mol        Cal/Mol-Kelvin    Cal/Mol-Kelvin
 Total                  104.857             32.175             89.589
 Electronic               0.000              0.000              0.000
 Translational            0.889              2.981             40.409
 Rotational               0.889              2.981             29.009
 Vibrational            103.079             26.213             20.171
 Vibration     1          0.602              1.957              3.674
 Vibration     2          0.607              1.938              3.195
 Vibration     3          0.619              1.899              2.628
 Vibration     4          0.654              1.790              1.852
 Vibration     5          0.695              1.667              1.397
 Vibration     6          0.717              1.602              1.228
 Vibration     7          0.734              1.555              1.123
 Vibration     8          0.761              1.482              0.984
 Vibration     9          0.811              1.355              0.788
 Vibration    10          0.858              1.245              0.653
 Vibration    11          0.945              1.057              0.471

 Normal termination of Gaussian 09 at Tue Jan 28 14:43:11 2020.
