 Gaussian 09, Revision D.01,
 Gaussian 09:  ES64L-G09RevD.01 24-Apr-2013

 -----------------------------
 # b3lyp 6-31G(2df,p) opt Freq
 -----------------------------

 -----
 titel
 -----
 Symbolic Z-matrix:
 Charge =  0 Multiplicity = 1

 SCF Done:  E(RB3LYP) =  -423.155870211     A.U. after   13 cycles
 Optimization completed.
    -- Stationary point found.
 Normal termination of Gaussian 09 at Tue Jan 28 01:52:06 2020.

 ----------------------------------------------------------------------
 #N Geom=AllCheck Guess=TCheck SCRF=Check GenChk RB3LYP/6-31G(2df,p) Fr
 eq
 ----------------------------------------------------------------------

 Structure from the checkpoint file:  "/scratch/puck/g09_96e5fa72-d734-470a-9484-5d5d8551473e/Gau-110113.chk"
 -----
 titel
 -----
 Charge =  0 Multiplicity = 1

                         Standard orientation:
 ---------------------------------------------------------------------
 Center     Atomic      Atomic             Coordinates (Angstroms)
 Number     Number       Type             X           Y           Z
 ---------------------------------------------------------------------
      1          6           0        2.228166   -1.277780   -0.495883
      2          6           0        0.903637   -0.546113   -0.401012
      3          8           0       -0.018049   -1.329881    0.361890
      4          6           0       -0.983025   -0.419561    0.825560
      5          8           0       -0.304929    0.793657    1.103160
      6          6           0        0.931350    0.790910    0.371531
      7          6           0        1.042020    2.031635   -0.501117
      8          6           0       -2.064843   -0.207116   -0.157329
      9          6           0       -2.958394   -0.045589   -0.944427
     10          1           0        2.629714   -1.474198    0.502501
     11          1           0        2.103801   -2.232025   -1.014302
     12          1           0        2.953469   -0.677973   -1.054679
     13          1           0        0.488396   -0.376246   -1.406599
     14          1           0       -1.398504   -0.815704    1.758745
     15          1           0        1.748277    0.773649    1.106567
     16          1           0        1.002736    2.935833    0.111897
     17          1           0        1.991736    2.032329   -1.047650
     18          1           0        0.220600    2.068038   -1.222465
     19          1           0       -3.749874    0.097763   -1.638360
 ---------------------------------------------------------------------

 SCF Done:  E(RB3LYP) =  -423.155870211     A.U. after    1 cycles

 The electronic state is 1-A.
 Alpha  occ. eigenvalues --  -19.15371 -19.14591 -10.30069 -10.23971 -10.23788
 Alpha  occ. eigenvalues --  -10.18510 -10.18374 -10.18122 -10.18045  -1.09345
 Alpha  occ. eigenvalues --   -0.99681  -0.81029  -0.75302  -0.73345  -0.68241
 Alpha  occ. eigenvalues --   -0.62517  -0.59712  -0.54784  -0.51744  -0.50268
 Alpha  occ. eigenvalues --   -0.48845  -0.44326  -0.42877  -0.41776  -0.39839
 Alpha  occ. eigenvalues --   -0.38858  -0.38417  -0.37133  -0.33756  -0.32421
 Alpha  occ. eigenvalues --   -0.29451  -0.27779  -0.27185  -0.25745
 Alpha virt. eigenvalues --    0.03476   0.04108   0.09221   0.11891   0.12150
 Alpha virt. eigenvalues --    0.12399   0.12928   0.13748   0.15533   0.15793
 Alpha virt. eigenvalues --    0.16668   0.17329   0.20098   0.20352   0.21694

 Mulliken charges:
               1
     1  C   -0.416319
     2  C    0.100749
     3  O   -0.245079
     4  C   -0.020512
     5  O   -0.269092
     6  C    0.122242
     7  C   -0.404403
     8  C    0.349628
     9  C   -0.456280
    10  H    0.129397
    11  H    0.133136
    12  H    0.122258
    13  H    0.081169
    14  H    0.116483
    15  H    0.079377
    16  H    0.130221
    17  H    0.115285
    18  H    0.131383
    19  H    0.200357
 Sum of Mulliken charges =   0.00000

 Dipole moment (field-independent basis, Debye):
    X=              1.0148    Y=              0.3655    Z=             -1.1902  Tot=              1.6062
 Quadrupole moment (field-independent basis, Debye-Ang):
   XX=            -47.4855   YY=            -55.9168   ZZ=            -51.7464
   XY=              0.4654   XZ=              1.7056   YZ=             -1.4013

  Exact polarizability:  93.644  -0.728  67.325   7.415  -2.226  68.950
 Approx polarizability: 126.429  -2.509  94.295  17.858  -4.156 110.611

                      1                      2                      3
                      A                      A                      A
 Frequencies --     31.1953                92.4836               179.3888
 Red. masses --      3.7357                 3.7260                 3.6300
 Frc consts  --      0.0021                 0.0188                 0.0688
 IR Inten    --      0.8196                 1.2505                 0.5330

                      4                      5                      6
                      A                      A                      A
 Frequencies --    212.1327               226.3678               252.5341
 Red. masses --      1.1683                 1.0509                 3.9573
 Frc consts  --      0.0310                 0.0317                 0.1487
 IR Inten    --      0.0690                 0.0748                 1.6266

                      7                      8                      9
                      A                      A                      A
 Frequencies --    270.2301               329.2159               384.6319
 Red. masses --      2.3352                 2.5196                 3.2167
 Frc consts  --      0.1005                 0.1609                 0.2804
 IR Inten    --      0.2752                 1.2178                 2.0705

                     10                     11                     12
                      A                      A                      A
 Frequencies --    490.5955               529.3806               575.9141
 Red. masses --      4.3263                 4.8236                 5.2249
 Frc consts  --      0.6135                 0.7964                 1.0211
 IR Inten    --      7.1993                 2.3797                 8.6226

                     13                     14                     15
                      A                      A                      A
 Frequencies --    619.7965               654.8920               667.3790
 Red. masses --      5.4155                 1.2550                 1.2619
 Frc consts  --      1.2257                 0.3171                 0.3311
 IR Inten    --      2.0043                36.2480                33.6495

                     16                     17                     18
                      A                      A                      A
 Frequencies --    795.2687               827.0546               875.8542
 Red. masses --      3.8757                 2.9730                 2.3317
 Frc consts  --      1.4442                 1.1982                 1.0539
 IR Inten    --      1.7744                 2.5787                11.3418

                     19                     20                     21
                      A                      A                      A
 Frequencies --    889.2784               949.2468               987.2964
 Red. masses --      2.4409                 3.7057                 1.7181
 Frc consts  --      1.1373                 1.9673                 0.9867
 IR Inten    --      8.9667                40.9729                23.2967

                     22                     23                     24
                      A                      A                      A
 Frequencies --   1002.3316              1078.1318              1113.9958
 Red. masses --      2.5349                 2.7523                 2.2122
 Frc consts  --      1.5005                 1.8849                 1.6175
 IR Inten    --     80.2236                12.9177                36.9628

                     25                     26                     27
                      A                      A                      A
 Frequencies --   1115.0433              1129.6442              1168.0098
 Red. masses --      3.7387                 3.0801                 2.3058
 Frc consts  --      2.7388                 2.3158                 1.8534
 IR Inten    --    153.8228               117.1704                48.3472

                     28                     29                     30
                      A                      A                      A
 Frequencies --   1184.7392              1307.9639              1334.2511
 Red. masses --      2.1835                 1.2427                 1.3615
 Frc consts  --      1.8057                 1.2525                 1.4280
 IR Inten    --     24.6928                 0.8529                14.8813

                     31                     32                     33
                      A                      A                      A
 Frequencies --   1355.2968              1374.5194              1380.1131
 Red. masses --      1.1678                 1.2364                 1.2703
 Frc consts  --      1.2638                 1.3763                 1.4255
 IR Inten    --     19.3340                23.3592                 7.7888

                     34                     35                     36
                      A                      A                      A
 Frequencies --   1406.1167              1407.7707              1414.9429
 Red. masses --      1.2601                 1.3405                 1.5432
 Frc consts  --      1.4679                 1.5652                 1.8203
 IR Inten    --      2.0771                 9.6635                 7.0060

                     37                     38                     39
                      A                      A                      A
 Frequencies --   1483.1713              1485.2721              1496.9730
 Red. masses --      1.0444                 1.0601                 1.0502
 Frc consts  --      1.3536                 1.3779                 1.3866
 IR Inten    --      5.3725                 0.2702                 3.7243

                     40                     41                     42
                      A                      A                      A
 Frequencies --   1500.5483              2232.0129              2982.7666
 Red. masses --      1.0526                 5.8616                 1.0818
 Frc consts  --      1.3964                17.2052                 5.6708
 IR Inten    --      3.5760                 9.8954                15.2737

                     43                     44                     45
                      A                      A                      A
 Frequencies --   3005.3179              3037.5732              3043.8588
 Red. masses --      1.0853                 1.0362                 1.0351
 Frc consts  --      5.7754                 5.6331                 5.6506
 IR Inten    --     56.0620                14.5149                17.7510

                     46                     47                     48
                      A                      A                      A
 Frequencies --   3052.7056              3109.1938              3116.9595
 Red. masses --      1.0859                 1.0995                 1.1011
 Frc consts  --      5.9623                 6.2624                 6.3032
 IR Inten    --     31.8111                21.3280                18.4655

                     49                     50                     51
                      A                      A                      A
 Frequencies --   3124.3380              3125.4971              3500.4192
 Red. masses --      1.1027                 1.1024                 1.1633
 Frc consts  --      6.3421                 6.3452                 8.3982
 IR Inten    --      1.2922                37.0559                56.2386

 - Thermochemistry -
 -------------------
 Temperature   298.150 Kelvin.  Pressure   1.00000 Atm.
 Atom     1 has atomic number  6 and mass  12.00000

 Molecular mass:   126.06808 amu.
 Principal axes and moments of inertia in atomic units:
                           1         2         3
     Eigenvalues --   755.939031323.211931620.74284
           X            0.99996  -0.00675  -0.00597
           Y            0.00658   0.99958  -0.02815
           Z            0.00616   0.02811   0.99959
 This molecule is an asymmetric top.
 Rotational symmetry number  1.
 Warning -- assumption of classical behavior for rotation
           may cause significant error
 Rotational temperatures (Kelvin)      0.11458     0.06546     0.05344
 Rotational constants (GHZ):           2.38742     1.36391     1.11353
 Zero-point vibrational energy     412171.0 (Joules/Mol)
                                   98.51124 (Kcal/Mol)
 Warning -- explicit consideration of  13 degrees of freedom as
           vibrations may cause significant error
 Vibrational temperatures:     44.88   133.06   258.10   305.21   325.69
          (Kelvin)            363.34   388.80   473.67   553.40   705.86
                              761.66   828.61   891.75   942.24   960.21
                             1144.21  1189.95  1260.16  1279.47  1365.75
                             1420.50  1442.13  1551.19  1602.79  1604.30
                             1625.30  1680.50  1704.57  1881.87  1919.69
                             1949.97  1977.62  1985.67  2023.09  2025.47
                             2035.78  2133.95  2136.97  2153.81  2158.95
                             3211.36  4291.53  4323.98  4370.38  4379.43
                             4392.16  4473.43  4484.60  4495.22  4496.89
                             5036.32

 Zero-point correction=                           0.156988 (Hartree/Particle)
 Thermal correction to Energy=                    0.166375
 Thermal correction to Enthalpy=                  0.167319
 Thermal correction to Gibbs Free Energy=         0.122210
 Sum of electronic and zero-point Energies=           -422.998883
 Sum of electronic and thermal Energies=              -422.989495
 Sum of electronic and thermal Enthalpies=            -422.988551
 Sum of electronic and thermal Free Energies=         -423.033660

                     E (Thermal)             CV                S
                      KCal/Mol        Cal/Mol-Kelvin    Cal/Mol-Kelvin
 Total                  104.402             34.637             94.940
 Electronic               0.000              0.000              0.000
 Translational            0.889              2.981             40.409
 Rotational               0.889              2.981             28.874
 Vibrational            102.624             28.675             25.658
 Vibration     1          0.594              1.983              5.752
 Vibration     2          0.602              1.955              3.607
 Vibration     3          0.629              1.868              2.335
 Vibration     4          0.643              1.822              2.025
 Vibration     5          0.650              1.801              1.908
 Vibration     6          0.664              1.759              1.713
 Vibration     7          0.674              1.728              1.595
 Vibration     8          0.712              1.617              1.264
 Vibration     9          0.754              1.503              1.021
 Vibration    10          0.846              1.271              0.682
 Vibration    11          0.884              1.185              0.589
 Vibration    12          0.932              1.083              0.493
 Vibration    13          0.980              0.990              0.417

 Optimization completed.
    -- Stationary point found.
 Normal termination of Gaussian 09 at Tue Jan 28 02:35:45 2020.
