 Gaussian 09, Revision D.01,
 Gaussian 09:  ES64L-G09RevD.01 24-Apr-2013

 -----------------------------
 # b3lyp 6-31G(2df,p) opt Freq
 -----------------------------

 -----
 titel
 -----
 Symbolic Z-matrix:
 Charge =  0 Multiplicity = 1

 SCF Done:  E(RB3LYP) =  -423.197641123     A.U. after   13 cycles
 Optimization completed.
    -- Stationary point found.
 Normal termination of Gaussian 09 at Mon Jan 27 22:04:32 2020.

 ----------------------------------------------------------------------
 #N Geom=AllCheck Guess=TCheck SCRF=Check GenChk RB3LYP/6-31G(2df,p) Fr
 eq
 ----------------------------------------------------------------------

 Structure from the checkpoint file:  "/scratch/puck/g09_83a66ee9-efde-4ca4-9fde-5d156c4f8d47/Gau-14905.chk"
 -----
 titel
 -----
 Charge =  0 Multiplicity = 1

                         Standard orientation:
 ---------------------------------------------------------------------
 Center     Atomic      Atomic             Coordinates (Angstroms)
 Number     Number       Type             X           Y           Z
 ---------------------------------------------------------------------
      1          6           0        2.705149    0.038725    0.000010
      2          6           0        1.215596    0.173697    0.000024
      3          6           0        0.500410    1.301902   -0.000178
      4          6           0       -0.988033    1.048098   -0.000188
      5          8           0       -1.352077    0.310239    1.161677
      6          6           0       -0.621202   -0.916277    1.233783
      7          6           0        0.300956   -1.035069    0.000171
      8          6           0       -0.621113   -0.916655   -1.233533
      9          8           0       -1.352054    0.309851   -1.161790
     10          1           0        3.053753   -0.518942    0.878642
     11          1           0        3.053873   -0.517266   -0.879648
     12          1           0        3.195352    1.016155    0.000938
     13          1           0        0.908504    2.306200   -0.000267
     14          1           0       -1.602777    1.947179   -0.000339
     15          1           0       -0.041774   -0.938391    2.165854
     16          1           0       -1.339045   -1.747195    1.250369
     17          1           0        0.835127   -1.988412    0.000337
     18          1           0       -0.041611   -0.938985   -2.165554
     19          1           0       -1.338930   -1.747597   -1.249968
 ---------------------------------------------------------------------

 SCF Done:  E(RB3LYP) =  -423.197641123     A.U. after    1 cycles

 The electronic state is 1-A.
 Alpha  occ. eigenvalues --  -19.13512 -19.13512 -10.27216 -10.23050 -10.23050
 Alpha  occ. eigenvalues --  -10.19961 -10.19383 -10.18993 -10.17401  -1.06564
 Alpha  occ. eigenvalues --   -0.99226  -0.82891  -0.77515  -0.71641  -0.66899
 Alpha  occ. eigenvalues --   -0.64070  -0.59119  -0.51944  -0.49924  -0.49568
 Alpha  occ. eigenvalues --   -0.48257  -0.43466  -0.42947  -0.41363  -0.40749
 Alpha  occ. eigenvalues --   -0.40428  -0.39089  -0.39046  -0.34202  -0.32452
 Alpha  occ. eigenvalues --   -0.32254  -0.26472  -0.25120  -0.23204
 Alpha virt. eigenvalues --    0.01337   0.08530   0.11169   0.11735   0.13647
 Alpha virt. eigenvalues --    0.13710   0.15045   0.15239   0.15902   0.16257
 Alpha virt. eigenvalues --    0.18155   0.18442   0.19527   0.20978   0.21338

 Mulliken charges:
               1
     1  C   -0.508995
     2  C    0.328103
     3  C   -0.185624
     4  C    0.159406
     5  O   -0.265510
     6  C   -0.059041
     7  C   -0.181304
     8  C   -0.059046
     9  O   -0.265504
    10  H    0.128460
    11  H    0.128493
    12  H    0.128127
    13  H    0.097399
    14  H    0.086092
    15  H    0.097179
    16  H    0.100994
    17  H    0.072598
    18  H    0.097176
    19  H    0.100997
 Sum of Mulliken charges =   0.00000

 Dipole moment (field-independent basis, Debye):
    X=              2.3429    Y=             -1.1408    Z=              0.0000  Tot=              2.6058
 Quadrupole moment (field-independent basis, Debye-Ang):
   XX=            -54.9541   YY=            -48.3221   ZZ=            -56.0116
   XY=              0.5828   XZ=             -0.0003   YZ=             -0.0012

  Exact polarizability:  81.280  -2.318  80.108  -0.001  -0.002  64.273
 Approx polarizability: 114.570 -11.801 126.023   0.000  -0.004  96.522

                      1                      2                      3
                      A                      A                      A
 Frequencies --    140.5009               183.5890               190.1831
 Red. masses --      3.5483                 1.9055                 1.2047
 Frc consts  --      0.0413                 0.0378                 0.0257
 IR Inten    --      0.1398                 1.5640                 0.9844

                      4                      5                      6
                      A                      A                      A
 Frequencies --    281.7978               346.5876               418.3174
 Red. masses --      2.2422                 2.2399                 5.1788
 Frc consts  --      0.1049                 0.1585                 0.5339
 IR Inten    --      2.2643                 1.5084                 6.6754

                      7                      8                      9
                      A                      A                      A
 Frequencies --    427.3968               505.6670               581.0295
 Red. masses --      3.3553                 5.1122                 6.2229
 Frc consts  --      0.3611                 0.7702                 1.2378
 IR Inten    --      0.1319                 1.1183                 3.5119

                     10                     11                     12
                      A                      A                      A
 Frequencies --    659.3134               686.0945               799.7372
 Red. masses --      2.7726                 5.1216                 3.9269
 Frc consts  --      0.7101                 1.4204                 1.4798
 IR Inten    --      5.5008                 1.9328                12.2493

                     13                     14                     15
                      A                      A                      A
 Frequencies --    814.0998               856.6925               873.7720
 Red. masses --      1.7230                 3.4570                 3.6953
 Frc consts  --      0.6728                 1.4949                 1.6623
 IR Inten    --      0.0888                 9.1948                 4.4912

                     16                     17                     18
                      A                      A                      A
 Frequencies --    890.5972               952.1242               969.6323
 Red. masses --      2.6030                 2.6220                 2.0708
 Frc consts  --      1.2164                 1.4004                 1.1471
 IR Inten    --     40.3977               104.3492                14.6449

                     19                     20                     21
                      A                      A                      A
 Frequencies --    971.6297              1020.6107              1048.5057
 Red. masses --      1.8934                 1.7472                 1.8657
 Frc consts  --      1.0531                 1.0723                 1.2084
 IR Inten    --     31.5592                 6.8054                 7.9877

                     22                     23                     24
                      A                      A                      A
 Frequencies --   1052.8242              1085.4413              1087.2079
 Red. masses --      3.3391                 2.3493                 2.0434
 Frc consts  --      2.1807                 1.6308                 1.4230
 IR Inten    --     16.7797                24.1486                 3.3678

                     25                     26                     27
                      A                      A                      A
 Frequencies --   1131.3519              1198.6186              1218.5375
 Red. masses --      2.7458                 1.8479                 1.1129
 Frc consts  --      2.0707                 1.5642                 0.9736
 IR Inten    --     44.4234                 3.6829                 3.9629

                     28                     29                     30
                      A                      A                      A
 Frequencies --   1231.2585              1280.7891              1294.5342
 Red. masses --      1.4041                 1.6643                 1.4245
 Frc consts  --      1.2541                 1.6086                 1.4065
 IR Inten    --     18.4017                11.2939                 1.9961

                     31                     32                     33
                      A                      A                      A
 Frequencies --   1329.9502              1343.7081              1375.9085
 Red. masses --      1.4514                 1.1567                 1.8431
 Frc consts  --      1.5126                 1.2305                 2.0558
 IR Inten    --      4.5250                 0.1394                20.3949

                     34                     35                     36
                      A                      A                      A
 Frequencies --   1389.0691              1409.9653              1414.5190
 Red. masses --      1.2975                 1.4106                 1.3021
 Frc consts  --      1.4750                 1.6522                 1.5350
 IR Inten    --      5.6312                 5.5897                 1.7531

                     37                     38                     39
                      A                      A                      A
 Frequencies --   1479.0276              1487.0408              1512.2919
 Red. masses --      1.0451                 1.0634                 1.0825
 Frc consts  --      1.3470                 1.3854                 1.4586
 IR Inten    --      6.4182                 6.7520                 0.4399

                     40                     41                     42
                      A                      A                      A
 Frequencies --   1524.5659              1716.2839              3003.1855
 Red. masses --      1.0929                 6.7258                 1.0552
 Frc consts  --      1.4967                11.6728                 5.6072
 IR Inten    --      0.1856                12.4553                66.3412

                     43                     44                     45
                      A                      A                      A
 Frequencies --   3005.0509              3016.2763              3040.2434
 Red. masses --      1.0563                 1.0380                 1.1097
 Frc consts  --      5.6201                 5.5638                 6.0431
 IR Inten    --     59.4170                25.5735                26.1275

                     46                     47                     48
                      A                      A                      A
 Frequencies --   3043.7489              3062.9725              3084.4975
 Red. masses --      1.1098                 1.0986                 1.0866
 Frc consts  --      6.0577                 6.0727                 6.0912
 IR Inten    --     56.0340                18.6052                28.1978

                     49                     50                     51
                      A                      A                      A
 Frequencies --   3111.0317              3131.1867              3193.2137
 Red. masses --      1.0992                 1.0908                 1.0946
 Frc consts  --      6.2680                 6.3013                 6.5760
 IR Inten    --     19.3379                29.9196                12.1403

 - Thermochemistry -
 -------------------
 Temperature   298.150 Kelvin.  Pressure   1.00000 Atm.
 Atom     1 has atomic number  6 and mass  12.00000

 Molecular mass:   126.06808 amu.
 Principal axes and moments of inertia in atomic units:
                           1         2         3
     Eigenvalues --   665.740171136.195241140.83170
           X            0.99989   0.00001   0.01481
           Y           -0.01481   0.00088   0.99989
           Z            0.00000   1.00000  -0.00088
 This molecule is an asymmetric top.
 Rotational symmetry number  1.
 Warning -- assumption of classical behavior for rotation
           may cause significant error
 Rotational temperatures (Kelvin)      0.13010     0.07623     0.07592
 Rotational constants (GHZ):           2.71088     1.58841     1.58195
 Zero-point vibrational energy     423909.8 (Joules/Mol)
                                  101.31687 (Kcal/Mol)
 Warning -- explicit consideration of   9 degrees of freedom as
           vibrations may cause significant error
 Vibrational temperatures:    202.15   264.14   273.63   405.44   498.66
          (Kelvin)            601.86   614.93   727.54   835.97   948.60
                              987.14  1150.64  1171.31  1232.59  1257.16
                             1281.37  1369.89  1395.08  1397.96  1468.43
                             1508.56  1514.78  1561.71  1564.25  1627.76
                             1724.54  1753.20  1771.50  1842.77  1862.54
                             1913.50  1933.29  1979.62  1998.56  2028.62
                             2035.17  2127.99  2139.52  2175.85  2193.51
                             2469.35  4320.91  4323.59  4339.74  4374.23
                             4379.27  4406.93  4437.90  4476.08  4505.07
                             4594.32

 Zero-point correction=                           0.161459 (Hartree/Particle)
 Thermal correction to Energy=                    0.168907
 Thermal correction to Enthalpy=                  0.169852
 Thermal correction to Gibbs Free Energy=         0.129840
 Sum of electronic and zero-point Energies=           -423.036182
 Sum of electronic and thermal Energies=              -423.028734
 Sum of electronic and thermal Enthalpies=            -423.027789
 Sum of electronic and thermal Free Energies=         -423.067801

                     E (Thermal)             CV                S
                      KCal/Mol        Cal/Mol-Kelvin    Cal/Mol-Kelvin
 Total                  105.991             29.701             84.212
 Electronic               0.000              0.000              0.000
 Translational            0.889              2.981             40.409
 Rotational               0.889              2.981             28.247
 Vibrational            104.214             23.739             15.556
 Vibration     1          0.615              1.913              2.797
 Vibration     2          0.631              1.862              2.292
 Vibration     3          0.634              1.853              2.226
 Vibration     4          0.681              1.707              1.523
 Vibration     5          0.725              1.582              1.182
 Vibration     6          0.781              1.430              0.898
 Vibration     7          0.789              1.411              0.867
 Vibration     8          0.861              1.237              0.644
 Vibration     9          0.938              1.072              0.483

 Normal termination of Gaussian 09 at Mon Jan 27 22:57:01 2020.
