 Gaussian 09, Revision D.01,
 Gaussian 09:  ES64L-G09RevD.01 24-Apr-2013

 -----------------------------
 # b3lyp 6-31G(2df,p) opt Freq
 -----------------------------

 -----
 titel
 -----
 Symbolic Z-matrix:
 Charge =  0 Multiplicity = 1

 SCF Done:  E(RB3LYP) =  -423.168593893     A.U. after   13 cycles
 SCF Done:  E(RB3LYP) =  -423.168593656     A.U. after    6 cycles
 Optimization completed.
    -- Stationary point found.
 Normal termination of Gaussian 09 at Mon Jan 27 11:24:23 2020.

 ----------------------------------------------------------------------
 #N Geom=AllCheck Guess=TCheck SCRF=Check GenChk RB3LYP/6-31G(2df,p) Fr
 eq
 ----------------------------------------------------------------------

 Structure from the checkpoint file:  "/scratch/puck/g09_fff2ea27-f263-49c4-83fa-f6620febb677/Gau-41971.chk"
 -----
 titel
 -----
 Charge =  0 Multiplicity = 1

                         Standard orientation:
 ---------------------------------------------------------------------
 Center     Atomic      Atomic             Coordinates (Angstroms)
 Number     Number       Type             X           Y           Z
 ---------------------------------------------------------------------
      1          6           0       -1.773850    0.032007   -0.654526
      2          6           0       -0.909601    1.087149    0.107827
      3          6           0       -1.000403    0.105002    1.317362
      4          6           0       -1.007361   -1.000574    0.229505
      5          6           0        0.451333   -1.109621   -0.349064
      6          8           0        1.440734   -0.760731    0.626449
      7          6           0        1.623523    0.660969    0.490571
      8          6           0        0.525954    1.035189   -0.521286
      9          8           0        0.605669   -0.134079   -1.356663
     10          1           0       -2.822040    0.099739   -0.355696
     11          1           0       -1.689642   -0.034549   -1.737834
     12          1           0       -1.268725    2.111966    0.223057
     13          1           0       -0.213103    0.081263    2.068474
     14          1           0       -1.971640    0.187089    1.812202
     15          1           0       -1.443660   -1.977516    0.445647
     16          1           0        0.688020   -2.094820   -0.754539
     17          1           0        1.520912    1.148272    1.464670
     18          1           0        2.620635    0.865725    0.084760
     19          1           0        0.750445    1.910580   -1.131367
 ---------------------------------------------------------------------

 SCF Done:  E(RB3LYP) =  -423.168593656     A.U. after    1 cycles

 The electronic state is 1-A.
 Alpha  occ. eigenvalues --  -19.14436 -19.13750 -10.27401 -10.23926 -10.22823
 Alpha  occ. eigenvalues --  -10.19590 -10.18943 -10.18239 -10.18096  -1.08988
 Alpha  occ. eigenvalues --   -0.98489  -0.85534  -0.77153  -0.65963  -0.65095
 Alpha  occ. eigenvalues --   -0.63948  -0.59457  -0.54630  -0.52447  -0.49885
 Alpha  occ. eigenvalues --   -0.46965  -0.44130  -0.43371  -0.40592  -0.39485
 Alpha  occ. eigenvalues --   -0.39328  -0.36728  -0.35288  -0.33230  -0.31814
 Alpha  occ. eigenvalues --   -0.30453  -0.30093  -0.26185  -0.25167
 Alpha virt. eigenvalues --    0.08254   0.09983   0.11435   0.11844   0.12788
 Alpha virt. eigenvalues --    0.13787   0.15251   0.15957   0.16381   0.17849
 Alpha virt. eigenvalues --    0.18609   0.19033   0.19690   0.20567   0.22031

 Mulliken charges:
               1
     1  C   -0.208394
     2  C   -0.056123
     3  C   -0.222370
     4  C   -0.066597
     5  C    0.201300
     6  O   -0.274147
     7  C   -0.103451
     8  C    0.052148
     9  O   -0.245352
    10  H    0.094221
    11  H    0.109294
    12  H    0.062976
    13  H    0.113605
    14  H    0.091954
    15  H    0.061446
    16  H    0.090092
    17  H    0.105767
    18  H    0.107245
    19  H    0.086386
 Sum of Mulliken charges =   0.00000

 Dipole moment (field-independent basis, Debye):
    X=             -1.0115    Y=              1.1619    Z=              0.4157  Tot=              1.5956
 Quadrupole moment (field-independent basis, Debye-Ang):
   XX=            -53.5714   YY=            -49.9465   ZZ=            -55.8633
   XY=              2.6867   XZ=             -0.4954   YZ=              0.9950

  Exact polarizability:  77.372   2.733  72.912   0.011   1.149  66.865
 Approx polarizability: 106.155   1.931 111.128   0.911   1.199 104.832

                      1                      2                      3
                      A                      A                      A
 Frequencies --    260.3169               354.8197               390.4528
 Red. masses --      3.5521                 2.2073                 4.6700
 Frc consts  --      0.1418                 0.1637                 0.4195
 IR Inten    --      2.3913                 1.4799                 2.8076

                      4                      5                      6
                      A                      A                      A
 Frequencies --    498.2125               516.7393               541.6182
 Red. masses --      2.9837                 2.8695                 3.9685
 Frc consts  --      0.4363                 0.4514                 0.6859
 IR Inten    --      2.5289                 1.1926                 0.3333

                      7                      8                      9
                      A                      A                      A
 Frequencies --    599.5342               733.9320               773.0596
 Red. masses --      3.4720                 3.9276                 3.2747
 Frc consts  --      0.7353                 1.2465                 1.1531
 IR Inten    --      5.7155                 4.8699                 0.7479

                     10                     11                     12
                      A                      A                      A
 Frequencies --    798.4766               827.7488               844.4364
 Red. masses --      6.0659                 1.8846                 2.8495
 Frc consts  --      2.2786                 0.7608                 1.1972
 IR Inten    --      2.0909                 0.9439                 3.4506

                     13                     14                     15
                      A                      A                      A
 Frequencies --    879.6995               893.4591               916.4275
 Red. masses --      2.4371                 2.8963                 3.7783
 Frc consts  --      1.1112                 1.3622                 1.8696
 IR Inten    --      1.6764                23.1360                63.6706

                     16                     17                     18
                      A                      A                      A
 Frequencies --    927.3702               956.5623               976.1654
 Red. masses --      2.8269                 2.2297                 3.1440
 Frc consts  --      1.4324                 1.2020                 1.7651
 IR Inten    --     16.0082                11.0118                36.1741

                     19                     20                     21
                      A                      A                      A
 Frequencies --    988.9131              1003.4177              1032.5305
 Red. masses --      2.8480                 2.1345                 1.7105
 Frc consts  --      1.6410                 1.2662                 1.0744
 IR Inten    --     19.3873                 9.8176                11.2668

                     22                     23                     24
                      A                      A                      A
 Frequencies --   1051.0442              1078.9641              1095.4351
 Red. masses --      2.3984                 1.5939                 1.2651
 Frc consts  --      1.5610                 1.0933                 0.8944
 IR Inten    --     73.7658                11.3391                 0.7428

                     25                     26                     27
                      A                      A                      A
 Frequencies --   1120.6370              1138.4498              1167.6888
 Red. masses --      1.5479                 1.8355                 1.9136
 Frc consts  --      1.1453                 1.4017                 1.5373
 IR Inten    --      3.4272                 2.1696                26.0550

                     28                     29                     30
                      A                      A                      A
 Frequencies --   1203.0857              1239.9568              1251.4019
 Red. masses --      1.1243                 1.3441                 1.5919
 Frc consts  --      0.9588                 1.2176                 1.4688
 IR Inten    --      2.0310                 0.0505                 1.2263

                     31                     32                     33
                      A                      A                      A
 Frequencies --   1258.8427              1275.0023              1306.9521
 Red. masses --      1.5121                 1.3390                 1.5445
 Frc consts  --      1.4118                 1.2825                 1.5543
 IR Inten    --      0.0605                 0.3409                 2.5608

                     34                     35                     36
                      A                      A                      A
 Frequencies --   1320.9043              1331.3557              1335.9953
 Red. masses --      1.4154                 1.4918                 1.3507
 Frc consts  --      1.4550                 1.5580                 1.4205
 IR Inten    --      2.2322                 4.3673                 3.8176

                     37                     38                     39
                      A                      A                      A
 Frequencies --   1362.5477              1379.4560              1486.8171
 Red. masses --      1.3129                 1.4434                 1.0916
 Frc consts  --      1.4361                 1.6183                 1.4217
 IR Inten    --      9.4826                 4.4161                 0.8480

                     40                     41                     42
                      A                      A                      A
 Frequencies --   1515.5057              1530.0536              3035.4111
 Red. masses --      1.1040                 1.0989                 1.0591
 Frc consts  --      1.4939                 1.5158                 5.7492
 IR Inten    --      4.0508                 5.4684                56.3711

                     43                     44                     45
                      A                      A                      A
 Frequencies --   3068.3108              3075.4404              3084.0811
 Red. masses --      1.0665                 1.0681                 1.0978
 Frc consts  --      5.9156                 5.9524                 6.1522
 IR Inten    --     23.0310                15.1853                18.1790

                     46                     47                     48
                      A                      A                      A
 Frequencies --   3086.0907              3091.8951              3108.3573
 Red. masses --      1.0942                 1.0825                 1.0894
 Frc consts  --      6.1402                 6.0969                 6.2013
 IR Inten    --     57.5442                51.2510                76.3217

                     49                     50                     51
                      A                      A                      A
 Frequencies --   3118.2127              3146.2270              3149.7205
 Red. masses --      1.0908                 1.1001                 1.1057
 Frc consts  --      6.2492                 6.4160                 6.4628
 IR Inten    --     20.0137                22.2824                20.8641

 - Thermochemistry -
 -------------------
 Temperature   298.150 Kelvin.  Pressure   1.00000 Atm.
 Atom     1 has atomic number  6 and mass  12.00000

 Molecular mass:   126.06808 amu.
 Principal axes and moments of inertia in atomic units:
                           1         2         3
     Eigenvalues --   615.53964 934.62772 946.80927
           X            0.99925   0.03503   0.01624
           Y           -0.03861   0.90265   0.42863
           Z            0.00036  -0.42894   0.90333
 This molecule is an asymmetric top.
 Rotational symmetry number  1.
 Warning -- assumption of classical behavior for rotation
           may cause significant error
 Rotational temperatures (Kelvin)      0.14071     0.09267     0.09148
 Rotational constants (GHZ):           2.93197     1.93097     1.90613
 Zero-point vibrational energy     431419.7 (Joules/Mol)
                                  103.11177 (Kcal/Mol)
 Warning -- explicit consideration of   7 degrees of freedom as
           vibrations may cause significant error
 Vibrational temperatures:    374.54   510.51   561.77   716.82   743.47
          (Kelvin)            779.27   862.59  1055.96  1112.26  1148.83
                             1190.94  1214.95  1265.69  1285.49  1318.53
                             1334.28  1376.28  1404.48  1422.82  1443.69
                             1485.58  1512.22  1552.39  1576.08  1612.34
                             1637.97  1680.04  1730.97  1784.02  1800.49
                             1811.19  1834.44  1880.41  1900.48  1915.52
                             1922.20  1960.40  1984.73  2139.20  2180.47
                             2201.40  4367.27  4414.61  4424.87  4437.30
                             4440.19  4448.54  4472.23  4486.41  4526.71
                             4531.74

 Zero-point correction=                           0.164319 (Hartree/Particle)
 Thermal correction to Energy=                    0.170186
 Thermal correction to Enthalpy=                  0.171130
 Thermal correction to Gibbs Free Energy=         0.134493
 Sum of electronic and zero-point Energies=           -423.004275
 Sum of electronic and thermal Energies=              -422.998408
 Sum of electronic and thermal Enthalpies=            -422.997464
 Sum of electronic and thermal Free Energies=         -423.034101

                     E (Thermal)             CV                S
                      KCal/Mol        Cal/Mol-Kelvin    Cal/Mol-Kelvin
 Total                  106.793             26.170             77.109
 Electronic               0.000              0.000              0.000
 Translational            0.889              2.981             40.409
 Rotational               0.889              2.981             27.790
 Vibrational            105.016             20.208              8.910
 Vibration     1          0.668              1.745              1.660
 Vibration     2          0.731              1.565              1.145
 Vibration     3          0.758              1.491              0.998
 Vibration     4          0.854              1.254              0.663
 Vibration     5          0.872              1.213              0.618
 Vibration     6          0.897              1.158              0.562
 Vibration     7          0.958              1.033              0.450

 Optimization completed.
    -- Stationary point found.
 Normal termination of Gaussian 09 at Mon Jan 27 12:14:02 2020.
