 Gaussian 09, Revision D.01,
 Gaussian 09:  ES64L-G09RevD.01 24-Apr-2013

 -----------------------------
 # b3lyp 6-31G(2df,p) opt Freq
 -----------------------------

 -----
 titel
 -----
 Symbolic Z-matrix:
 Charge =  0 Multiplicity = 1

 SCF Done:  E(RB3LYP) =  -423.223887734     A.U. after   14 cycles
 Optimization completed.
    -- Stationary point found.
 Normal termination of Gaussian 09 at Tue Jan 28 00:02:38 2020.

 ----------------------------------------------------------------------
 #N Geom=AllCheck Guess=TCheck SCRF=Check GenChk RB3LYP/6-31G(2df,p) Fr
 eq
 ----------------------------------------------------------------------

 Structure from the checkpoint file:  "/scratch/puck/g09_880c21d9-0af7-41e9-a2d7-3215e22d54fb/Gau-56470.chk"
 -----
 titel
 -----
 Charge =  0 Multiplicity = 1

                         Standard orientation:
 ---------------------------------------------------------------------
 Center     Atomic      Atomic             Coordinates (Angstroms)
 Number     Number       Type             X           Y           Z
 ---------------------------------------------------------------------
      1          6           0       -2.864747   -0.525137   -0.662128
      2          6           0       -1.394689   -0.230636   -0.463140
      3          6           0       -0.965236    0.857335    0.490137
      4          6           0        0.272647    1.678676    0.213607
      5          8           0        1.294911    0.956212   -0.490661
      6          6           0        1.614363   -0.320565   -0.151452
      7          8           0        2.557471   -0.843855   -0.677377
      8          6           0        0.732924   -1.014211    0.877920
      9          6           0       -0.721132   -0.584225    0.845068
     10          1           0       -3.020106   -1.554496   -1.002702
     11          1           0       -3.423625   -0.396615    0.271120
     12          1           0       -3.306684    0.144043   -1.408270
     13          1           0       -0.786964   -0.343146   -1.357544
     14          1           0       -1.743061    1.401044    1.019256
     15          1           0        0.055075    2.539350   -0.425553
     16          1           0        0.692739    2.060781    1.154571
     17          1           0        0.859188   -2.088125    0.718912
     18          1           0        1.157960   -0.791780    1.867041
     19          1           0       -1.348352   -1.037337    1.607392
 ---------------------------------------------------------------------

 SCF Done:  E(RB3LYP) =  -423.223887734     A.U. after    1 cycles

 The electronic state is 1-A.
 Alpha  occ. eigenvalues --  -19.17774 -19.11442 -10.30261 -10.25139 -10.20451
 Alpha  occ. eigenvalues --  -10.20371 -10.20334 -10.20172 -10.18735  -1.09252
 Alpha  occ. eigenvalues --   -1.01173  -0.88416  -0.76454  -0.74352  -0.69332
 Alpha  occ. eigenvalues --   -0.61594  -0.58668  -0.52695  -0.51093  -0.50056
 Alpha  occ. eigenvalues --   -0.48042  -0.44751  -0.43431  -0.42511  -0.41577
 Alpha  occ. eigenvalues --   -0.40578  -0.38826  -0.38399  -0.36449  -0.33968
 Alpha  occ. eigenvalues --   -0.29901  -0.28321  -0.27842  -0.26012
 Alpha virt. eigenvalues --    0.01583   0.07768   0.10207   0.10440   0.12068
 Alpha virt. eigenvalues --    0.12542   0.13796   0.14457   0.15559   0.16399
 Alpha virt. eigenvalues --    0.16738   0.18023   0.18564   0.19077   0.20119

 Mulliken charges:
               1
     1  C   -0.420891
     2  C   -0.014072
     3  C   -0.058425
     4  C   -0.102747
     5  O   -0.223673
     6  C    0.400062
     7  O   -0.324612
     8  C   -0.361459
     9  C   -0.054941
    10  H    0.124018
    11  H    0.114497
    12  H    0.122500
    13  H    0.106010
    14  H    0.090894
    15  H    0.127719
    16  H    0.113729
    17  H    0.139038
    18  H    0.133356
    19  H    0.088996
 Sum of Mulliken charges =   0.00000

 Dipole moment (field-independent basis, Debye):
    X=             -3.6603    Y=              0.9891    Z=              2.2556  Tot=              4.4118
 Quadrupole moment (field-independent basis, Debye-Ang):
   XX=            -61.6390   YY=            -51.2115   ZZ=            -52.3803
   XY=              1.9413   XZ=              4.5834   YZ=             -0.3056

  Exact polarizability:  84.483  -3.676  76.022   0.406   0.688  66.109
 Approx polarizability: 111.891  -9.986 114.126  -4.191   2.502 103.067

                      1                      2                      3
                      A                      A                      A
 Frequencies --     81.1640               167.6304               210.2099
 Red. masses --      4.8849                 3.8811                 1.1704
 Frc consts  --      0.0190                 0.0643                 0.0305
 IR Inten    --      2.9617                 2.2484                 0.3152

                      4                      5                      6
                      A                      A                      A
 Frequencies --    233.1552               237.5854               314.2866
 Red. masses --      2.2126                 2.0837                 2.0803
 Frc consts  --      0.0709                 0.0693                 0.1211
 IR Inten    --      0.5684                 0.2236                 0.4352

                      7                      8                      9
                      A                      A                      A
 Frequencies --    364.1551               434.2079               530.0273
 Red. masses --      3.1780                 7.5543                 4.1183
 Frc consts  --      0.2483                 0.8392                 0.6817
 IR Inten    --      1.2321                 2.5568                 6.5341

                     10                     11                     12
                      A                      A                      A
 Frequencies --    544.7376               619.7515               737.0737
 Red. masses --      3.9755                 3.3789                 4.0975
 Frc consts  --      0.6951                 0.7646                 1.3116
 IR Inten    --      4.8743                 0.2917                 2.6194

                     13                     14                     15
                      A                      A                      A
 Frequencies --    768.0420               798.0087               829.0924
 Red. masses --      4.6008                 2.7949                 2.3954
 Frc consts  --      1.5990                 1.0486                 0.9701
 IR Inten    --      3.4860                 1.1431                 5.2929

                     16                     17                     18
                      A                      A                      A
 Frequencies --    855.2618               943.6945               998.4448
 Red. masses --      1.7164                 1.4212                 2.0477
 Frc consts  --      0.7397                 0.7457                 1.2027
 IR Inten    --      9.1108                 9.2870                17.9434

                     19                     20                     21
                      A                      A                      A
 Frequencies --   1005.0481              1043.8374              1075.0515
 Red. masses --      1.9651                 1.9056                 1.6209
 Frc consts  --      1.1695                 1.2233                 1.1037
 IR Inten    --     14.1816                 5.0347                 8.7969

                     22                     23                     24
                      A                      A                      A
 Frequencies --   1101.0966              1112.3040              1122.0139
 Red. masses --      1.2884                 2.3954                 2.2563
 Frc consts  --      0.9204                 1.7461                 1.6736
 IR Inten    --      1.5750                45.5661                11.1718

                     25                     26                     27
                      A                      A                      A
 Frequencies --   1135.9820              1153.7590              1196.7350
 Red. masses --      1.7959                 1.9044                 2.3349
 Frc consts  --      1.3655                 1.4936                 1.9702
 IR Inten    --     18.7870                 7.9552               116.7130

                     28                     29                     30
                      A                      A                      A
 Frequencies --   1224.8252              1240.8119              1282.4260
 Red. masses --      1.5775                 1.4020                 1.1926
 Frc consts  --      1.3943                 1.2718                 1.1556
 IR Inten    --      7.2058                26.9937                24.8566

                     31                     32                     33
                      A                      A                      A
 Frequencies --   1309.0088              1344.0375              1361.6169
 Red. masses --      1.5621                 1.7056                 1.5014
 Frc consts  --      1.5770                 1.8153                 1.6401
 IR Inten    --     10.7206                 7.9719                12.8939

                     34                     35                     36
                      A                      A                      A
 Frequencies --   1417.6186              1422.6591              1465.2005
 Red. masses --      1.3637                 1.3822                 1.2141
 Frc consts  --      1.6147                 1.6483                 1.5357
 IR Inten    --     22.4497                15.8670                 4.2760

                     37                     38                     39
                      A                      A                      A
 Frequencies --   1480.2694              1493.7339              1505.6210
 Red. masses --      1.7297                 1.0456                 1.1580
 Frc consts  --      2.2331                 1.3746                 1.5466
 IR Inten    --      5.8764                 2.1942                 3.4569

                     40                     41                     42
                      A                      A                      A
 Frequencies --   1514.6518              1849.2001              3008.7750
 Red. masses --      1.1048                12.2747                 1.0682
 Frc consts  --      1.4934                24.7302                 5.6976
 IR Inten    --      2.1860               335.1914                52.1535

                     43                     44                     45
                      A                      A                      A
 Frequencies --   3018.8319              3028.6153              3081.9618
 Red. masses --      1.0689                 1.0351                 1.0960
 Frc consts  --      5.7393                 5.5942                 6.1337
 IR Inten    --     18.9007                31.5408                25.4410

                     46                     47                     48
                      A                      A                      A
 Frequencies --   3093.8134              3095.1975              3098.3048
 Red. masses --      1.1013                 1.1001                 1.0921
 Frc consts  --      6.2109                 6.2096                 6.1767
 IR Inten    --     23.1468                17.2804                10.4370

                     49                     50                     51
                      A                      A                      A
 Frequencies --   3140.9356              3142.8508              3153.6174
 Red. masses --      1.0901                 1.0872                 1.0883
 Frc consts  --      6.3365                 6.3273                 6.3767
 IR Inten    --      3.4223                11.0176                26.3815

 - Thermochemistry -
 -------------------
 Temperature   298.150 Kelvin.  Pressure   1.00000 Atm.
 Atom     1 has atomic number  6 and mass  12.00000

 Molecular mass:   126.06808 amu.
 Principal axes and moments of inertia in atomic units:
                           1         2         3
     Eigenvalues --   593.862401439.900341644.64290
           X            0.99959   0.01539   0.02432
           Y           -0.01535   0.99988  -0.00203
           Z           -0.02435   0.00166   0.99970
 This molecule is an asymmetric top.
 Rotational symmetry number  1.
 Warning -- assumption of classical behavior for rotation
           may cause significant error
 Rotational temperatures (Kelvin)      0.14585     0.06015     0.05266
 Rotational constants (GHZ):           3.03899     1.25338     1.09735
 Zero-point vibrational energy     421007.4 (Joules/Mol)
                                  100.62318 (Kcal/Mol)
 Warning -- explicit consideration of  11 degrees of freedom as
           vibrations may cause significant error
 Vibrational temperatures:    116.78   241.18   302.44   335.46   341.83
          (Kelvin)            452.19   523.94   624.73   762.59   783.75
                              891.68  1060.48  1105.04  1148.16  1192.88
                             1230.53  1357.76  1436.54  1446.04  1501.85
                             1546.76  1584.23  1600.36  1614.33  1634.42
                             1660.00  1721.83  1762.25  1785.25  1845.12
                             1883.37  1933.77  1959.06  2039.63  2046.89
                             2108.09  2129.77  2149.15  2166.25  2179.24
                             2660.58  4328.95  4343.42  4357.50  4434.25
                             4451.30  4453.29  4457.76  4519.10  4521.86
                             4537.35

 Zero-point correction=                           0.160353 (Hartree/Particle)
 Thermal correction to Energy=                    0.168520
 Thermal correction to Enthalpy=                  0.169464
 Thermal correction to Gibbs Free Energy=         0.127588
 Sum of electronic and zero-point Energies=           -423.063534
 Sum of electronic and thermal Energies=              -423.055368
 Sum of electronic and thermal Enthalpies=            -423.054424
 Sum of electronic and thermal Free Energies=         -423.096299

                     E (Thermal)             CV                S
                      KCal/Mol        Cal/Mol-Kelvin    Cal/Mol-Kelvin
 Total                  105.748             31.261             88.135
 Electronic               0.000              0.000              0.000
 Translational            0.889              2.981             40.409
 Rotational               0.889              2.981             28.732
 Vibrational            103.970             25.299             18.994
 Vibration     1          0.600              1.962              3.863
 Vibration     2          0.624              1.882              2.462
 Vibration     3          0.642              1.825              2.042
 Vibration     4          0.654              1.790              1.855
 Vibration     5          0.656              1.783              1.821
 Vibration     6          0.702              1.646              1.340
 Vibration     7          0.738              1.546              1.104
 Vibration     8          0.795              1.396              0.845
 Vibration     9          0.885              1.184              0.587
 Vibration    10          0.900              1.151              0.555
 Vibration    11          0.980              0.990              0.417

 Optimization completed.
    -- Stationary point found.
 Normal termination of Gaussian 09 at Tue Jan 28 01:23:19 2020.
