 Gaussian 09, Revision D.01,
 Gaussian 09:  ES64L-G09RevD.01 24-Apr-2013

 -----------------------------
 # b3lyp 6-31G(2df,p) opt Freq
 -----------------------------

 -----
 titel
 -----
 Symbolic Z-matrix:
 Charge =  0 Multiplicity = 1

 SCF Done:  E(RB3LYP) =  -423.180196905     A.U. after   14 cycles
 Optimization completed.
    -- Stationary point found.
 Normal termination of Gaussian 09 at Mon Jan 27 13:38:29 2020.

 ----------------------------------------------------------------------
 #N Geom=AllCheck Guess=TCheck SCRF=Check GenChk RB3LYP/6-31G(2df,p) Fr
 eq
 ----------------------------------------------------------------------

 Structure from the checkpoint file:  "/scratch/puck/g09_d16cece2-b699-4c0f-9d2b-0722124d498e/Gau-102220.chk"
 -----
 titel
 -----
 Charge =  0 Multiplicity = 1

                         Standard orientation:
 ---------------------------------------------------------------------
 Center     Atomic      Atomic             Coordinates (Angstroms)
 Number     Number       Type             X           Y           Z
 ---------------------------------------------------------------------
      1          8           0       -3.211938   -0.670159    0.112794
      2          6           0       -2.203326   -0.130919    0.488001
      3          6           0       -1.363329    0.816769   -0.346946
      4          6           0        0.103051    0.434831   -0.358604
      5          6           0        1.178608    1.507278   -0.476029
      6          6           0        1.050772    0.690878    0.785758
      7          8           0        1.906328   -0.400494    0.981507
      8          6           0        1.869919   -1.203143   -0.200395
      9          6           0        0.502310   -0.946917   -0.872429
     10          1           0       -1.809733   -0.301255    1.517103
     11          1           0       -1.785450    0.857272   -1.356736
     12          1           0       -1.471898    1.817002    0.096294
     13          1           0        2.026439    1.340245   -1.131832
     14          1           0        0.848262    2.540075   -0.432726
     15          1           0        0.764964    1.156665    1.721991
     16          1           0        2.693168   -0.922299   -0.871285
     17          1           0        2.020862   -2.243971    0.097207
     18          1           0        0.569298   -1.005834   -1.963148
     19          1           0       -0.239069   -1.685342   -0.547400
 ---------------------------------------------------------------------

 SCF Done:  E(RB3LYP) =  -423.180196905     A.U. after    1 cycles

 The electronic state is 1-A.
 Alpha  occ. eigenvalues --  -19.14697 -19.14222 -10.27364 -10.24134 -10.23520
 Alpha  occ. eigenvalues --  -10.21073 -10.20202 -10.19668 -10.19233  -1.04966
 Alpha  occ. eigenvalues --   -1.04843  -0.86684  -0.76827  -0.75011  -0.65520
 Alpha  occ. eigenvalues --   -0.59426  -0.57943  -0.56457  -0.52032  -0.48232
 Alpha  occ. eigenvalues --   -0.47132  -0.45761  -0.44010  -0.42470  -0.41445
 Alpha  occ. eigenvalues --   -0.40926  -0.39794  -0.37920  -0.35061  -0.33571
 Alpha  occ. eigenvalues --   -0.33171  -0.29344  -0.24940  -0.23684
 Alpha virt. eigenvalues --   -0.02561   0.08640   0.09096   0.10352   0.11445
 Alpha virt. eigenvalues --    0.12252   0.12984   0.14010   0.14869   0.15843
 Alpha virt. eigenvalues --    0.17440   0.18254   0.19343   0.21977   0.23111

 Mulliken charges:
               1
     1  O   -0.240238
     2  C    0.161374
     3  C   -0.373122
     4  C    0.293726
     5  C   -0.387922
     6  C    0.090045
     7  O   -0.255905
     8  C   -0.093530
     9  C   -0.301572
    10  H    0.080217
    11  H    0.121972
    12  H    0.118070
    13  H    0.119911
    14  H    0.113870
    15  H    0.103500
    16  H    0.102936
    17  H    0.116376
    18  H    0.111111
    19  H    0.119181
 Sum of Mulliken charges =   0.00000

 Dipole moment (field-independent basis, Debye):
    X=              1.5258    Y=              1.2826    Z=             -0.7883  Tot=              2.1435
 Quadrupole moment (field-independent basis, Debye-Ang):
   XX=            -65.8618   YY=            -50.4806   ZZ=            -52.8691
   XY=             -4.7054   XZ=             -4.3145   YZ=              1.7156

  Exact polarizability:  83.124   2.059  74.914  -0.023   0.162  66.858
 Approx polarizability: 115.231   7.643 108.937   4.898   0.808 105.114

                      1                      2                      3
                      A                      A                      A
 Frequencies --     49.8477                75.3443               142.8678
 Red. masses --      5.0317                 3.6971                 2.3952
 Frc consts  --      0.0074                 0.0124                 0.0288
 IR Inten    --      6.3760                 3.6497                 1.6808

                      4                      5                      6
                      A                      A                      A
 Frequencies --    222.0160               257.0967               297.5150
 Red. masses --      2.1085                 2.7161                 2.9496
 Frc consts  --      0.0612                 0.1058                 0.1538
 IR Inten    --      3.2513                 1.1277                 2.8107

                      7                      8                      9
                      A                      A                      A
 Frequencies --    427.7185               444.6217               467.1192
 Red. masses --      2.9759                 2.8217                 2.4411
 Frc consts  --      0.3208                 0.3287                 0.3138
 IR Inten    --      5.3227                 0.5605                 8.7861

                     10                     11                     12
                      A                      A                      A
 Frequencies --    599.0106               685.6497               710.5358
 Red. masses --      2.7750                 2.7575                 2.9154
 Frc consts  --      0.5867                 0.7638                 0.8672
 IR Inten    --      6.3805                 0.4640                 7.4421

                     13                     14                     15
                      A                      A                      A
 Frequencies --    794.7534               847.2467               850.3328
 Red. masses --      1.7721                 2.1959                 1.6030
 Frc consts  --      0.6595                 0.9287                 0.6829
 IR Inten    --     14.6651                 4.9853                 5.1038

                     16                     17                     18
                      A                      A                      A
 Frequencies --    892.8902               937.2496               962.5288
 Red. masses --      2.5710                 1.6816                 2.4887
 Frc consts  --      1.2077                 0.8703                 1.3585
 IR Inten    --     12.7874                 3.7510                 6.2211

                     19                     20                     21
                      A                      A                      A
 Frequencies --    991.3548              1007.0176              1031.5709
 Red. masses --      1.8152                 2.5512                 1.4436
 Frc consts  --      1.0511                 1.5243                 0.9051
 IR Inten    --      3.5661                15.6463                10.1416

                     22                     23                     24
                      A                      A                      A
 Frequencies --   1040.1539              1063.9842              1091.7294
 Red. masses --      1.8614                 2.3873                 1.8745
 Frc consts  --      1.1866                 1.5923                 1.3164
 IR Inten    --     12.3852                10.1142                17.6401

                     25                     26                     27
                      A                      A                      A
 Frequencies --   1113.4416              1168.8255              1188.6985
 Red. masses --      2.1513                 3.2247                 1.4424
 Frc consts  --      1.5714                 2.5956                 1.2008
 IR Inten    --     12.5062                75.7681                 4.5115

                     28                     29                     30
                      A                      A                      A
 Frequencies --   1221.1086              1233.4007              1262.1547
 Red. masses --      1.3118                 1.4457                 1.4509
 Frc consts  --      1.1524                 1.2958                 1.3618
 IR Inten    --      1.6452                 5.8774                 1.8136

                     31                     32                     33
                      A                      A                      A
 Frequencies --   1300.3894              1309.1472              1324.8300
 Red. masses --      1.5130                 1.4134                 1.8848
 Frc consts  --      1.5074                 1.4272                 1.9491
 IR Inten    --      1.5218                 0.4376                11.9215

                     34                     35                     36
                      A                      A                      A
 Frequencies --   1381.3139              1412.1510              1425.4500
 Red. masses --      1.4902                 1.6259                 1.2067
 Frc consts  --      1.6753                 1.9103                 1.4446
 IR Inten    --      2.1147                 5.4043                 6.1264

                     37                     38                     39
                      A                      A                      A
 Frequencies --   1457.9287              1483.0426              1498.5249
 Red. masses --      1.0909                 1.2539                 1.1668
 Frc consts  --      1.3661                 1.6249                 1.5437
 IR Inten    --      3.7694                11.3108                 2.4975

                     40                     41                     42
                      A                      A                      A
 Frequencies --   1528.4511              1834.3245              2864.0113
 Red. masses --      1.0919                10.1708                 1.0821
 Frc consts  --      1.5030                20.1631                 5.2295
 IR Inten    --      1.2885               168.8081                86.8216

                     43                     44                     45
                      A                      A                      A
 Frequencies --   3007.1915              3013.4346              3042.2282
 Red. masses --      1.0710                 1.0632                 1.0612
 Frc consts  --      5.7066                 5.6884                 5.7868
 IR Inten    --     49.2142                13.1011                21.7808

                     46                     47                     48
                      A                      A                      A
 Frequencies --   3079.6759              3083.8791              3096.1456
 Red. masses --      1.0975                 1.0970                 1.1005
 Frc consts  --      6.1330                 6.1466                 6.2155
 IR Inten    --     15.7086                24.4056                33.2589

                     49                     50                     51
                      A                      A                      A
 Frequencies --   3130.2550              3179.2400              3215.7420
 Red. masses --      1.0545                 1.0926                 1.1160
 Frc consts  --      6.0877                 6.5067                 6.7993
 IR Inten    --     10.1391                12.2999                 8.5410

 - Thermochemistry -
 -------------------
 Temperature   298.150 Kelvin.  Pressure   1.00000 Atm.
 Atom     1 has atomic number  8 and mass  15.99491

 Molecular mass:   126.06808 amu.
 Principal axes and moments of inertia in atomic units:
                           1         2         3
     Eigenvalues --   569.808701640.486171820.06037
           X            0.99976  -0.01621  -0.01463
           Y            0.01662   0.99945   0.02856
           Z            0.01416  -0.02880   0.99948
 This molecule is an asymmetric top.
 Rotational symmetry number  1.
 Warning -- assumption of classical behavior for rotation
           may cause significant error
 Rotational temperatures (Kelvin)      0.15201     0.05280     0.04759
 Rotational constants (GHZ):           3.16728     1.10013     0.99158
 Zero-point vibrational energy     417168.6 (Joules/Mol)
                                   99.70568 (Kcal/Mol)
 Warning -- explicit consideration of  10 degrees of freedom as
           vibrations may cause significant error
 Vibrational temperatures:     71.72   108.40   205.55   319.43   369.90
          (Kelvin)            428.06   615.39   639.71   672.08   861.84
                              986.50  1022.30  1143.47  1219.00  1223.44
                             1284.67  1348.49  1384.86  1426.34  1448.87
                             1484.20  1496.55  1530.83  1570.75  1601.99
                             1681.68  1710.27  1756.90  1774.59  1815.96
                             1870.97  1883.57  1906.13  1987.40  2031.77
                             2050.90  2097.63  2133.76  2156.04  2199.10
                             2639.18  4120.67  4326.67  4335.65  4377.08
                             4430.96  4437.01  4454.66  4503.73  4574.21
                             4626.73

 Zero-point correction=                           0.158891 (Hartree/Particle)
 Thermal correction to Energy=                    0.167340
 Thermal correction to Enthalpy=                  0.168285
 Thermal correction to Gibbs Free Energy=         0.124893
 Sum of electronic and zero-point Energies=           -423.021306
 Sum of electronic and thermal Energies=              -423.012856
 Sum of electronic and thermal Enthalpies=            -423.011912
 Sum of electronic and thermal Free Energies=         -423.055304

                     E (Thermal)             CV                S
                      KCal/Mol        Cal/Mol-Kelvin    Cal/Mol-Kelvin
 Total                  105.008             31.403             91.326
 Electronic               0.000              0.000              0.000
 Translational            0.889              2.981             40.409
 Rotational               0.889              2.981             28.922
 Vibrational            103.230             25.441             21.996
 Vibration     1          0.595              1.978              4.823
 Vibration     2          0.599              1.965              4.009
 Vibration     3          0.616              1.910              2.765
 Vibration     4          0.648              1.808              1.943
 Vibration     5          0.667              1.751              1.681
 Vibration     6          0.691              1.678              1.431
 Vibration     7          0.789              1.410              0.866
 Vibration     8          0.804              1.373              0.812
 Vibration     9          0.824              1.323              0.746
 Vibration    10          0.957              1.034              0.451

 Normal termination of Gaussian 09 at Mon Jan 27 14:20:25 2020.
