 Gaussian 09, Revision D.01,
 Gaussian 09:  ES64L-G09RevD.01 24-Apr-2013

 -----------------------------
 # b3lyp 6-31G(2df,p) opt Freq
 -----------------------------

 -----
 titel
 -----
 Symbolic Z-matrix:
 Charge =  0 Multiplicity = 1

 SCF Done:  E(RB3LYP) =  -423.238315834     A.U. after   14 cycles
 Optimization completed.
    -- Stationary point found.
 Normal termination of Gaussian 09 at Mon Jan 27 18:48:40 2020.

 ----------------------------------------------------------------------
 #N Geom=AllCheck Guess=TCheck SCRF=Check GenChk RB3LYP/6-31G(2df,p) Fr
 eq
 ----------------------------------------------------------------------

 Structure from the checkpoint file:  "/scratch/puck/g09_36879936-ecd6-44c3-ae3a-872e40dc7fdc/Gau-66750.chk"
 -----
 titel
 -----
 Charge =  0 Multiplicity = 1

                         Standard orientation:
 ---------------------------------------------------------------------
 Center     Atomic      Atomic             Coordinates (Angstroms)
 Number     Number       Type             X           Y           Z
 ---------------------------------------------------------------------
      1          6           0       -1.353543    1.745761    0.613894
      2          6           0       -0.762094    0.504768   -0.017648
      3          6           0       -1.623501   -0.342824   -0.986989
      4          6           0       -1.115824   -1.636826   -0.288380
      5          6           0       -0.466385   -0.773099    0.835450
      6          6           0        1.046041   -0.819483    0.968553
      7          6           0        1.546211    0.128527   -0.123496
      8          8           0        2.666465    0.276357   -0.515364
      9          8           0        0.500830    0.842777   -0.627962
     10          1           0       -1.519806    2.520270   -0.141467
     11          1           0       -2.312806    1.513363    1.086153
     12          1           0       -0.681590    2.153589    1.376045
     13          1           0       -2.693246   -0.169504   -0.844812
     14          1           0       -1.381083   -0.217926   -2.043762
     15          1           0       -1.885967   -2.337078    0.039738
     16          1           0       -0.379891   -2.190884   -0.877328
     17          1           0       -0.999285   -0.814962    1.786171
     18          1           0        1.402851   -0.442170    1.933144
     19          1           0        1.487032   -1.808715    0.824425
 ---------------------------------------------------------------------

 SCF Done:  E(RB3LYP) =  -423.238315834     A.U. after    1 cycles

 The electronic state is 1-A.
 Alpha  occ. eigenvalues --  -19.17569 -19.11691 -10.29978 -10.25219 -10.20267
 Alpha  occ. eigenvalues --  -10.20149 -10.19498 -10.19110 -10.18775  -1.09420
 Alpha  occ. eigenvalues --   -1.01660  -0.85437  -0.77500  -0.73829  -0.64774
 Alpha  occ. eigenvalues --   -0.64060  -0.59062  -0.54607  -0.49929  -0.48241
 Alpha  occ. eigenvalues --   -0.45369  -0.44279  -0.44081  -0.42329  -0.42094
 Alpha  occ. eigenvalues --   -0.39750  -0.38903  -0.36641  -0.35402  -0.34550
 Alpha  occ. eigenvalues --   -0.31922  -0.30513  -0.28328  -0.26165
 Alpha virt. eigenvalues --    0.01722   0.07111   0.08962   0.10526   0.10893
 Alpha virt. eigenvalues --    0.12595   0.12825   0.15035   0.15695   0.17003
 Alpha virt. eigenvalues --    0.17485   0.19558   0.20152   0.20817   0.21372

 Mulliken charges:
               1
     1  C   -0.454331
     2  C    0.399701
     3  C   -0.259559
     4  C   -0.242025
     5  C   -0.059370
     6  C   -0.379330
     7  C    0.407667
     8  O   -0.333757
     9  O   -0.256584
    10  H    0.135536
    11  H    0.118149
    12  H    0.124219
    13  H    0.105497
    14  H    0.118806
    15  H    0.108113
    16  H    0.112344
    17  H    0.078573
    18  H    0.137562
    19  H    0.138789
 Sum of Mulliken charges =   0.00000

 Dipole moment (field-independent basis, Debye):
    X=             -3.6721    Y=             -1.2341    Z=              1.9618  Tot=              4.3423
 Quadrupole moment (field-independent basis, Debye-Ang):
   XX=            -60.7609   YY=            -52.0877   ZZ=            -52.1860
   XY=             -2.5577   XZ=              3.3716   YZ=              1.2399

  Exact polarizability:  85.676  -1.750  71.946   0.891  -0.618  66.599
 Approx polarizability: 124.000  -1.763 100.351  -2.363  -3.284 100.184

                      1                      2                      3
                      A                      A                      A
 Frequencies --     88.7163                98.8250               215.1004
 Red. masses --      2.1909                 5.2742                 1.1014
 Frc consts  --      0.0102                 0.0303                 0.0300
 IR Inten    --      1.4674                 1.2968                 0.0527

                      4                      5                      6
                      A                      A                      A
 Frequencies --    245.7052               316.6689               366.0710
 Red. masses --      1.9378                 2.5324                 2.2696
 Frc consts  --      0.0689                 0.1496                 0.1792
 IR Inten    --      0.5966                 0.3030                 0.1843

                      7                      8                      9
                      A                      A                      A
 Frequencies --    397.0521               496.0302               553.6049
 Red. masses --      3.9432                 3.9030                 2.8125
 Frc consts  --      0.3663                 0.5658                 0.5079
 IR Inten    --      1.8112                 4.2156                 3.6414

                     10                     11                     12
                      A                      A                      A
 Frequencies --    592.4723               652.0249               660.1733
 Red. masses --      4.3496                 3.9369                 3.1550
 Frc consts  --      0.8996                 0.9861                 0.8101
 IR Inten    --      1.9383                 5.2937                 5.6000

                     13                     14                     15
                      A                      A                      A
 Frequencies --    748.8126               800.2814               831.8507
 Red. masses --      1.5307                 2.2984                 3.0555
 Frc consts  --      0.5057                 0.8673                 1.2457
 IR Inten    --      3.0446                 0.6433                 3.7406

                     16                     17                     18
                      A                      A                      A
 Frequencies --    868.6100               913.7907               938.9605
 Red. masses --      2.4380                 1.9971                 1.6857
 Frc consts  --      1.0838                 0.9825                 0.8756
 IR Inten    --      1.7001                 3.3148                10.6108

                     19                     20                     21
                      A                      A                      A
 Frequencies --    955.1466               976.1121               998.6755
 Red. masses --      2.8871                 3.2198                 1.5999
 Frc consts  --      1.5518                 1.8075                 0.9401
 IR Inten    --     13.0309                50.7071                 2.9906

                     22                     23                     24
                      A                      A                      A
 Frequencies --   1064.5001              1102.0741              1133.7563
 Red. masses --      1.6738                 1.5695                 2.7241
 Frc consts  --      1.1175                 1.1232                 2.0631
 IR Inten    --     12.8364                 1.2445               105.8665

                     25                     26                     27
                      A                      A                      A
 Frequencies --   1141.6905              1197.3700              1204.5228
 Red. masses --      2.1493                 2.3234                 1.5546
 Frc consts  --      1.6506                 1.9626                 1.3289
 IR Inten    --     44.9337                46.5600                37.3163

                     28                     29                     30
                      A                      A                      A
 Frequencies --   1218.2149              1237.2705              1262.4381
 Red. masses --      1.5126                 1.4849                 2.2149
 Frc consts  --      1.3226                 1.3393                 2.0798
 IR Inten    --     23.4111                16.3681                46.9461

                     31                     32                     33
                      A                      A                      A
 Frequencies --   1276.3165              1297.7787              1322.7770
 Red. masses --      1.5354                 1.7165                 2.0108
 Frc consts  --      1.4737                 1.7033                 2.0730
 IR Inten    --     10.1105                 0.5818                14.0854

                     34                     35                     36
                      A                      A                      A
 Frequencies --   1339.7034              1412.0871              1458.4634
 Red. masses --      1.6675                 1.3212                 1.0892
 Frc consts  --      1.7634                 1.5521                 1.3650
 IR Inten    --      5.0673                 9.3081                 6.2325

                     37                     38                     39
                      A                      A                      A
 Frequencies --   1469.6843              1483.7995              1490.2261
 Red. masses --      1.0911                 1.0522                 1.0512
 Frc consts  --      1.3886                 1.3649                 1.3755
 IR Inten    --      1.9631                 2.0804                 2.2849

                     40                     41                     42
                      A                      A                      A
 Frequencies --   1494.1125              1879.1777              3036.0487
 Red. masses --      1.1142                12.9345                 1.0351
 Frc consts  --      1.4655                26.9114                 5.6213
 IR Inten    --      2.9911               399.1588                13.7590

                     43                     44                     45
                      A                      A                      A
 Frequencies --   3055.7129              3064.4778              3069.2851
 Red. masses --      1.0644                 1.0592                 1.0619
 Frc consts  --      5.8557                 5.8606                 5.8940
 IR Inten    --     10.2091                30.8236                20.2686

                     46                     47                     48
                      A                      A                      A
 Frequencies --   3098.3865              3108.0864              3108.8313
 Red. masses --      1.0903                 1.1001                 1.1008
 Frc consts  --      6.1671                 6.2615                 6.2682
 IR Inten    --     10.3344                 9.6275                15.1796

                     49                     50                     51
                      A                      A                      A
 Frequencies --   3113.4933              3117.2928              3132.9480
 Red. masses --      1.1014                 1.1035                 1.1067
 Frc consts  --      6.2908                 6.3182                 6.4003
 IR Inten    --     15.1681                 7.5464                35.1972

 - Thermochemistry -
 -------------------
 Temperature   298.150 Kelvin.  Pressure   1.00000 Atm.
 Atom     1 has atomic number  6 and mass  12.00000

 Molecular mass:   126.06808 amu.
 Principal axes and moments of inertia in atomic units:
                           1         2         3
     Eigenvalues --   688.723141169.597591402.60238
           X            0.99905  -0.03928   0.01902
           Y            0.03847   0.99841   0.04128
           Z           -0.02062  -0.04051   0.99897
 This molecule is an asymmetric top.
 Rotational symmetry number  1.
 Warning -- assumption of classical behavior for rotation
           may cause significant error
 Rotational temperatures (Kelvin)      0.12576     0.07405     0.06175
 Rotational constants (GHZ):           2.62042     1.54304     1.28671
 Zero-point vibrational energy     419322.3 (Joules/Mol)
                                  100.22043 (Kcal/Mol)
 Warning -- explicit consideration of  10 degrees of freedom as
           vibrations may cause significant error
 Vibrational temperatures:    127.64   142.19   309.48   353.51   455.62
          (Kelvin)            526.69   571.27   713.68   796.51   852.43
                              938.12   949.84  1077.37  1151.43  1196.85
                             1249.73  1314.74  1350.95  1374.24  1404.41
                             1436.87  1531.58  1585.64  1631.22  1642.64
                             1722.75  1733.04  1752.74  1780.15  1816.36
                             1836.33  1867.21  1903.18  1927.53  2031.68
                             2098.40  2114.55  2134.85  2144.10  2149.69
                             2703.71  4368.19  4396.48  4409.09  4416.01
                             4457.88  4471.84  4472.91  4479.62  4485.08
                             4507.61

 Zero-point correction=                           0.159711 (Hartree/Particle)
 Thermal correction to Energy=                    0.167738
 Thermal correction to Enthalpy=                  0.168682
 Thermal correction to Gibbs Free Energy=         0.127051
 Sum of electronic and zero-point Energies=           -423.078604
 Sum of electronic and thermal Energies=              -423.070578
 Sum of electronic and thermal Enthalpies=            -423.069633
 Sum of electronic and thermal Free Energies=         -423.111265

                     E (Thermal)             CV                S
                      KCal/Mol        Cal/Mol-Kelvin    Cal/Mol-Kelvin
 Total                  105.257             31.202             87.621
 Electronic               0.000              0.000              0.000
 Translational            0.889              2.981             40.409
 Rotational               0.889              2.981             28.515
 Vibrational            103.480             25.241             18.697
 Vibration     1          0.602              1.957              3.688
 Vibration     2          0.604              1.950              3.477
 Vibration     3          0.645              1.818              2.000
 Vibration     4          0.660              1.770              1.761
 Vibration     5          0.704              1.642              1.327
 Vibration     6          0.739              1.542              1.096
 Vibration     7          0.764              1.476              0.974
 Vibration     8          0.852              1.259              0.668
 Vibration     9          0.909              1.132              0.537
 Vibration    10          0.950              1.048              0.463

 Optimization completed.
    -- Stationary point found.
 Normal termination of Gaussian 09 at Mon Jan 27 19:29:34 2020.
