 Gaussian 09, Revision D.01,
 Gaussian 09:  ES64L-G09RevD.01 24-Apr-2013

 -----------------------------
 # b3lyp 6-31G(2df,p) opt Freq
 -----------------------------

 -----
 titel
 -----
 Symbolic Z-matrix:
 Charge =  0 Multiplicity = 1

 SCF Done:  E(RB3LYP) =  -423.194945395     A.U. after   14 cycles
 Optimization completed.
    -- Stationary point found.
 Normal termination of Gaussian 09 at Mon Jan 27 13:15:55 2020.

 ----------------------------------------------------------------------
 #N Geom=AllCheck Guess=TCheck SCRF=Check GenChk RB3LYP/6-31G(2df,p) Fr
 eq
 ----------------------------------------------------------------------

 Structure from the checkpoint file:  "/scratch/puck/g09_df192af9-9932-48ab-b246-73226738eaee/Gau-169373.chk"
 -----
 titel
 -----
 Charge =  0 Multiplicity = 1

                         Standard orientation:
 ---------------------------------------------------------------------
 Center     Atomic      Atomic             Coordinates (Angstroms)
 Number     Number       Type             X           Y           Z
 ---------------------------------------------------------------------
      1          8           0        2.709539   -0.292309    0.384609
      2          6           0        1.660207   -0.871270    0.258406
      3          6           0        0.382837   -0.220613   -0.207130
      4          6           0        0.519112    1.086458   -1.036518
      5          6           0       -0.347185    1.854390   -0.000885
      6          6           0       -0.440469    0.579907    0.885588
      7          6           0       -1.782296   -0.157355    0.918846
      8          6           0       -1.819995   -0.863926   -0.444915
      9          8           0       -0.467694   -1.224737   -0.720773
     10          1           0        1.542440   -1.948737    0.508854
     11          1           0        1.556677    1.421184   -1.087772
     12          1           0        0.111329    1.004791   -2.046127
     13          1           0        0.153426    2.698359    0.477179
     14          1           0       -1.313824    2.200190   -0.378178
     15          1           0        0.026185    0.669394    1.867183
     16          1           0       -1.787758   -0.897738    1.724805
     17          1           0       -2.632553    0.514870    1.066145
     18          1           0       -2.417538   -1.778756   -0.456329
     19          1           0       -2.206401   -0.192730   -1.226794
 ---------------------------------------------------------------------

 SCF Done:  E(RB3LYP) =  -423.194945395     A.U. after    1 cycles

 The electronic state is 1-A.
 Alpha  occ. eigenvalues --  -19.15022 -19.14075 -10.26641 -10.23971 -10.23645
 Alpha  occ. eigenvalues --  -10.20161 -10.19505 -10.18899 -10.18324  -1.05465
 Alpha  occ. eigenvalues --   -1.04190  -0.84222  -0.77632  -0.70459  -0.65584
 Alpha  occ. eigenvalues --   -0.61128  -0.59272  -0.53792  -0.51146  -0.48848
 Alpha  occ. eigenvalues --   -0.46546  -0.45631  -0.43605  -0.42741  -0.40840
 Alpha  occ. eigenvalues --   -0.39917  -0.37052  -0.35843  -0.34514  -0.33792
 Alpha  occ. eigenvalues --   -0.31608  -0.30398  -0.26483  -0.24651
 Alpha virt. eigenvalues --   -0.02759   0.07728   0.08235   0.11032   0.12271
 Alpha virt. eigenvalues --    0.12586   0.14277   0.15170   0.15875   0.16819
 Alpha virt. eigenvalues --    0.17880   0.18359   0.19466   0.21539   0.22304

 Mulliken charges:
               1
     1  O   -0.262002
     2  C    0.101547
     3  C    0.325301
     4  C   -0.278488
     5  C   -0.230559
     6  C   -0.074163
     7  C   -0.235849
     8  C   -0.095871
     9  O   -0.305639
    10  H    0.085258
    11  H    0.129833
    12  H    0.109260
    13  H    0.111469
    14  H    0.099476
    15  H    0.086683
    16  H    0.111455
    17  H    0.108270
    18  H    0.115277
    19  H    0.098742
 Sum of Mulliken charges =   0.00000

 Dipole moment (field-independent basis, Debye):
    X=             -3.0637    Y=              0.5553    Z=              0.4874  Tot=              3.1516
 Quadrupole moment (field-independent basis, Debye-Ang):
   XX=            -58.5069   YY=            -52.7233   ZZ=            -52.6041
   XY=              0.0978   XZ=             -1.2776   YZ=             -1.5031

  Exact polarizability:  84.700   1.724  75.556   0.262  -2.400  64.749
 Approx polarizability: 122.262   4.075 109.355   1.534  -0.857  96.782

                      1                      2                      3
                      A                      A                      A
 Frequencies --     80.2886                95.1998               206.4053
 Red. masses --      3.1550                 2.9999                 2.3293
 Frc consts  --      0.0120                 0.0160                 0.0585
 IR Inten    --      1.4627                 5.2994                 2.1674

                      4                      5                      6
                      A                      A                      A
 Frequencies --    223.4069               247.3391               374.8618
 Red. masses --      2.1748                 3.1758                 2.0544
 Frc consts  --      0.0640                 0.1145                 0.1701
 IR Inten    --      1.8369                 7.4100                 0.5041

                      7                      8                      9
                      A                      A                      A
 Frequencies --    400.1503               484.3902               595.4093
 Red. masses --      3.5559                 5.7952                 3.3752
 Frc consts  --      0.3355                 0.8011                 0.7050
 IR Inten    --      5.7998                 3.5430                 3.3598

                     10                     11                     12
                      A                      A                      A
 Frequencies --    646.6076               693.3859               747.7667
 Red. masses --      2.8897                 3.1099                 1.2927
 Frc consts  --      0.7118                 0.8809                 0.4259
 IR Inten    --      3.9328                14.6205                 3.6486

                     13                     14                     15
                      A                      A                      A
 Frequencies --    805.0857               827.0877               888.7353
 Red. masses --      2.6605                 2.2846                 3.2847
 Frc consts  --      1.0160                 0.9208                 1.5286
 IR Inten    --      7.8956                 5.0300                 9.0240

                     16                     17                     18
                      A                      A                      A
 Frequencies --    906.9239               927.7392               960.9193
 Red. masses --      2.0898                 2.1090                 2.3199
 Frc consts  --      1.0127                 1.0695                 1.2621
 IR Inten    --      3.6220                20.6036                 4.0494

                     19                     20                     21
                      A                      A                      A
 Frequencies --    963.6568              1005.8959              1035.7783
 Red. masses --      2.4254                 1.8418                 1.8859
 Frc consts  --      1.3270                 1.0980                 1.1921
 IR Inten    --      2.4590                10.2407                20.3148

                     22                     23                     24
                      A                      A                      A
 Frequencies --   1070.1217              1096.8772              1143.7743
 Red. masses --      2.0858                 2.2633                 1.8668
 Frc consts  --      1.4073                 1.6044                 1.4389
 IR Inten    --     25.5957                 4.7281                23.8437

                     25                     26                     27
                      A                      A                      A
 Frequencies --   1159.5604              1166.7795              1223.3670
 Red. masses --      2.3721                 2.8379                 1.3378
 Frc consts  --      1.8792                 2.2763                 1.1797
 IR Inten    --     11.2316                63.3984                 0.6732

                     28                     29                     30
                      A                      A                      A
 Frequencies --   1231.6723              1240.8708              1254.0108
 Red. masses --      1.3429                 1.5016                 1.3645
 Frc consts  --      1.2002                 1.3622                 1.2643
 IR Inten    --      6.2679                11.3649                 0.8368

                     31                     32                     33
                      A                      A                      A
 Frequencies --   1272.9533              1295.9634              1311.7218
 Red. masses --      1.4467                 1.8857                 1.4768
 Frc consts  --      1.3812                 1.8659                 1.4971
 IR Inten    --      3.1851                 2.4339                 1.5789

                     34                     35                     36
                      A                      A                      A
 Frequencies --   1336.4887              1382.5617              1402.1970
 Red. masses --      1.3695                 1.2881                 1.3165
 Frc consts  --      1.4412                 1.4507                 1.5250
 IR Inten    --      1.2193                 2.7670                10.2664

                     37                     38                     39
                      A                      A                      A
 Frequencies --   1464.2877              1484.5618              1490.0839
 Red. masses --      1.0903                 1.0998                 1.1043
 Frc consts  --      1.3773                 1.4281                 1.4447
 IR Inten    --      4.1200                 4.0003                 1.8246

                     40                     41                     42
                      A                      A                      A
 Frequencies --   1520.2913              1825.1392              2894.1618
 Red. masses --      1.0929                10.7602                 1.0843
 Frc consts  --      1.4883                21.1185                 5.3510
 IR Inten    --      1.3728               146.0288               101.4777

                     43                     44                     45
                      A                      A                      A
 Frequencies --   2991.9613              3052.3354              3059.3363
 Red. masses --      1.0708                 1.0604                 1.0610
 Frc consts  --      5.6479                 5.8206                 5.8506
 IR Inten    --     49.0236                18.2512                33.5549

                     46                     47                     48
                      A                      A                      A
 Frequencies --   3075.2891              3095.7743              3098.8750
 Red. masses --      1.0590                 1.0945                 1.0922
 Frc consts  --      5.9007                 6.1803                 6.1797
 IR Inten    --     21.1618                25.3866                 8.2199

                     49                     50                     51
                      A                      A                      A
 Frequencies --   3105.5633              3115.7457              3139.0308
 Red. masses --      1.1033                 1.1018                 1.1077
 Frc consts  --      6.2691                 6.3018                 6.4308
 IR Inten    --     35.2093                16.1245                15.3633

 - Thermochemistry -
 -------------------
 Temperature   298.150 Kelvin.  Pressure   1.00000 Atm.
 Atom     1 has atomic number  8 and mass  15.99491

 Molecular mass:   126.06808 amu.
 Principal axes and moments of inertia in atomic units:
                           1         2         3
     Eigenvalues --   677.431091178.469971412.54032
           X            0.99986   0.01073  -0.01293
           Y           -0.01128   0.99901  -0.04307
           Z            0.01246   0.04321   0.99899
 This molecule is an asymmetric top.
 Rotational symmetry number  1.
 Warning -- assumption of classical behavior for rotation
           may cause significant error
 Rotational temperatures (Kelvin)      0.12786     0.07350     0.06132
 Rotational constants (GHZ):           2.66410     1.53143     1.27766
 Zero-point vibrational energy     419401.1 (Joules/Mol)
                                  100.23927 (Kcal/Mol)
 Warning -- explicit consideration of   9 degrees of freedom as
           vibrations may cause significant error
 Vibrational temperatures:    115.52   136.97   296.97   321.43   355.87
          (Kelvin)            539.34   575.73   696.93   856.66   930.32
                              997.63  1075.87  1158.34  1189.99  1278.69
                             1304.86  1334.81  1382.55  1386.49  1447.26
                             1490.25  1539.66  1578.16  1645.63  1668.35
                             1678.73  1760.15  1772.10  1785.33  1804.24
                             1831.49  1864.60  1887.27  1922.91  1989.20
                             2017.45  2106.78  2135.95  2143.90  2187.36
                             2625.96  4164.05  4304.76  4391.62  4401.70
                             4424.65  4454.12  4458.58  4468.21  4482.86
                             4516.36

 Zero-point correction=                           0.159741 (Hartree/Particle)
 Thermal correction to Energy=                    0.167756
 Thermal correction to Enthalpy=                  0.168700
 Thermal correction to Gibbs Free Energy=         0.126869
 Sum of electronic and zero-point Energies=           -423.035204
 Sum of electronic and thermal Energies=              -423.027189
 Sum of electronic and thermal Enthalpies=            -423.026245
 Sum of electronic and thermal Free Energies=         -423.068076

                     E (Thermal)             CV                S
                      KCal/Mol        Cal/Mol-Kelvin    Cal/Mol-Kelvin
 Total                  105.269             30.547             88.041
 Electronic               0.000              0.000              0.000
 Translational            0.889              2.981             40.409
 Rotational               0.889              2.981             28.513
 Vibrational            103.491             24.586             19.120
 Vibration     1          0.600              1.963              3.884
 Vibration     2          0.603              1.953              3.550
 Vibration     3          0.641              1.831              2.075
 Vibration     4          0.649              1.805              1.931
 Vibration     5          0.661              1.767              1.749
 Vibration     6          0.746              1.524              1.060
 Vibration     7          0.766              1.470              0.962
 Vibration     8          0.841              1.285              0.698
 Vibration     9          0.953              1.042              0.458

 Optimization completed.
    -- Stationary point found.
 Normal termination of Gaussian 09 at Mon Jan 27 14:01:37 2020.
