 Gaussian 09, Revision D.01,
 Gaussian 09:  ES64L-G09RevD.01 24-Apr-2013

 -----------------------------
 # b3lyp 6-31G(2df,p) opt Freq
 -----------------------------

 -----
 titel
 -----
 Symbolic Z-matrix:
 Charge =  0 Multiplicity = 1

 SCF Done:  E(RB3LYP) =  -423.204451854     A.U. after   14 cycles
 Optimization completed.
    -- Stationary point found.
 Normal termination of Gaussian 09 at Mon Jan 27 15:39:36 2020.

 ----------------------------------------------------------------------
 #N Geom=AllCheck Guess=TCheck SCRF=Check GenChk RB3LYP/6-31G(2df,p) Fr
 eq
 ----------------------------------------------------------------------

 Structure from the checkpoint file:  "/scratch/puck/g09_7579e73d-0b59-453c-9821-7219f622b6ac/Gau-163681.chk"
 -----
 titel
 -----
 Charge =  0 Multiplicity = 1

                         Standard orientation:
 ---------------------------------------------------------------------
 Center     Atomic      Atomic             Coordinates (Angstroms)
 Number     Number       Type             X           Y           Z
 ---------------------------------------------------------------------
      1          8           0        1.722649    1.711434    0.253056
      2          6           0        1.259973    0.394571    0.476801
      3          6           0        1.994865   -0.495139   -0.528703
      4          8           0        2.148951   -1.679797   -0.396985
      5          6           0       -0.214248    0.215957    0.231734
      6          6           0       -1.016200    1.060111   -0.423772
      7          6           0       -2.446313    0.577155   -0.452520
      8          6           0       -2.329109   -0.898997    0.012835
      9          6           0       -0.963135   -0.997429    0.739052
     10          1           0        1.116414    2.311658    0.699700
     11          1           0        1.514681    0.031043    1.485403
     12          1           0        2.341545    0.066328   -1.423709
     13          1           0       -0.699480    1.999197   -0.863396
     14          1           0       -3.071271    1.175442    0.226085
     15          1           0       -2.903167    0.668706   -1.444258
     16          1           0       -3.165213   -1.212695    0.642237
     17          1           0       -2.320862   -1.554424   -0.863230
     18          1           0       -1.069623   -0.945164    1.832309
     19          1           0       -0.430806   -1.930563    0.527723
 ---------------------------------------------------------------------

 SCF Done:  E(RB3LYP) =  -423.204451854     A.U. after    1 cycles

 The electronic state is 1-A.
 Alpha  occ. eigenvalues --  -19.15246 -19.14426 -10.27309 -10.24798 -10.19497
 Alpha  occ. eigenvalues --  -10.18935 -10.18708 -10.18701 -10.18554  -1.05413
 Alpha  occ. eigenvalues --   -1.03481  -0.85045  -0.75716  -0.71228  -0.68889
 Alpha  occ. eigenvalues --   -0.58866  -0.58163  -0.53532  -0.51517  -0.49393
 Alpha  occ. eigenvalues --   -0.47741  -0.45758  -0.43209  -0.40749  -0.39855
 Alpha  occ. eigenvalues --   -0.38918  -0.37539  -0.35237  -0.34628  -0.34493
 Alpha  occ. eigenvalues --   -0.33872  -0.28964  -0.26631  -0.23600
 Alpha virt. eigenvalues --   -0.03080   0.02650   0.07451   0.09491   0.11729
 Alpha virt. eigenvalues --    0.12214   0.14102   0.14709   0.15772   0.17385
 Alpha virt. eigenvalues --    0.17954   0.18416   0.19055   0.22486   0.23456

 Mulliken charges:
               1
     1  O   -0.431102
     2  C   -0.049512
     3  C    0.155057
     4  O   -0.244467
     5  C    0.279527
     6  C   -0.180064
     7  C   -0.247139
     8  C   -0.208862
     9  C   -0.309626
    10  H    0.287486
    11  H    0.092811
    12  H    0.097335
    13  H    0.096276
    14  H    0.106791
    15  H    0.107761
    16  H    0.100603
    17  H    0.112135
    18  H    0.104338
    19  H    0.130650
 Sum of Mulliken charges =   0.00000

 Dipole moment (field-independent basis, Debye):
    X=             -2.2231    Y=              1.8845    Z=              0.7947  Tot=              3.0208
 Quadrupole moment (field-independent basis, Debye-Ang):
   XX=            -56.7361   YY=            -55.4783   ZZ=            -51.2848
   XY=              2.3892   XZ=              0.8005   YZ=              0.3795

  Exact polarizability:  92.036  -5.785  80.311   1.981  -6.390  64.879
 Approx polarizability: 122.998 -16.185 128.452   6.233 -13.538 101.019

                      1                      2                      3
                      A                      A                      A
 Frequencies --     70.2714                86.7793               116.3368
 Red. masses --      3.3826                 5.3151                 2.0551
 Frc consts  --      0.0098                 0.0236                 0.0164
 IR Inten    --      1.3767                 7.6194                 6.2968

                      4                      5                      6
                      A                      A                      A
 Frequencies --    168.4002               212.4778               245.8729
 Red. masses --      1.9560                 4.6925                 2.3938
 Frc consts  --      0.0327                 0.1248                 0.0853
 IR Inten    --      1.6202                 6.0690                24.3697

                      7                      8                      9
                      A                      A                      A
 Frequencies --    304.3397               352.1921               410.9605
 Red. masses --      1.2481                 2.9242                 4.6159
 Frc consts  --      0.0681                 0.2137                 0.4593
 IR Inten    --     84.6024                10.6368                16.4944

                     10                     11                     12
                      A                      A                      A
 Frequencies --    505.6781               537.0845               638.0517
 Red. masses --      3.2133                 3.4406                 2.2436
 Frc consts  --      0.4841                 0.5847                 0.5381
 IR Inten    --      9.0355                17.6302                 1.3729

                     13                     14                     15
                      A                      A                      A
 Frequencies --    700.3648               810.3389               853.4071
 Red. masses --      3.7893                 1.9592                 1.2568
 Frc consts  --      1.0951                 0.7580                 0.5393
 IR Inten    --      2.9861                 1.6792                 2.9085

                     16                     17                     18
                      A                      A                      A
 Frequencies --    882.3848               906.0423               920.4035
 Red. masses --      3.5808                 1.6255                 2.3061
 Frc consts  --      1.6427                 0.7862                 1.1510
 IR Inten    --      0.6783                 1.8603                 0.7306

                     19                     20                     21
                      A                      A                      A
 Frequencies --    961.3398               981.1417              1023.6825
 Red. masses --      1.9615                 2.2620                 2.2467
 Frc consts  --      1.0680                 1.2829                 1.3872
 IR Inten    --      8.5165                32.2102                31.1145

                     22                     23                     24
                      A                      A                      A
 Frequencies --   1042.5233              1072.0067              1084.9147
 Red. masses --      2.0880                 1.8735                 4.0404
 Frc consts  --      1.3371                 1.2685                 2.8020
 IR Inten    --      5.4353                 4.0280                39.6433

                     25                     26                     27
                      A                      A                      A
 Frequencies --   1154.0278              1161.9488              1218.0589
 Red. masses --      1.2529                 2.2441                 1.2043
 Frc consts  --      0.9831                 1.7851                 1.0528
 IR Inten    --      5.0295                19.8515                20.2902

                     28                     29                     30
                      A                      A                      A
 Frequencies --   1228.8836              1238.5825              1272.5986
 Red. masses --      1.2776                 1.3665                 1.3573
 Frc consts  --      1.1368                 1.2351                 1.2951
 IR Inten    --      6.2939                13.6084                 2.7306

                     31                     32                     33
                      A                      A                      A
 Frequencies --   1315.1134              1328.8978              1331.0378
 Red. masses --      1.3128                 1.5878                 1.3702
 Frc consts  --      1.3378                 1.6520                 1.4302
 IR Inten    --      5.6944                 0.6563                19.8442

                     34                     35                     36
                      A                      A                      A
 Frequencies --   1354.7993              1365.7697              1406.3207
 Red. masses --      1.4654                 1.4730                 1.4218
 Frc consts  --      1.5848                 1.6189                 1.6568
 IR Inten    --     37.3904                 8.3020                 0.5477

                     37                     38                     39
                      A                      A                      A
 Frequencies --   1482.7143              1488.8183              1506.0556
 Red. masses --      1.0818                 1.0816                 1.1040
 Frc consts  --      1.4012                 1.4125                 1.4754
 IR Inten    --      0.6342                 1.3200                 1.4090

                     40                     41                     42
                      A                      A                      A
 Frequencies --   1702.0515              1834.2984              2903.7462
 Red. masses --      6.9794                10.6884                 1.0852
 Frc consts  --     11.9128                21.1886                 5.3909
 IR Inten    --      2.6531               165.5230                78.2411

                     43                     44                     45
                      A                      A                      A
 Frequencies --   2976.1753              3004.8865              3005.9254
 Red. masses --      1.0819                 1.0705                 1.0703
 Frc consts  --      5.6463                 5.6951                 5.6979
 IR Inten    --     33.3243                34.2570                44.6006

                     46                     47                     48
                      A                      A                      A
 Frequencies --   3050.3652              3062.3332              3074.7213
 Red. masses --      1.0802                 1.0776                 1.0855
 Frc consts  --      5.9217                 5.9543                 6.0461
 IR Inten    --     10.6452                36.5341                18.1725

                     49                     50                     51
                      A                      A                      A
 Frequencies --   3106.7284              3197.7128              3816.0089
 Red. masses --      1.1041                 1.0929                 1.0660
 Frc consts  --      6.2784                 6.5843                 9.1457
 IR Inten    --     34.1542                 8.2701                21.2655

 - Thermochemistry -
 -------------------
 Temperature   298.150 Kelvin.  Pressure   1.00000 Atm.
 Atom     1 has atomic number  8 and mass  15.99491

 Molecular mass:   126.06808 amu.
 Principal axes and moments of inertia in atomic units:
                           1         2         3
     Eigenvalues --   678.939531524.670351961.83654
           X            0.99976   0.02142   0.00387
           Y           -0.02132   0.99947  -0.02442
           Z           -0.00439   0.02434   0.99969
 This molecule is an asymmetric top.
 Rotational symmetry number  1.
 Warning -- assumption of classical behavior for rotation
           may cause significant error
 Rotational temperatures (Kelvin)      0.12757     0.05681     0.04415
 Rotational constants (GHZ):           2.65818     1.18369     0.91992
 Zero-point vibrational energy     415556.2 (Joules/Mol)
                                   99.32032 (Kcal/Mol)
 Warning -- explicit consideration of  11 degrees of freedom as
           vibrations may cause significant error
 Vibrational temperatures:    101.10   124.86   167.38   242.29   305.71
          (Kelvin)            353.76   437.88   506.73   591.28   727.56
                              772.74   918.01  1007.67  1165.90  1227.86
                             1269.55  1303.59  1324.25  1383.15  1411.64
                             1472.85  1499.96  1542.38  1560.95  1660.39
                             1671.78  1752.51  1768.09  1782.04  1830.98
                             1892.15  1911.99  1915.06  1949.25  1965.04
                             2023.38  2133.29  2142.07  2166.88  2448.87
                             2639.14  4177.84  4282.05  4323.36  4324.85
                             4388.79  4406.01  4423.83  4469.88  4600.79
                             5490.38

 Zero-point correction=                           0.158277 (Hartree/Particle)
 Thermal correction to Energy=                    0.167428
 Thermal correction to Enthalpy=                  0.168372
 Thermal correction to Gibbs Free Energy=         0.123771
 Sum of electronic and zero-point Energies=           -423.046175
 Sum of electronic and thermal Energies=              -423.037024
 Sum of electronic and thermal Enthalpies=            -423.036080
 Sum of electronic and thermal Free Energies=         -423.080681

                     E (Thermal)             CV                S
                      KCal/Mol        Cal/Mol-Kelvin    Cal/Mol-Kelvin
 Total                  105.063             33.195             93.871
 Electronic               0.000              0.000              0.000
 Translational            0.889              2.981             40.409
 Rotational               0.889              2.981             29.098
 Vibrational            103.285             27.234             24.365
 Vibration     1          0.598              1.968              4.146
 Vibration     2          0.601              1.958              3.731
 Vibration     3          0.608              1.936              3.160
 Vibration     4          0.625              1.881              2.453
 Vibration     5          0.644              1.822              2.022
 Vibration     6          0.660              1.770              1.760
 Vibration     7          0.695              1.665              1.393
 Vibration     8          0.729              1.571              1.156
 Vibration     9          0.775              1.446              0.923
 Vibration    10          0.861              1.237              0.644
 Vibration    11          0.892              1.168              0.572

 Optimization completed.
    -- Stationary point found.
 Normal termination of Gaussian 09 at Mon Jan 27 16:19:45 2020.
