 Gaussian 09, Revision D.01,
 Gaussian 09:  ES64L-G09RevD.01 24-Apr-2013

 -----------------------------
 # b3lyp 6-31G(2df,p) opt Freq
 -----------------------------

 -----
 titel
 -----
 Symbolic Z-matrix:
 Charge =  0 Multiplicity = 1

 SCF Done:  E(RB3LYP) =  -423.157482748     A.U. after   14 cycles
 Optimization completed.
    -- Stationary point found.
 Normal termination of Gaussian 09 at Mon Jan 27 22:03:51 2020.

 ----------------------------------------------------------------------
 #N Geom=AllCheck Guess=TCheck SCRF=Check GenChk RB3LYP/6-31G(2df,p) Fr
 eq
 ----------------------------------------------------------------------

 Structure from the checkpoint file:  "/scratch/puck/g09_29c544ec-526e-4c90-82c2-018d33228985/Gau-189701.chk"
 -----
 titel
 -----
 Charge =  0 Multiplicity = 1

                         Standard orientation:
 ---------------------------------------------------------------------
 Center     Atomic      Atomic             Coordinates (Angstroms)
 Number     Number       Type             X           Y           Z
 ---------------------------------------------------------------------
      1          6           0       -0.186896    2.548463    0.106386
      2          6           0        0.168660    1.153879    0.570014
      3          6           0        0.925296    0.208957   -0.372979
      4          6           0        2.004405   -0.627569    0.192207
      5          8           0        3.003955   -0.959082   -0.396127
      6          6           0       -0.512542   -0.050296    0.038265
      7          6           0       -1.109475   -1.242828    0.785641
      8          8           0       -2.261105   -1.230201   -0.084215
      9          6           0       -1.730655   -0.146232   -0.876624
     10          1           0        0.663956    3.227876    0.216471
     11          1           0       -0.484921    2.554948   -0.946556
     12          1           0       -1.019413    2.953881    0.691486
     13          1           0        0.478241    1.084231    1.612192
     14          1           0        1.096536    0.546437   -1.391188
     15          1           0        1.831086   -0.939656    1.250611
     16          1           0       -0.554477   -2.186874    0.713258
     17          1           0       -1.381324   -1.063633    1.833876
     18          1           0       -1.526430   -0.453803   -1.910228
     19          1           0       -2.398825    0.724614   -0.884646
 ---------------------------------------------------------------------

 SCF Done:  E(RB3LYP) =  -423.157482748     A.U. after    1 cycles

 The electronic state is 1-A.
 Alpha  occ. eigenvalues --  -19.14250 -19.13474 -10.27205 -10.24321 -10.24296
 Alpha  occ. eigenvalues --  -10.22202 -10.21991 -10.20904 -10.19851  -1.04850
 Alpha  occ. eigenvalues --   -1.04257  -0.88999  -0.74034  -0.70743  -0.70141
 Alpha  occ. eigenvalues --   -0.63994  -0.58470  -0.54522  -0.51622  -0.49604
 Alpha  occ. eigenvalues --   -0.47873  -0.44505  -0.43690  -0.42446  -0.42209
 Alpha  occ. eigenvalues --   -0.41082  -0.39706  -0.38477  -0.35945  -0.33943
 Alpha  occ. eigenvalues --   -0.31316  -0.28559  -0.25933  -0.24821
 Alpha virt. eigenvalues --   -0.02396   0.06135   0.08428   0.09000   0.09975
 Alpha virt. eigenvalues --    0.10679   0.13349   0.14163   0.14621   0.15784
 Alpha virt. eigenvalues --    0.16166   0.17353   0.18334   0.20403   0.20847

 Mulliken charges:
               1
     1  C   -0.416249
     2  C   -0.095391
     3  C   -0.186665
     4  C    0.163624
     5  O   -0.267874
     6  C    0.262692
     7  C   -0.143872
     8  O   -0.271744
     9  C   -0.137157
    10  H    0.132874
    11  H    0.124545
    12  H    0.129714
    13  H    0.097620
    14  H    0.105615
    15  H    0.063797
    16  H    0.112344
    17  H    0.107338
    18  H    0.110481
    19  H    0.108306
 Sum of Mulliken charges =   0.00000

 Dipole moment (field-independent basis, Debye):
    X=             -1.4186    Y=              2.3869    Z=              0.9774  Tot=              2.9436
 Quadrupole moment (field-independent basis, Debye-Ang):
   XX=            -68.8600   YY=            -53.2257   ZZ=            -50.2312
   XY=              0.1049   XZ=              2.9813   YZ=             -1.7473

  Exact polarizability:  85.714  -6.282  78.151  -1.205  -2.064  70.470
 Approx polarizability: 125.946 -10.578 106.753  -7.494   0.119 108.609

                      1                      2                      3
                      A                      A                      A
 Frequencies --     74.2044               107.0071               146.0892
 Red. masses --      7.1300                 3.5367                 2.9095
 Frc consts  --      0.0231                 0.0239                 0.0366
 IR Inten    --      6.6680                 2.0049                 3.2153

                      4                      5                      6
                      A                      A                      A
 Frequencies --    181.4225               204.5898               224.2345
 Red. masses --      2.5380                 1.1280                 2.5759
 Frc consts  --      0.0492                 0.0278                 0.0763
 IR Inten    --      2.4630                 0.2697                 1.9378

                      7                      8                      9
                      A                      A                      A
 Frequencies --    251.1332               346.2905               422.8333
 Red. masses --      2.0237                 2.5616                 3.4814
 Frc consts  --      0.0752                 0.1810                 0.3667
 IR Inten    --      2.3014                 0.3790                 0.7499

                     10                     11                     12
                      A                      A                      A
 Frequencies --    468.6824               510.7610               567.2221
 Red. masses --      4.1164                 2.8244                 4.1810
 Frc consts  --      0.5328                 0.4341                 0.7926
 IR Inten    --      7.0842                 4.2285                 8.0059

                     13                     14                     15
                      A                      A                      A
 Frequencies --    777.4316               856.3940               911.7552
 Red. masses --      2.7732                 3.9733                 1.9953
 Frc consts  --      0.9876                 1.7169                 0.9772
 IR Inten    --      6.0999                 9.7605                 9.5079

                     16                     17                     18
                      A                      A                      A
 Frequencies --    944.3175               960.5537               979.8931
 Red. masses --      1.3847                 1.6245                 2.4035
 Frc consts  --      0.7275                 0.8831                 1.3597
 IR Inten    --      3.6286                20.7292                 8.2417

                     19                     20                     21
                      A                      A                      A
 Frequencies --   1034.3102              1036.5721              1048.8604
 Red. masses --      7.4105                 1.8007                 2.1245
 Frc consts  --      4.6709                 1.1400                 1.3770
 IR Inten    --     83.9513                 6.3999                19.9959

                     22                     23                     24
                      A                      A                      A
 Frequencies --   1068.0614              1084.2393              1127.4504
 Red. masses --      1.6092                 3.0783                 1.7765
 Frc consts  --      1.0815                 2.1321                 1.3305
 IR Inten    --     43.9312                 2.2137                 1.2476

                     25                     26                     27
                      A                      A                      A
 Frequencies --   1129.4352              1155.7582              1160.8987
 Red. masses --      1.7913                 1.0727                 1.2430
 Frc consts  --      1.3463                 0.8443                 0.9869
 IR Inten    --     15.8485                 1.0360                16.0695

                     28                     29                     30
                      A                      A                      A
 Frequencies --   1173.6821              1206.1567              1275.4673
 Red. masses --      2.1689                 2.1898                 1.6279
 Frc consts  --      1.7603                 1.8770                 1.5603
 IR Inten    --     25.5876                 0.1486                 3.5722

                     31                     32                     33
                      A                      A                      A
 Frequencies --   1308.2222              1322.5019              1378.8596
 Red. masses --      1.2881                 1.5024                 1.4438
 Frc consts  --      1.2989                 1.5482                 1.6173
 IR Inten    --      2.5618                 5.5176                 5.9983

                     34                     35                     36
                      A                      A                      A
 Frequencies --   1418.4933              1432.9411              1479.3175
 Red. masses --      1.2324                 1.2857                 2.0745
 Frc consts  --      1.4610                 1.5555                 2.6748
 IR Inten    --      2.4763                 1.5387                 6.9660

                     37                     38                     39
                      A                      A                      A
 Frequencies --   1492.1648              1506.8674              1510.4139
 Red. masses --      1.0659                 1.3350                 1.1038
 Frc consts  --      1.3983                 1.7861                 1.4836
 IR Inten    --      2.5670                 4.4637                 3.5116

                     40                     41                     42
                      A                      A                      A
 Frequencies --   1534.7812              1818.0961              2835.9034
 Red. masses --      1.1088                10.1391                 1.0804
 Frc consts  --      1.5389                19.7462                 5.1194
 IR Inten    --      0.4699               279.6024                87.0590

                     43                     44                     45
                      A                      A                      A
 Frequencies --   3001.8731              3012.6332              3035.1194
 Red. masses --      1.0521                 1.0572                 1.0359
 Frc consts  --      5.5858                 5.6532                 5.6222
 IR Inten    --    109.8380                 5.6515                21.0736

                     46                     47                     48
                      A                      A                      A
 Frequencies --   3048.5214              3049.8987              3099.4190
 Red. masses --      1.1089                 1.1126                 1.0995
 Frc consts  --      6.0717                 6.0978                 6.2230
 IR Inten    --      6.8867                69.4864                10.9966

                     49                     50                     51
                      A                      A                      A
 Frequencies --   3104.8532              3121.4390              3160.9897
 Red. masses --      1.0977                 1.0918                 1.0885
 Frc consts  --      6.2346                 6.2678                 6.4083
 IR Inten    --     10.4605                24.4135                 5.2290

 - Thermochemistry -
 -------------------
 Temperature   298.150 Kelvin.  Pressure   1.00000 Atm.
 Atom     1 has atomic number  6 and mass  12.00000

 Molecular mass:   126.06808 amu.
 Principal axes and moments of inertia in atomic units:
                           1         2         3
     Eigenvalues --   831.460131419.018821955.85730
           X            0.99991  -0.00705   0.01113
           Y            0.00728   0.99976  -0.02046
           Z           -0.01098   0.02054   0.99973
 This molecule is an asymmetric top.
 Rotational symmetry number  1.
 Warning -- assumption of classical behavior for rotation
           may cause significant error
 Rotational temperatures (Kelvin)      0.10417     0.06104     0.04428
 Rotational constants (GHZ):           2.17057     1.27182     0.92274
 Zero-point vibrational energy     413363.7 (Joules/Mol)
                                   98.79630 (Kcal/Mol)
 Warning -- explicit consideration of  12 degrees of freedom as
           vibrations may cause significant error
 Vibrational temperatures:    106.76   153.96   210.19   261.03   294.36
          (Kelvin)            322.62   361.32   498.23   608.36   674.33
                              734.87   816.11  1118.55  1232.16  1311.81
                             1358.66  1382.02  1409.85  1488.14  1491.39
                             1509.07  1536.70  1559.98  1622.15  1625.00
                             1662.88  1670.27  1688.66  1735.39  1835.11
                             1882.24  1902.78  1983.87  2040.89  2061.68
                             2128.41  2146.89  2168.04  2173.15  2208.21
                             2615.83  4080.23  4319.02  4334.50  4366.85
                             4386.14  4388.12  4459.37  4467.19  4491.05
                             4547.95

 Zero-point correction=                           0.157442 (Hartree/Particle)
 Thermal correction to Energy=                    0.166558
 Thermal correction to Enthalpy=                  0.167502
 Thermal correction to Gibbs Free Energy=         0.123107
 Sum of electronic and zero-point Energies=           -423.000041
 Sum of electronic and thermal Energies=              -422.990925
 Sum of electronic and thermal Enthalpies=            -422.989980
 Sum of electronic and thermal Free Energies=         -423.034375

                     E (Thermal)             CV                S
                      KCal/Mol        Cal/Mol-Kelvin    Cal/Mol-Kelvin
 Total                  104.517             32.850             93.437
 Electronic               0.000              0.000              0.000
 Translational            0.889              2.981             40.409
 Rotational               0.889              2.981             29.224
 Vibrational            102.739             26.888             23.804
 Vibration     1          0.599              1.966              4.039
 Vibration     2          0.606              1.944              3.323
 Vibration     3          0.617              1.907              2.723
 Vibration     4          0.630              1.865              2.314
 Vibration     5          0.640              1.833              2.091
 Vibration     6          0.649              1.804              1.925
 Vibration     7          0.663              1.761              1.723
 Vibration     8          0.724              1.583              1.183
 Vibration     9          0.785              1.421              0.882
 Vibration    10          0.826              1.320              0.741
 Vibration    11          0.866              1.226              0.632
 Vibration    12          0.923              1.102              0.510

 Normal termination of Gaussian 09 at Mon Jan 27 22:45:10 2020.
