 Gaussian 09, Revision D.01,
 Gaussian 09:  ES64L-G09RevD.01 24-Apr-2013

 -----------------------------
 # b3lyp 6-31G(2df,p) opt Freq
 -----------------------------

 -----
 titel
 -----
 Symbolic Z-matrix:
 Charge =  0 Multiplicity = 1

 SCF Done:  E(RB3LYP) =  -423.176213147     A.U. after   14 cycles
 Optimization completed.
    -- Stationary point found.
 Normal termination of Gaussian 09 at Tue Jan 28 09:21:24 2020.

 ----------------------------------------------------------------------
 #N Geom=AllCheck Guess=TCheck SCRF=Check GenChk RB3LYP/6-31G(2df,p) Fr
 eq
 ----------------------------------------------------------------------

 Structure from the checkpoint file:  "/scratch/puck/g09_9412a9aa-9f86-460c-9316-7b6f119d3ce5/Gau-84211.chk"
 -----
 titel
 -----
 Charge =  0 Multiplicity = 1

                         Standard orientation:
 ---------------------------------------------------------------------
 Center     Atomic      Atomic             Coordinates (Angstroms)
 Number     Number       Type             X           Y           Z
 ---------------------------------------------------------------------
      1          6           0       -2.923339   -0.491974   -0.128768
      2          6           0       -1.798538   -0.003484    0.795428
      3          6           0       -0.539853    0.325815    0.039825
      4          6           0       -0.290533    1.658943   -0.646390
      5          6           0        0.704514    1.245061    0.372380
      6          6           0        1.688047    0.263869   -0.292517
      7          8           0        2.673792   -0.292364    0.534447
      8          6           0        0.459402   -0.680721   -0.400413
      9          8           0        0.449589   -1.887411   -0.385546
     10          1           0       -3.186397    0.270697   -0.868912
     11          1           0       -2.613653   -1.393023   -0.665982
     12          1           0       -3.823005   -0.731601    0.445684
     13          1           0       -2.127212    0.882820    1.351760
     14          1           0       -1.573365   -0.779136    1.536643
     15          1           0       -0.006541    1.701295   -1.695396
     16          1           0       -0.997104    2.428374   -0.350752
     17          1           0        0.884464    1.753320    1.309908
     18          1           0        2.127601    0.648787   -1.222480
     19          1           0        2.529973   -1.248380    0.531041
 ---------------------------------------------------------------------

 SCF Done:  E(RB3LYP) =  -423.176213147     A.U. after    1 cycles

 The electronic state is 1-A.
 Alpha  occ. eigenvalues --  -19.14309 -19.13583 -10.26922 -10.24311 -10.21797
 Alpha  occ. eigenvalues --  -10.21651 -10.21311 -10.19634 -10.17973  -1.05245
 Alpha  occ. eigenvalues --   -1.02136  -0.91265  -0.77657  -0.71394  -0.66258
 Alpha  occ. eigenvalues --   -0.61806  -0.59631  -0.53023  -0.50302  -0.49330
 Alpha  occ. eigenvalues --   -0.47042  -0.45293  -0.44316  -0.41688  -0.39796
 Alpha  occ. eigenvalues --   -0.39450  -0.37942  -0.36904  -0.35300  -0.34765
 Alpha  occ. eigenvalues --   -0.31775  -0.28746  -0.27050  -0.24378
 Alpha virt. eigenvalues --   -0.01245   0.07991   0.08579   0.09785   0.11185
 Alpha virt. eigenvalues --    0.11804   0.14181   0.14582   0.15497   0.17063
 Alpha virt. eigenvalues --    0.17185   0.17737   0.18713   0.21049   0.21553

 Mulliken charges:
               1
     1  C   -0.378832
     2  C   -0.295828
     3  C    0.242753
     4  C   -0.336333
     5  C   -0.147351
     6  C    0.058425
     7  O   -0.449512
     8  C    0.300491
     9  O   -0.345455
    10  H    0.116072
    11  H    0.141450
    12  H    0.115509
    13  H    0.101494
    14  H    0.116808
    15  H    0.121644
    16  H    0.129280
    17  H    0.122673
    18  H    0.088430
    19  H    0.298281
 Sum of Mulliken charges =   0.00000

 Dipole moment (field-independent basis, Debye):
    X=             -1.6288    Y=              2.2762    Z=              0.0134  Tot=              2.7990
 Quadrupole moment (field-independent basis, Debye-Ang):
   XX=            -56.0425   YY=            -55.0359   ZZ=            -51.9271
   XY=             -1.6708   XZ=             -2.0173   YZ=             -1.5433

  Exact polarizability:  86.708  -0.752  80.038  -0.499  -1.249  62.868
 Approx polarizability: 113.518  -0.245 131.933   2.148   1.104  97.303

                      1                      2                      3
                      A                      A                      A
 Frequencies --     53.3003                77.1518               170.3673
 Red. masses --      2.7353                 5.8096                 2.8573
 Frc consts  --      0.0046                 0.0204                 0.0489
 IR Inten    --      1.1456                 3.3802                 4.2385

                      4                      5                      6
                      A                      A                      A
 Frequencies --    186.7421               244.9784               265.9941
 Red. masses --      1.8156                 2.7931                 2.0058
 Frc consts  --      0.0373                 0.0988                 0.0836
 IR Inten    --      2.6867                10.0510                 6.3571

                      7                      8                      9
                      A                      A                      A
 Frequencies --    288.4842               333.7188               384.0034
 Red. masses --      1.4258                 1.9509                 2.6932
 Frc consts  --      0.0699                 0.1280                 0.2340
 IR Inten    --     55.8067                10.8922                 6.5828

                     10                     11                     12
                      A                      A                      A
 Frequencies --    472.6153               529.5190               571.6963
 Red. masses --      3.1424                 3.9834                 3.8094
 Frc consts  --      0.4135                 0.6581                 0.7336
 IR Inten    --      4.3276                 0.7047                 1.1606

                     13                     14                     15
                      A                      A                      A
 Frequencies --    703.7234               747.4596               782.2323
 Red. masses --      4.4891                 3.5217                 1.3448
 Frc consts  --      1.3098                 1.1592                 0.4848
 IR Inten    --      3.3662                26.5044                 0.8476

                     16                     17                     18
                      A                      A                      A
 Frequencies --    827.4576               860.5000               917.8907
 Red. masses --      2.1493                 2.4246                 2.1706
 Frc consts  --      0.8670                 1.0578                 1.0775
 IR Inten    --     12.2270                 6.6813                27.3789

                     19                     20                     21
                      A                      A                      A
 Frequencies --    955.9448               979.4329               990.1440
 Red. masses --      2.8443                 1.9425                 1.3697
 Frc consts  --      1.5314                 1.0979                 0.7912
 IR Inten    --     24.6645                 7.4471                22.4132

                     22                     23                     24
                      A                      A                      A
 Frequencies --   1021.2153              1036.1977              1084.6084
 Red. masses --      2.3440                 1.5143                 1.6179
 Frc consts  --      1.4403                 0.9580                 1.1214
 IR Inten    --     21.8213                22.1213                 3.6969

                     25                     26                     27
                      A                      A                      A
 Frequencies --   1108.7869              1128.3661              1154.7350
 Red. masses --      1.5751                 2.0370                 1.8842
 Frc consts  --      1.1409                 1.5281                 1.4803
 IR Inten    --      2.8581                 6.2893                74.0893

                     28                     29                     30
                      A                      A                      A
 Frequencies --   1175.0742              1242.7588              1268.4381
 Red. masses --      1.6669                 1.9322                 1.9581
 Frc consts  --      1.3561                 1.7582                 1.8562
 IR Inten    --     12.6073                 3.2436                10.4521

                     31                     32                     33
                      A                      A                      A
 Frequencies --   1329.1023              1342.4880              1368.7349
 Red. masses --      1.6331                 1.4652                 1.5357
 Frc consts  --      1.6997                 1.5559                 1.6951
 IR Inten    --      2.9756                 2.4666                 0.9626

                     34                     35                     36
                      A                      A                      A
 Frequencies --   1379.4040              1392.5465              1410.4824
 Red. masses --      1.4193                 2.0356                 1.2839
 Frc consts  --      1.5912                 2.3258                 1.5049
 IR Inten    --     68.6073                10.9866                 3.1524

                     37                     38                     39
                      A                      A                      A
 Frequencies --   1476.8869              1497.1450              1497.7196
 Red. masses --      1.0847                 1.2158                 1.0460
 Frc consts  --      1.3939                 1.6056                 1.3824
 IR Inten    --      2.0071                 0.6547                 7.0964

                     40                     41                     42
                      A                      A                      A
 Frequencies --   1508.4283              1832.4314              3008.9817
 Red. masses --      1.0718                12.4967                 1.0838
 Frc consts  --      1.4369                24.7231                 5.7813
 IR Inten    --      3.2624               279.7718                49.6724

                     43                     44                     45
                      A                      A                      A
 Frequencies --   3027.7160              3039.0575              3066.1856
 Red. masses --      1.0596                 1.0350                 1.1019
 Frc consts  --      5.7230                 5.6323                 6.1034
 IR Inten    --     19.7659                24.9953                 8.7537

                     46                     47                     48
                      A                      A                      A
 Frequencies --   3108.2987              3109.4190              3118.9643
 Red. masses --      1.0619                 1.0966                 1.1024
 Frc consts  --      6.0446                 6.2468                 6.3185
 IR Inten    --      5.7298                43.8777                22.3816

                     49                     50                     51
                      A                      A                      A
 Frequencies --   3196.2373              3219.4834              3753.3572
 Red. masses --      1.1130                 1.0945                 1.0659
 Frc consts  --      6.6994                 6.6841                 8.8476
 IR Inten    --      4.9900                 1.6552                34.3267

 - Thermochemistry -
 -------------------
 Temperature   298.150 Kelvin.  Pressure   1.00000 Atm.
 Atom     1 has atomic number  6 and mass  12.00000

 Molecular mass:   126.06808 amu.
 Principal axes and moments of inertia in atomic units:
                           1         2         3
     Eigenvalues --   624.548801406.139761770.16732
           X            0.99994   0.00887  -0.00710
           Y           -0.00904   0.99965  -0.02467
           Z            0.00687   0.02473   0.99967
 This molecule is an asymmetric top.
 Rotational symmetry number  1.
 Warning -- assumption of classical behavior for rotation
           may cause significant error
 Rotational temperatures (Kelvin)      0.13868     0.06160     0.04893
 Rotational constants (GHZ):           2.88967     1.28347     1.01953
 Zero-point vibrational energy     414186.7 (Joules/Mol)
                                   98.99299 (Kcal/Mol)
 Warning -- explicit consideration of  12 degrees of freedom as
           vibrations may cause significant error
 Vibrational temperatures:     76.69   111.00   245.12   268.68   352.47
          (Kelvin)            382.71   415.06   480.15   552.49   679.99
                              761.86   822.54  1012.50  1075.43  1125.46
                             1190.53  1238.07  1320.64  1375.39  1409.18
                             1424.59  1469.30  1490.86  1560.51  1595.30
                             1623.47  1661.40  1690.67  1788.05  1825.00
                             1912.28  1931.54  1969.30  1984.65  2003.56
                             2029.37  2124.91  2154.05  2154.88  2170.29
                             2636.46  4329.25  4356.20  4372.52  4411.55
                             4472.14  4473.75  4487.49  4598.67  4632.11
                             5400.24

 Zero-point correction=                           0.157755 (Hartree/Particle)
 Thermal correction to Energy=                    0.166980
 Thermal correction to Enthalpy=                  0.167924
 Thermal correction to Gibbs Free Energy=         0.123359
 Sum of electronic and zero-point Energies=           -423.018458
 Sum of electronic and thermal Energies=              -423.009233
 Sum of electronic and thermal Enthalpies=            -423.008289
 Sum of electronic and thermal Free Energies=         -423.052854

                     E (Thermal)             CV                S
                      KCal/Mol        Cal/Mol-Kelvin    Cal/Mol-Kelvin
 Total                  104.781             33.991             93.794
 Electronic               0.000              0.000              0.000
 Translational            0.889              2.981             40.409
 Rotational               0.889              2.981             28.832
 Vibrational            103.004             28.030             24.553
 Vibration     1          0.596              1.976              4.691
 Vibration     2          0.599              1.964              3.962
 Vibration     3          0.625              1.879              2.431
 Vibration     4          0.632              1.858              2.260
 Vibration     5          0.660              1.771              1.766
 Vibration     6          0.672              1.735              1.622
 Vibration     7          0.685              1.695              1.483
 Vibration     8          0.715              1.608              1.242
 Vibration     9          0.753              1.504              1.023
 Vibration    10          0.829              1.311              0.730
 Vibration    11          0.884              1.185              0.588
 Vibration    12          0.928              1.092              0.501

 Optimization completed.
    -- Stationary point found.
 Normal termination of Gaussian 09 at Tue Jan 28 10:08:57 2020.
