 Gaussian 09, Revision D.01,
 Gaussian 09:  ES64L-G09RevD.01 24-Apr-2013

 -----------------------------
 # b3lyp 6-31G(2df,p) opt Freq
 -----------------------------

 -----
 titel
 -----
 Symbolic Z-matrix:
 Charge =  0 Multiplicity = 1

 SCF Done:  E(RB3LYP) =  -423.135211621     A.U. after   13 cycles
 Optimization completed.
    -- Stationary point found.
 Normal termination of Gaussian 09 at Tue Jan 28 08:14:22 2020.

 ----------------------------------------------------------------------
 #N Geom=AllCheck Guess=TCheck SCRF=Check GenChk RB3LYP/6-31G(2df,p) Fr
 eq
 ----------------------------------------------------------------------

 Structure from the checkpoint file:  "/scratch/puck/g09_c7dc5cae-9ba2-488e-861d-9b0d7753026b/Gau-106355.chk"
 -----
 titel
 -----
 Charge =  0 Multiplicity = 1

                         Standard orientation:
 ---------------------------------------------------------------------
 Center     Atomic      Atomic             Coordinates (Angstroms)
 Number     Number       Type             X           Y           Z
 ---------------------------------------------------------------------
      1          8           0       -1.557358    1.470910   -0.288311
      2          6           0       -1.208546    0.416704    0.604091
      3          6           0       -1.551964   -0.983475   -0.000564
      4          6           0       -0.359632   -1.350146   -0.936401
      5          6           0        0.803548   -0.694034   -0.235516
      6          6           0        1.031620   -0.814459    1.236628
      7          6           0        0.305725    0.396421    0.679882
      8          6           0        1.301119    1.279206   -0.080998
      9          8           0        1.783434    0.141822   -0.867195
     10          1           0       -2.515234    1.477393   -0.376673
     11          1           0       -1.707179    0.561668    1.574131
     12          1           0       -1.651103   -1.721557    0.803039
     13          1           0       -2.512033   -0.962972   -0.526330
     14          1           0       -0.270505   -2.429485   -1.092416
     15          1           0       -0.481373   -0.872085   -1.912944
     16          1           0        0.435111   -1.536618    1.782851
     17          1           0        2.039621   -0.680854    1.615492
     18          1           0        0.813823    2.017057   -0.721449
     19          1           0        2.109043    1.744294    0.495619
 ---------------------------------------------------------------------

 SCF Done:  E(RB3LYP) =  -423.135211621     A.U. after    1 cycles

 The electronic state is 1-A.
 Alpha  occ. eigenvalues --  -19.14183 -19.12961 -10.24186 -10.22883 -10.22793
 Alpha  occ. eigenvalues --  -10.19317 -10.18999 -10.18878 -10.18430  -1.04292
 Alpha  occ. eigenvalues --   -1.02225  -0.85933  -0.76513  -0.71317  -0.66285
 Alpha  occ. eigenvalues --   -0.63239  -0.57403  -0.51339  -0.50251  -0.49118
 Alpha  occ. eigenvalues --   -0.46507  -0.46423  -0.43545  -0.41497  -0.39380
 Alpha  occ. eigenvalues --   -0.38434  -0.36918  -0.35682  -0.35224  -0.31760
 Alpha  occ. eigenvalues --   -0.31055  -0.27378  -0.25170  -0.22128
 Alpha virt. eigenvalues --    0.06682   0.07349   0.09518   0.10184   0.13226
 Alpha virt. eigenvalues --    0.13431   0.14495   0.16450   0.16532   0.17115
 Alpha virt. eigenvalues --    0.17855   0.18627   0.19176   0.21740   0.22699

 Mulliken charges:
               1
     1  O   -0.436813
     2  C    0.033691
     3  C   -0.258020
     4  C   -0.290207
     5  C    0.402681
     6  C   -0.394214
     7  C    0.176922
     8  C   -0.145484
     9  O   -0.333441
    10  H    0.284991
    11  H    0.064926
    12  H    0.106716
    13  H    0.094295
    14  H    0.101608
    15  H    0.124059
    16  H    0.118079
    17  H    0.120432
    18  H    0.130596
    19  H    0.099185
 Sum of Mulliken charges =   0.00000

 Dipole moment (field-independent basis, Debye):
    X=             -2.5916    Y=             -0.6118    Z=              1.2438  Tot=              2.9390
 Quadrupole moment (field-independent basis, Debye-Ang):
   XX=            -50.2690   YY=            -52.5946   ZZ=            -53.9885
   XY=              0.5196   XZ=              3.1359   YZ=             -0.3295

  Exact polarizability:  78.162   2.875  75.043   3.060  -1.811  67.462
 Approx polarizability: 109.032   0.736 111.677   0.249  -2.031 106.025

                      1                      2                      3
                      A                      A                      A
 Frequencies --    133.3349               209.8660               268.9215
 Red. masses --      3.9518                 2.9844                 1.7046
 Frc consts  --      0.0414                 0.0774                 0.0726
 IR Inten    --      0.2395                 0.2570                38.0149

                      4                      5                      6
                      A                      A                      A
 Frequencies --    281.0842               362.9541               403.0622
 Red. masses --      1.3458                 2.9963                 2.3899
 Frc consts  --      0.0626                 0.2326                 0.2288
 IR Inten    --     70.0761                 8.7478                 0.5728

                      7                      8                      9
                      A                      A                      A
 Frequencies --    435.3968               453.4323               540.5166
 Red. masses --      2.2891                 4.1673                 3.3986
 Frc consts  --      0.2557                 0.5048                 0.5850
 IR Inten    --      1.9582                11.3621                11.8264

                     10                     11                     12
                      A                      A                      A
 Frequencies --    617.2803               694.4768               740.3620
 Red. masses --      2.9826                 4.0866                 2.1907
 Frc consts  --      0.6696                 1.1613                 0.7075
 IR Inten    --      4.2605                 6.6074                 4.6695

                     13                     14                     15
                      A                      A                      A
 Frequencies --    796.5736               831.6781               841.8787
 Red. masses --      2.8604                 4.0417                 3.6771
 Frc consts  --      1.0694                 1.6471                 1.5355
 IR Inten    --      6.3948                 2.3642                10.1665

                     16                     17                     18
                      A                      A                      A
 Frequencies --    906.4620               914.7581               949.8680
 Red. masses --      1.9554                 1.7940                 2.1784
 Frc consts  --      0.9466                 0.8845                 1.1580
 IR Inten    --      3.2827                23.7105                14.9449

                     19                     20                     21
                      A                      A                      A
 Frequencies --    953.6762               973.8729               997.2140
 Red. masses --      2.3769                 2.1523                 2.6156
 Frc consts  --      1.2737                 1.2027                 1.5325
 IR Inten    --     10.6544                24.2188                 2.5017

                     22                     23                     24
                      A                      A                      A
 Frequencies --   1007.1780              1055.8786              1079.0442
 Red. masses --      2.1193                 1.3954                 1.8491
 Frc consts  --      1.2666                 0.9166                 1.2685
 IR Inten    --     23.4586                 9.7884                24.0434

                     25                     26                     27
                      A                      A                      A
 Frequencies --   1107.4714              1152.1785              1189.6322
 Red. masses --      3.0182                 1.1568                 1.3542
 Frc consts  --      2.1811                 0.9048                 1.1292
 IR Inten    --     22.2564                12.6380                 1.8166

                     28                     29                     30
                      A                      A                      A
 Frequencies --   1193.9659              1219.1987              1236.9305
 Red. masses --      1.5488                 1.7363                 1.6764
 Frc consts  --      1.3009                 1.5206                 1.5112
 IR Inten    --      5.4000                44.2819                45.3258

                     31                     32                     33
                      A                      A                      A
 Frequencies --   1280.7032              1298.9614              1317.6367
 Red. masses --      1.7207                 1.2372                 1.5654
 Frc consts  --      1.6629                 1.2299                 1.6013
 IR Inten    --      8.7466                 6.9478                 5.9847

                     34                     35                     36
                      A                      A                      A
 Frequencies --   1337.8587              1363.4983              1382.1275
 Red. masses --      1.8325                 1.6428                 2.0748
 Frc consts  --      1.9325                 1.7995                 2.3351
 IR Inten    --      8.3576                 9.8349                 0.5957

                     37                     38                     39
                      A                      A                      A
 Frequencies --   1428.0712              1473.1945              1483.0982
 Red. masses --      1.6549                 1.3440                 1.1282
 Frc consts  --      1.9885                 1.7186                 1.4621
 IR Inten    --     14.5748                 5.5220                 5.4610

                     40                     41                     42
                      A                      A                      A
 Frequencies --   1495.7672              1511.0351              2982.3884
 Red. masses --      1.1322                 1.1186                 1.0841
 Frc consts  --      1.4924                 1.5048                 5.6813
 IR Inten    --      2.6140                 1.0383                70.9374

                     43                     44                     45
                      A                      A                      A
 Frequencies --   3033.2816              3044.1123              3054.1989
 Red. masses --      1.0621                 1.0612                 1.0602
 Frc consts  --      5.7575                 5.7937                 5.8269
 IR Inten    --     84.4812                32.4745                30.4396

                     46                     47                     48
                      A                      A                      A
 Frequencies --   3082.5394              3102.8733              3114.6632
 Red. masses --      1.1034                 1.1046                 1.1038
 Frc consts  --      6.1772                 6.2656                 6.3093
 IR Inten    --     19.4468                23.2383                18.4724

                     49                     50                     51
                      A                      A                      A
 Frequencies --   3131.6286              3221.6687              3826.5663
 Red. masses --      1.0554                 1.1168                 1.0663
 Frc consts  --      6.0985                 6.8296                 9.1988
 IR Inten    --     12.2046                 5.8660                20.7874

 - Thermochemistry -
 -------------------
 Temperature   298.150 Kelvin.  Pressure   1.00000 Atm.
 Atom     1 has atomic number  8 and mass  15.99491

 Molecular mass:   126.06808 amu.
 Principal axes and moments of inertia in atomic units:
                           1         2         3
     Eigenvalues --   701.37430 985.650081202.55865
           X            0.99765   0.06271   0.02766
           Y           -0.06249   0.99801  -0.00896
           Z           -0.02817   0.00721   0.99958
 This molecule is an asymmetric top.
 Rotational symmetry number  1.
 Warning -- assumption of classical behavior for rotation
           may cause significant error
 Rotational temperatures (Kelvin)      0.12349     0.08787     0.07202
 Rotational constants (GHZ):           2.57315     1.83102     1.50075
 Zero-point vibrational energy     421767.5 (Joules/Mol)
                                  100.80485 (Kcal/Mol)
 Warning -- explicit consideration of  10 degrees of freedom as
           vibrations may cause significant error
 Vibrational temperatures:    191.84   301.95   386.92   404.42   522.21
          (Kelvin)            579.92   626.44   652.39   777.68   888.13
                              999.20  1065.21  1146.09  1196.60  1211.27
                             1304.19  1316.13  1366.65  1372.13  1401.18
                             1434.77  1449.10  1519.17  1552.50  1593.40
                             1657.73  1711.61  1717.85  1754.15  1779.66
                             1842.64  1868.91  1895.78  1924.88  1961.77
                             1988.57  2054.67  2119.60  2133.84  2152.07
                             2174.04  4290.99  4364.21  4379.79  4394.31
                             4435.08  4464.34  4481.30  4505.71  4635.26
                             5505.57

 Zero-point correction=                           0.160643 (Hartree/Particle)
 Thermal correction to Energy=                    0.168124
 Thermal correction to Enthalpy=                  0.169068
 Thermal correction to Gibbs Free Energy=         0.129197
 Sum of electronic and zero-point Energies=           -422.974569
 Sum of electronic and thermal Energies=              -422.967088
 Sum of electronic and thermal Enthalpies=            -422.966144
 Sum of electronic and thermal Free Energies=         -423.006014

                     E (Thermal)             CV                S
                      KCal/Mol        Cal/Mol-Kelvin    Cal/Mol-Kelvin
 Total                  105.499             30.631             83.915
 Electronic               0.000              0.000              0.000
 Translational            0.889              2.981             40.409
 Rotational               0.889              2.981             28.210
 Vibrational            103.722             24.669             15.296
 Vibration     1          0.613              1.920              2.897
 Vibration     2          0.642              1.826              2.045
 Vibration     3          0.673              1.730              1.603
 Vibration     4          0.681              1.709              1.527
 Vibration     5          0.737              1.549              1.109
 Vibration     6          0.768              1.464              0.951
 Vibration     7          0.796              1.393              0.841
 Vibration     8          0.812              1.353              0.785
 Vibration     9          0.896              1.160              0.564
 Vibration    10          0.977              0.995              0.421

 Normal termination of Gaussian 09 at Tue Jan 28 09:07:32 2020.
