 Gaussian 09, Revision D.01,
 Gaussian 09:  ES64L-G09RevD.01 24-Apr-2013

 -----------------------------
 # b3lyp 6-31G(2df,p) opt Freq
 -----------------------------

 -----
 titel
 -----
 Symbolic Z-matrix:
 Charge =  0 Multiplicity = 1

 SCF Done:  E(RB3LYP) =  -423.108513228     A.U. after   13 cycles
 Optimization completed.
    -- Stationary point found.
 Normal termination of Gaussian 09 at Mon Jan 27 22:01:10 2020.

 ----------------------------------------------------------------------
 #N Geom=AllCheck Guess=TCheck SCRF=Check GenChk RB3LYP/6-31G(2df,p) Fr
 eq
 ----------------------------------------------------------------------

 Structure from the checkpoint file:  "/scratch/puck/g09_a34ad91f-87ed-4cb2-b888-81aebb5456f8/Gau-98442.chk"
 -----
 titel
 -----
 Charge =  0 Multiplicity = 1

                         Standard orientation:
 ---------------------------------------------------------------------
 Center     Atomic      Atomic             Coordinates (Angstroms)
 Number     Number       Type             X           Y           Z
 ---------------------------------------------------------------------
      1          6           0        2.377626   -0.004311    0.381308
      2          6           0        1.132585   -0.002192   -0.491457
      3          6           0       -0.040267    0.929481   -0.146275
      4          8           0        0.054006    2.303539   -0.169953
      5          6           0       -0.595803    0.001095    1.005600
      6          6           0       -2.017947    0.003787    0.403532
      7          6           0       -1.108080    0.002099   -0.842820
      8          6           0       -0.043803   -0.929399   -0.146243
      9          8           0        0.045146   -2.303807   -0.169937
     10          1           0        2.125116   -0.005857    1.446528
     11          1           0        2.989907   -0.889357    0.181427
     12          1           0        2.990847    0.880708    0.184168
     13          1           0        1.390812   -0.002700   -1.558112
     14          1           0       -0.793281    2.680644    0.093133
     15          1           0       -0.290814    0.000527    2.052220
     16          1           0       -2.632090   -0.887701    0.573604
     17          1           0       -2.628749    0.897567    0.573630
     18          1           0       -1.367259    0.002583   -1.902604
     19          1           0       -0.803566   -2.677634    0.093246
 ---------------------------------------------------------------------

 SCF Done:  E(RB3LYP) =  -423.108513228     A.U. after    1 cycles

 The electronic state is 1-A.
 Alpha  occ. eigenvalues --  -19.15133 -19.15133 -10.24413 -10.24410 -10.18909
 Alpha  occ. eigenvalues --  -10.18870 -10.18826 -10.18345 -10.16725  -1.04198
 Alpha  occ. eigenvalues --   -1.03397  -0.92367  -0.76792  -0.68837  -0.63512
 Alpha  occ. eigenvalues --   -0.61958  -0.58675  -0.55242  -0.50003  -0.49898
 Alpha  occ. eigenvalues --   -0.47139  -0.42620  -0.40889  -0.40566  -0.39199
 Alpha  occ. eigenvalues --   -0.38577  -0.37803  -0.34023  -0.33481  -0.32069
 Alpha  occ. eigenvalues --   -0.28747  -0.28540  -0.27262  -0.23183
 Alpha virt. eigenvalues --    0.05275   0.08371   0.10609   0.12520   0.13119
 Alpha virt. eigenvalues --    0.13664   0.14743   0.15545   0.16803   0.18542
 Alpha virt. eigenvalues --    0.19028   0.19777   0.20644   0.21176   0.21474

 Mulliken charges:
               1
     1  C   -0.427905
     2  C   -0.090786
     3  C    0.426396
     4  O   -0.477796
     5  C   -0.198273
     6  C   -0.308130
     7  C   -0.186116
     8  C    0.426353
     9  O   -0.477782
    10  H    0.113883
    11  H    0.122604
    12  H    0.122659
    13  H    0.068315
    14  H    0.287059
    15  H    0.073866
    16  H    0.083638
    17  H    0.083641
    18  H    0.071316
    19  H    0.287058
 Sum of Mulliken charges =   0.00000

 Dipole moment (field-independent basis, Debye):
    X=             -2.0535    Y=              0.0042    Z=              0.6846  Tot=              2.1646
 Quadrupole moment (field-independent basis, Debye-Ang):
   XX=            -51.0530   YY=            -53.5163   ZZ=            -53.1560
   XY=             -0.0046   XZ=             -0.4526   YZ=              0.0004

  Exact polarizability:  84.741  -0.018  74.549  -1.521   0.003  66.504
 Approx polarizability: 114.264  -0.002 113.276  -2.719   0.004 105.242

                      1                      2                      3
                      A                      A                      A
 Frequencies --    185.4272               187.7939               208.3160
 Red. masses --      1.9435                 2.9031                 1.2308
 Frc consts  --      0.0394                 0.0603                 0.0315
 IR Inten    --      3.2673                 6.3362                 0.4712

                      4                      5                      6
                      A                      A                      A
 Frequencies --    238.3090               242.7885               272.7448
 Red. masses --      1.5910                 1.1142                 3.3658
 Frc consts  --      0.0532                 0.0387                 0.1475
 IR Inten    --     69.1730                 0.4534                28.6171

                      7                      8                      9
                      A                      A                      A
 Frequencies --    280.3382               334.5833               444.5174
 Red. masses --      2.4404                 2.7863                 2.9159
 Frc consts  --      0.1130                 0.1838                 0.3395
 IR Inten    --      2.1810                85.5632                 0.6448

                     10                     11                     12
                      A                      A                      A
 Frequencies --    536.9577               546.1516               604.8910
 Red. masses --      3.2801                 2.3840                 8.5113
 Frc consts  --      0.5572                 0.4190                 1.8348
 IR Inten    --      0.2573                16.3133                 0.8964

                     13                     14                     15
                      A                      A                      A
 Frequencies --    658.5313               710.7685               735.7679
 Red. masses --      3.2744                 3.9846                 2.8511
 Frc consts  --      0.8366                 1.1860                 0.9094
 IR Inten    --      0.8131                 3.4312                 0.3398

                     16                     17                     18
                      A                      A                      A
 Frequencies --    865.2655               871.1619               901.3991
 Red. masses --      2.1025                 2.0579                 2.3116
 Frc consts  --      0.9274                 0.9202                 1.1066
 IR Inten    --     18.5669                 2.1126                 0.2693

                     19                     20                     21
                      A                      A                      A
 Frequencies --    933.1330               976.8174               993.0085
 Red. masses --      1.9677                 1.1259                 3.7364
 Frc consts  --      1.0095                 0.6330                 2.1708
 IR Inten    --      4.5382                 0.3116                10.4713

                     22                     23                     24
                      A                      A                      A
 Frequencies --   1020.2700              1074.0290              1079.9928
 Red. masses --      1.5056                 1.4246                 4.2988
 Frc consts  --      0.9234                 0.9682                 2.9542
 IR Inten    --     60.0299                 1.9935                 1.5775

                     25                     26                     27
                      A                      A                      A
 Frequencies --   1100.7279              1105.8268              1112.5840
 Red. masses --      1.9972                 1.2587                 1.7106
 Frc consts  --      1.4257                 0.9068                 1.2476
 IR Inten    --     13.1183                 0.1332                 1.7267

                     28                     29                     30
                      A                      A                      A
 Frequencies --   1132.0813              1174.7466              1177.2157
 Red. masses --      1.9084                 2.0678                 1.7700
 Frc consts  --      1.4411                 1.6813                 1.4452
 IR Inten    --      1.5759                 2.7329                86.6009

                     31                     32                     33
                      A                      A                      A
 Frequencies --   1232.3694              1246.0642              1285.4817
 Red. masses --      1.6016                 2.1470                 2.0332
 Frc consts  --      1.4331                 1.9641                 1.9795
 IR Inten    --      1.5824                 1.9916               402.3230

                     34                     35                     36
                      A                      A                      A
 Frequencies --   1331.4006              1359.9847              1367.0370
 Red. masses --      2.0991                 1.5998                 2.2426
 Frc consts  --      2.1923                 1.7434                 2.4693
 IR Inten    --     12.0572                 5.6305                20.9309

                     37                     38                     39
                      A                      A                      A
 Frequencies --   1413.5792              1470.8985              1494.6684
 Red. masses --      1.2657                 2.1111                 1.0507
 Frc consts  --      1.4901                 2.6911                 1.3830
 IR Inten    --      5.6185                 0.9501                 7.1566

                     40                     41                     42
                      A                      A                      A
 Frequencies --   1506.3540              1519.7679              3027.0249
 Red. masses --      1.2121                 1.1715                 1.0564
 Frc consts  --      1.6204                 1.5942                 5.7030
 IR Inten    --      3.7858                 0.3052                76.4236

                     43                     44                     45
                      A                      A                      A
 Frequencies --   3029.7078              3036.6310              3073.7889
 Red. masses --      1.0823                 1.0357                 1.1081
 Frc consts  --      5.8534                 5.6266                 6.1683
 IR Inten    --     26.4687                19.6710                41.7176

                     46                     47                     48
                      A                      A                      A
 Frequencies --   3103.5111              3104.8348              3106.9079
 Red. masses --      1.0948                 1.1014                 1.0950
 Frc consts  --      6.2129                 6.2556                 6.2274
 IR Inten    --     28.2263                18.7517                56.0797

                     49                     50                     51
                      A                      A                      A
 Frequencies --   3114.8152              3796.4982              3797.7442
 Red. masses --      1.0926                 1.0657                 1.0654
 Frc consts  --      6.2457                 9.0499                 9.0537
 IR Inten    --     24.4445                20.6157                16.0257

 - Thermochemistry -
 -------------------
 Temperature   298.150 Kelvin.  Pressure   1.00000 Atm.
 Atom     1 has atomic number  6 and mass  12.00000

 Molecular mass:   126.06808 amu.
 Principal axes and moments of inertia in atomic units:
                           1         2         3
     Eigenvalues --   838.47230 892.819121432.31084
           X            0.00278   0.99998   0.00559
           Y            1.00000  -0.00278  -0.00001
           Z            0.00000  -0.00559   0.99998
 This molecule is an asymmetric top.
 Rotational symmetry number  1.
 Warning -- assumption of classical behavior for rotation
           may cause significant error
 Rotational temperatures (Kelvin)      0.10330     0.09701     0.06047
 Rotational constants (GHZ):           2.15242     2.02140     1.26002
 Zero-point vibrational energy     413460.6 (Joules/Mol)
                                   98.81946 (Kcal/Mol)
 Warning -- explicit consideration of  12 degrees of freedom as
           vibrations may cause significant error
 Vibrational temperatures:    266.79   270.19   299.72   342.87   349.32
          (Kelvin)            392.42   403.34   481.39   639.56   772.56
                              785.79   870.30   947.48  1022.64  1058.60
                             1244.92  1253.41  1296.91  1342.57  1405.42
                             1428.72  1467.94  1545.29  1553.87  1583.70
                             1591.04  1600.76  1628.81  1690.20  1693.75
                             1773.10  1792.81  1849.52  1915.59  1956.71
                             1966.86  2033.82  2116.29  2150.49  2167.30
                             2186.60  4355.21  4359.07  4369.03  4422.49
                             4465.25  4467.16  4470.14  4481.52  5462.31
                             5464.10

 Zero-point correction=                           0.157479 (Hartree/Particle)
 Thermal correction to Energy=                    0.166073
 Thermal correction to Enthalpy=                  0.167017
 Thermal correction to Gibbs Free Energy=         0.125085
 Sum of electronic and zero-point Energies=           -422.951034
 Sum of electronic and thermal Energies=              -422.942441
 Sum of electronic and thermal Enthalpies=            -422.941496
 Sum of electronic and thermal Free Energies=         -422.983429

                     E (Thermal)             CV                S
                      KCal/Mol        Cal/Mol-Kelvin    Cal/Mol-Kelvin
 Total                  104.212             33.897             88.254
 Electronic               0.000              0.000              0.000
 Translational            0.889              2.981             40.409
 Rotational               0.889              2.981             28.463
 Vibrational            102.435             27.936             19.382
 Vibration     1          0.632              1.860              2.273
 Vibration     2          0.632              1.857              2.249
 Vibration     3          0.642              1.828              2.058
 Vibration     4          0.656              1.782              1.815
 Vibration     5          0.659              1.775              1.782
 Vibration     6          0.676              1.724              1.579
 Vibration     7          0.680              1.710              1.532
 Vibration     8          0.716              1.606              1.238
 Vibration     9          0.804              1.373              0.813
 Vibration    10          0.892              1.168              0.572
 Vibration    11          0.901              1.148              0.552
 Vibration    12          0.963              1.021              0.441

 Normal termination of Gaussian 09 at Mon Jan 27 22:47:28 2020.
