 Gaussian 09, Revision D.01,
 Gaussian 09:  ES64L-G09RevD.01 24-Apr-2013

 -----------------------------
 # b3lyp 6-31G(2df,p) opt Freq
 -----------------------------

 -----
 titel
 -----
 Symbolic Z-matrix:
 Charge =  0 Multiplicity = 1

 SCF Done:  E(RB3LYP) =  -423.156886474     A.U. after   14 cycles
 Optimization completed.
    -- Stationary point found.
 Normal termination of Gaussian 09 at Tue Jan 28 03:57:09 2020.

 ----------------------------------------------------------------------
 #N Geom=AllCheck Guess=TCheck SCRF=Check GenChk RB3LYP/6-31G(2df,p) Fr
 eq
 ----------------------------------------------------------------------

 Structure from the checkpoint file:  "/scratch/puck/g09_eae7bbf8-8157-4632-be8a-f2fb242a5824/Gau-92296.chk"
 -----
 titel
 -----
 Charge =  0 Multiplicity = 1

                         Standard orientation:
 ---------------------------------------------------------------------
 Center     Atomic      Atomic             Coordinates (Angstroms)
 Number     Number       Type             X           Y           Z
 ---------------------------------------------------------------------
      1          6           0        2.356679   -1.209251   -0.166538
      2          6           0        1.570709    0.070165   -0.410019
      3          8           0        1.356880    0.818082    0.776061
      4          6           0        0.061504    0.486855    1.237778
      5          6           0       -0.728170    0.292041   -0.078841
      6          6           0       -1.252175    1.621550   -0.641561
      7          8           0        0.288472   -0.237007   -0.947994
      8          6           0       -1.804901   -0.687159    0.058568
      9          6           0       -2.709528   -1.465677    0.195626
     10          1           0        2.461834   -1.763334   -1.103433
     11          1           0        3.352893   -0.968556    0.215129
     12          1           0        1.839741   -1.846265    0.556368
     13          1           0        2.108141    0.729685   -1.105186
     14          1           0        0.056278   -0.436870    1.831196
     15          1           0       -0.312721    1.312136    1.846736
     16          1           0       -1.607538    1.476037   -1.663915
     17          1           0       -2.078287    2.001060   -0.033373
     18          1           0       -0.444186    2.358376   -0.646217
     19          1           0       -3.503683   -2.162001    0.308089
 ---------------------------------------------------------------------

 SCF Done:  E(RB3LYP) =  -423.156886474     A.U. after    1 cycles

 The electronic state is 1-A.
 Alpha  occ. eigenvalues --  -19.15145 -19.14601 -10.28004 -10.26666 -10.23817
 Alpha  occ. eigenvalues --  -10.18494 -10.18149 -10.18058 -10.17593  -1.08998
 Alpha  occ. eigenvalues --   -0.99649  -0.81781  -0.74694  -0.72371  -0.69197
 Alpha  occ. eigenvalues --   -0.62848  -0.60180  -0.53825  -0.51266  -0.50206
 Alpha  occ. eigenvalues --   -0.48409  -0.43855  -0.42533  -0.41902  -0.40152
 Alpha  occ. eigenvalues --   -0.39097  -0.38667  -0.37210  -0.34844  -0.33617
 Alpha  occ. eigenvalues --   -0.28827  -0.27634  -0.26466  -0.25399
 Alpha virt. eigenvalues --    0.03352   0.05127   0.09130   0.11121   0.12333
 Alpha virt. eigenvalues --    0.12667   0.13239   0.14610   0.15905   0.16935
 Alpha virt. eigenvalues --    0.17505   0.18063   0.18798   0.19717   0.21887

 Mulliken charges:
               1
     1  C   -0.398682
     2  C    0.215722
     3  O   -0.261150
     4  C   -0.143561
     5  C    0.188071
     6  C   -0.425907
     7  O   -0.307143
     8  C    0.307121
     9  C   -0.453248
    10  H    0.128766
    11  H    0.122798
    12  H    0.123824
    13  H    0.086964
    14  H    0.106382
    15  H    0.122918
    16  H    0.135353
    17  H    0.123306
    18  H    0.129483
    19  H    0.198983
 Sum of Mulliken charges =   0.00000

 Dipole moment (field-independent basis, Debye):
    X=             -0.4434    Y=              0.0044    Z=              0.5508  Tot=              0.7071
 Quadrupole moment (field-independent basis, Debye-Ang):
   XX=            -49.3657   YY=            -51.6332   ZZ=            -54.1064
   XY=             -0.0339   XZ=             -2.7069   YZ=             -1.5983

  Exact polarizability:  93.305   7.959  75.497  -4.219  -2.171  63.030
 Approx polarizability: 127.630  22.225 110.505  -7.177  -1.610  94.561

                      1                      2                      3
                      A                      A                      A
 Frequencies --     22.6353               139.4290               165.8106
 Red. masses --      3.7125                 3.5546                 3.4542
 Frc consts  --      0.0011                 0.0407                 0.0560
 IR Inten    --      1.4828                 1.2375                 1.7253

                      4                      5                      6
                      A                      A                      A
 Frequencies --    191.0783               231.1989               260.5154
 Red. masses --      2.9507                 1.0836                 1.0383
 Frc consts  --      0.0635                 0.0341                 0.0415
 IR Inten    --      1.7918                 0.1604                 0.0554

                      7                      8                      9
                      A                      A                      A
 Frequencies --    307.0105               355.4392               403.7976
 Red. masses --      2.5559                 2.3723                 3.2686
 Frc consts  --      0.1419                 0.1766                 0.3140
 IR Inten    --      1.3508                 0.7449                 0.2694

                     10                     11                     12
                      A                      A                      A
 Frequencies --    469.0646               512.5675               533.8100
 Red. masses --      3.4279                 6.7032                 4.8355
 Frc consts  --      0.4444                 1.0376                 0.8118
 IR Inten    --     11.0080                 0.9890                 1.9042

                     13                     14                     15
                      A                      A                      A
 Frequencies --    582.3050               628.1097               665.9029
 Red. masses --      4.3504                 1.2155                 1.2575
 Frc consts  --      0.8691                 0.2825                 0.3285
 IR Inten    --      5.3431                44.5104                34.0106

                     16                     17                     18
                      A                      A                      A
 Frequencies --    730.2645               792.1864               842.8663
 Red. masses --      3.7532                 4.4186                 2.9275
 Frc consts  --      1.1793                 1.6337                 1.2254
 IR Inten    --      3.5647                 9.0085                 6.9125

                     19                     20                     21
                      A                      A                      A
 Frequencies --    901.2126               942.0057               956.8858
 Red. masses --      2.3397                 1.6897                 2.2613
 Frc consts  --      1.1196                 0.8834                 1.2199
 IR Inten    --     20.9075                 6.7624                17.1179

                     22                     23                     24
                      A                      A                      A
 Frequencies --    963.8071              1045.8190              1082.8025
 Red. masses --      2.3200                 3.6640                 1.9909
 Frc consts  --      1.2698                 2.3611                 1.3753
 IR Inten    --     47.5097                11.6809                48.3087

                     25                     26                     27
                      A                      A                      A
 Frequencies --   1128.8392              1144.7426              1170.5525
 Red. masses --      2.4917                 2.2235                 3.4667
 Frc consts  --      1.8707                 1.7167                 2.7987
 IR Inten    --     73.3309                 1.8815               208.5238

                     28                     29                     30
                      A                      A                      A
 Frequencies --   1183.0235              1233.8208              1254.8208
 Red. masses --      3.0444                 2.2164                 1.5220
 Frc consts  --      2.5104                 1.9879                 1.4120
 IR Inten    --     75.5839                18.8100                21.9500

                     31                     32                     33
                      A                      A                      A
 Frequencies --   1340.7475              1374.3035              1395.9578
 Red. masses --      1.2651                 1.3543                 1.2203
 Frc consts  --      1.3399                 1.5071                 1.4011
 IR Inten    --     12.5648                 5.3396                 1.5269

                     34                     35                     36
                      A                      A                      A
 Frequencies --   1402.9968              1415.8194              1482.4772
 Red. masses --      1.2587                 1.3420                 1.0546
 Frc consts  --      1.4598                 1.5850                 1.3656
 IR Inten    --     10.3354                49.3635                 0.9260

                     37                     38                     39
                      A                      A                      A
 Frequencies --   1485.4134              1487.3012              1490.9891
 Red. masses --      1.0518                 1.0559                 1.0491
 Frc consts  --      1.3673                 1.3762                 1.3740
 IR Inten    --      2.1424                 3.4070                 2.1578

                     40                     41                     42
                      A                      A                      A
 Frequencies --   1515.8945              2240.5903              3011.4241
 Red. masses --      1.0899                 5.9098                 1.0851
 Frc consts  --      1.4756                17.4804                 5.7976
 IR Inten    --      1.3863                 0.9000                76.4041

                     43                     44                     45
                      A                      A                      A
 Frequencies --   3018.0350              3045.9054              3046.5078
 Red. masses --      1.0680                 1.0345                 1.0342
 Frc consts  --      5.7314                 5.6545                 5.6554
 IR Inten    --     19.4129                15.3049                 5.4342

                     46                     47                     48
                      A                      A                      A
 Frequencies --   3113.6516              3124.0901              3126.0390
 Red. masses --      1.0984                 1.1024                 1.1020
 Frc consts  --      6.2741                 6.3390                 6.3450
 IR Inten    --     18.6246                22.3922                14.0917

                     49                     50                     51
                      A                      A                      A
 Frequencies --   3127.7933              3136.5336              3500.8016
 Red. masses --      1.1029                 1.1027                 1.1630
 Frc consts  --      6.3573                 6.3916                 8.3980
 IR Inten    --     25.0968                13.0745                65.5175

 - Thermochemistry -
 -------------------
 Temperature   298.150 Kelvin.  Pressure   1.00000 Atm.
 Atom     1 has atomic number  6 and mass  12.00000

 Molecular mass:   126.06808 amu.
 Principal axes and moments of inertia in atomic units:
                           1         2         3
     Eigenvalues --   661.744021385.180991596.79423
           X            0.99880  -0.04880  -0.00494
           Y            0.04847   0.99747  -0.05209
           Z            0.00747   0.05178   0.99863
 This molecule is an asymmetric top.
 Rotational symmetry number  1.
 Warning -- assumption of classical behavior for rotation
           may cause significant error
 Rotational temperatures (Kelvin)      0.13089     0.06253     0.05424
 Rotational constants (GHZ):           2.72725     1.30289     1.13023
 Zero-point vibrational energy     411070.3 (Joules/Mol)
                                   98.24817 (Kcal/Mol)
 Warning -- explicit consideration of  13 degrees of freedom as
           vibrations may cause significant error
 Vibrational temperatures:     32.57   200.61   238.56   274.92   332.64
          (Kelvin)            374.82   441.72   511.40   580.97   674.88
                              737.47   768.03   837.81   903.71   958.08
                             1050.69  1139.78  1212.70  1296.64  1355.33
                             1376.74  1386.70  1504.70  1557.91  1624.15
                             1647.03  1684.16  1702.10  1775.19  1805.41
                             1929.03  1977.31  2008.47  2018.60  2037.05
                             2132.95  2137.18  2139.89  2145.20  2181.03
                             3223.71  4332.76  4342.27  4382.37  4383.24
                             4479.84  4494.86  4497.67  4500.19  4512.77
                             5036.87

 Zero-point correction=                           0.156568 (Hartree/Particle)
 Thermal correction to Energy=                    0.165976
 Thermal correction to Enthalpy=                  0.166920
 Thermal correction to Gibbs Free Energy=         0.121799
 Sum of electronic and zero-point Energies=           -423.000318
 Sum of electronic and thermal Energies=              -422.990911
 Sum of electronic and thermal Enthalpies=            -422.989966
 Sum of electronic and thermal Free Energies=         -423.035087

                     E (Thermal)             CV                S
                      KCal/Mol        Cal/Mol-Kelvin    Cal/Mol-Kelvin
 Total                  104.151             35.154             94.965
 Electronic               0.000              0.000              0.000
 Translational            0.889              2.981             40.409
 Rotational               0.889              2.981             28.772
 Vibrational            102.374             29.192             25.784
 Vibration     1          0.593              1.985              6.388
 Vibration     2          0.615              1.914              2.812
 Vibration     3          0.624              1.884              2.482
 Vibration     4          0.634              1.852              2.217
 Vibration     5          0.653              1.793              1.870
 Vibration     6          0.669              1.745              1.658
 Vibration     7          0.697              1.660              1.378
 Vibration     8          0.731              1.564              1.142
 Vibration     9          0.769              1.462              0.949
 Vibration    10          0.826              1.319              0.740
 Vibration    11          0.868              1.222              0.627
 Vibration    12          0.889              1.175              0.579
 Vibration    13          0.939              1.070              0.481

 Optimization completed.
    -- Stationary point found.
 Normal termination of Gaussian 09 at Tue Jan 28 04:46:56 2020.
