 Gaussian 09, Revision D.01,
 Gaussian 09:  ES64L-G09RevD.01 24-Apr-2013

 -----------------------------
 # b3lyp 6-31G(2df,p) opt Freq
 -----------------------------

 -----
 titel
 -----
 Symbolic Z-matrix:
 Charge =  0 Multiplicity = 1

 SCF Done:  E(RB3LYP) =  -423.134297465     A.U. after   14 cycles
 Optimization completed.
    -- Stationary point found.
 Normal termination of Gaussian 09 at Mon Jan 27 22:05:58 2020.

 ----------------------------------------------------------------------
 #N Geom=AllCheck Guess=TCheck SCRF=Check GenChk RB3LYP/6-31G(2df,p) Fr
 eq
 ----------------------------------------------------------------------

 Structure from the checkpoint file:  "/scratch/puck/g09_a52ae7b3-0d55-497f-9171-f92e4a91cda6/Gau-111380.chk"
 -----
 titel
 -----
 Charge =  0 Multiplicity = 1

                         Standard orientation:
 ---------------------------------------------------------------------
 Center     Atomic      Atomic             Coordinates (Angstroms)
 Number     Number       Type             X           Y           Z
 ---------------------------------------------------------------------
      1          6           0        2.516480    0.045909   -0.527191
      2          6           0        1.110667   -0.215722   -0.095553
      3          6           0        0.470771   -0.901040    1.059853
      4          8           0       -0.418826    0.171240    1.399720
      5          6           0       -0.186066    0.679161    0.039086
      6          6           0       -0.362005    2.157478   -0.099833
      7          6           0       -0.955884   -0.379094   -0.806514
      8          8           0       -2.297022   -0.598414   -0.481723
      9          6           0        0.125670   -1.364091   -0.359712
     10          1           0        2.981233    0.835132    0.074166
     11          1           0        3.125914   -0.857464   -0.418401
     12          1           0        2.566306    0.350511   -1.578586
     13          1           0        0.860586   -1.530810    1.848786
     14          1           0       -0.130764    2.475815   -1.121052
     15          1           0       -1.401503    2.427923    0.114020
     16          1           0        0.286345    2.700188    0.593825
     17          1           0       -0.892940   -0.167077   -1.877092
     18          1           0       -2.323605   -0.591561    0.485443
     19          1           0        0.337413   -2.360864   -0.725898
 ---------------------------------------------------------------------

 SCF Done:  E(RB3LYP) =  -423.134297465     A.U. after    1 cycles

 The electronic state is 1-A.
 Alpha  occ. eigenvalues --  -19.14130 -19.12721 -10.24220 -10.23903 -10.23079
 Alpha  occ. eigenvalues --  -10.20232 -10.19183 -10.18945 -10.18387  -1.06602
 Alpha  occ. eigenvalues --   -1.00829  -0.85917  -0.76121  -0.73385  -0.67757
 Alpha  occ. eigenvalues --   -0.61733  -0.57254  -0.52238  -0.50425  -0.49153
 Alpha  occ. eigenvalues --   -0.46357  -0.43289  -0.42526  -0.41796  -0.40660
 Alpha  occ. eigenvalues --   -0.39902  -0.37722  -0.37363  -0.35592  -0.34897
 Alpha  occ. eigenvalues --   -0.28632  -0.26450  -0.25797  -0.23247
 Alpha virt. eigenvalues --    0.08148   0.09136   0.10727   0.11913   0.12025
 Alpha virt. eigenvalues --    0.13536   0.14292   0.14772   0.15148   0.15843
 Alpha virt. eigenvalues --    0.17291   0.17557   0.20040   0.21266   0.21899

 Mulliken charges:
               1
     1  C   -0.527770
     2  C    0.241315
     3  C    0.035651
     4  O   -0.345747
     5  C    0.300962
     6  C   -0.516519
     7  C    0.161046
     8  O   -0.453388
     9  C   -0.243891
    10  H    0.128844
    11  H    0.128533
    12  H    0.125653
    13  H    0.108397
    14  H    0.125031
    15  H    0.140797
    16  H    0.130467
    17  H    0.088267
    18  H    0.283211
    19  H    0.089141
 Sum of Mulliken charges =   0.00000

 Dipole moment (field-independent basis, Debye):
    X=              2.3753    Y=              0.1343    Z=             -0.3531  Tot=              2.4052
 Quadrupole moment (field-independent basis, Debye-Ang):
   XX=            -55.7063   YY=            -50.2834   ZZ=            -53.7918
   XY=             -2.1641   XZ=             -1.9323   YZ=             -2.4010

  Exact polarizability:  79.377  -1.115  76.285  -0.206  -1.566  67.909
 Approx polarizability: 110.776   0.331 108.682  -0.903  -0.947 109.222

                      1                      2                      3
                      A                      A                      A
 Frequencies --    159.1599               175.6367               186.8853
 Red. masses --      3.3685                 2.4311                 1.0882
 Frc consts  --      0.0503                 0.0442                 0.0224
 IR Inten    --      2.0569                 0.2164                 0.2477

                      4                      5                      6
                      A                      A                      A
 Frequencies --    193.2871               226.5354               290.8222
 Red. masses --      1.0345                 3.4696                 3.8011
 Frc consts  --      0.0228                 0.1049                 0.1894
 IR Inten    --      0.1148                 0.4834                 6.0534

                      7                      8                      9
                      A                      A                      A
 Frequencies --    317.8523               407.3266               514.8602
 Red. masses --      2.4673                 3.3087                 1.1529
 Frc consts  --      0.1469                 0.3234                 0.1801
 IR Inten    --      1.2095                 3.3325                64.7588

                     10                     11                     12
                      A                      A                      A
 Frequencies --    543.2074               600.1644               642.0858
 Red. masses --      3.6690                 4.1376                 3.4617
 Frc consts  --      0.6379                 0.8781                 0.8409
 IR Inten    --      2.6016                 3.0283                 0.8422

                     13                     14                     15
                      A                      A                      A
 Frequencies --    710.0622               756.7395               778.6826
 Red. masses --      3.5923                 3.2432                 4.1676
 Frc consts  --      1.0671                 1.0943                 1.4889
 IR Inten    --      9.9443                 6.4552                26.4278

                     16                     17                     18
                      A                      A                      A
 Frequencies --    818.5002               870.2340               874.7831
 Red. masses --      3.4159                 1.9472                 2.4837
 Frc consts  --      1.3483                 0.8688                 1.1198
 IR Inten    --     12.5083                 3.2426                16.4337

                     19                     20                     21
                      A                      A                      A
 Frequencies --    916.3924               965.8700               986.0848
 Red. masses --      1.5617                 1.9398                 1.7704
 Frc consts  --      0.7727                 1.0662                 1.0143
 IR Inten    --     17.2797                 2.9782                 9.3275

                     22                     23                     24
                      A                      A                      A
 Frequencies --   1006.4133              1023.8102              1093.6693
 Red. masses --      2.7630                 1.6466                 2.6566
 Frc consts  --      1.6488                 1.0169                 1.8722
 IR Inten    --     32.1104                 9.5324               135.8852

                     25                     26                     27
                      A                      A                      A
 Frequencies --   1094.9354              1118.6845              1143.7202
 Red. masses --      1.9067                 1.9169                 2.2684
 Frc consts  --      1.3469                 1.4134                 1.7483
 IR Inten    --     19.4078                18.3425                12.6571

                     28                     29                     30
                      A                      A                      A
 Frequencies --   1177.9613              1183.7927              1249.4231
 Red. masses --      1.9335                 1.7322                 2.3143
 Frc consts  --      1.5807                 1.4302                 2.1285
 IR Inten    --     10.5854                 5.0785                 7.5108

                     31                     32                     33
                      A                      A                      A
 Frequencies --   1270.3542              1310.8381              1333.0492
 Red. masses --      1.4633                 1.8264                 2.6095
 Frc consts  --      1.3913                 1.8491                 2.7321
 IR Inten    --     26.2276                 4.1414                 9.5595

                     34                     35                     36
                      A                      A                      A
 Frequencies --   1411.9027              1413.4073              1443.6254
 Red. masses --      1.2835                 1.4430                 1.3484
 Frc consts  --      1.5075                 1.6985                 1.6557
 IR Inten    --      8.6690                 8.0484                99.6446

                     37                     38                     39
                      A                      A                      A
 Frequencies --   1461.4091              1479.7044              1486.4296
 Red. masses --      2.8845                 1.1020                 1.1223
 Frc consts  --      3.6296                 1.4216                 1.4609
 IR Inten    --     10.6311                 5.1441                 6.7694

                     40                     41                     42
                      A                      A                      A
 Frequencies --   1489.8476              1497.1165              3025.2078
 Red. masses --      1.1030                 1.0592                 1.0351
 Frc consts  --      1.4425                 1.3988                 5.5812
 IR Inten    --      4.1829                 5.1035                35.5720

                     43                     44                     45
                      A                      A                      A
 Frequencies --   3038.2153              3085.9564              3087.9280
 Red. masses --      1.0349                 1.0995                 1.0884
 Frc consts  --      5.6285                 6.1692                 6.1144
 IR Inten    --     14.1060                 7.8743                33.7941

                     46                     47                     48
                      A                      A                      A
 Frequencies --   3095.8147              3109.3794              3116.7743
 Red. masses --      1.1002                 1.1004                 1.1019
 Frc consts  --      6.2127                 6.2686                 6.3066
 IR Inten    --     16.8063                12.0001                15.0916

                     49                     50                     51
                      A                      A                      A
 Frequencies --   3196.3893              3209.2504              3749.1062
 Red. masses --      1.0919                 1.0968                 1.0645
 Frc consts  --      6.5726                 6.6555                 8.8155
 IR Inten    --      7.4750                18.9352                26.7933

 - Thermochemistry -
 -------------------
 Temperature   298.150 Kelvin.  Pressure   1.00000 Atm.
 Atom     1 has atomic number  6 and mass  12.00000

 Molecular mass:   126.06808 amu.
 Principal axes and moments of inertia in atomic units:
                           1         2         3
     Eigenvalues --   730.808741077.411261284.21753
           X            0.99939  -0.02867  -0.01983
           Y            0.02793   0.99895  -0.03644
           Z            0.02085   0.03587   0.99914
 This molecule is an asymmetric top.
 Rotational symmetry number  1.
 Warning -- assumption of classical behavior for rotation
           may cause significant error
 Rotational temperatures (Kelvin)      0.11852     0.08039     0.06744
 Rotational constants (GHZ):           2.46951     1.67507     1.40532
 Zero-point vibrational energy     414741.0 (Joules/Mol)
                                   99.12549 (Kcal/Mol)
 Warning -- explicit consideration of  11 degrees of freedom as
           vibrations may cause significant error
 Vibrational temperatures:    229.00   252.70   268.89   278.10   325.93
          (Kelvin)            418.43   457.32   586.05   740.77   781.55
                              863.50   923.82  1021.62  1088.78  1120.35
                             1177.64  1252.07  1258.62  1318.48  1389.67
                             1418.75  1448.00  1473.03  1573.54  1575.37
                             1609.54  1645.56  1694.82  1703.21  1797.64
                             1827.75  1886.00  1917.96  2031.41  2033.58
                             2077.05  2102.64  2128.96  2138.64  2143.56
                             2154.01  4352.59  4371.31  4440.00  4442.83
                             4454.18  4473.70  4484.34  4598.89  4617.39
                             5394.12

 Zero-point correction=                           0.157967 (Hartree/Particle)
 Thermal correction to Energy=                    0.166442
 Thermal correction to Enthalpy=                  0.167386
 Thermal correction to Gibbs Free Energy=         0.125487
 Sum of electronic and zero-point Energies=           -422.976331
 Sum of electronic and thermal Energies=              -422.967855
 Sum of electronic and thermal Enthalpies=            -422.966911
 Sum of electronic and thermal Free Energies=         -423.008810

                     E (Thermal)             CV                S
                      KCal/Mol        Cal/Mol-Kelvin    Cal/Mol-Kelvin
 Total                  104.444             33.115             88.184
 Electronic               0.000              0.000              0.000
 Translational            0.889              2.981             40.409
 Rotational               0.889              2.981             28.405
 Vibrational            102.666             27.153             19.370
 Vibration     1          0.621              1.892              2.560
 Vibration     2          0.628              1.872              2.374
 Vibration     3          0.632              1.858              2.259
 Vibration     4          0.635              1.849              2.196
 Vibration     5          0.650              1.801              1.906
 Vibration     6          0.687              1.691              1.469
 Vibration     7          0.704              1.639              1.321
 Vibration     8          0.772              1.454              0.936
 Vibration     9          0.870              1.217              0.622
 Vibration    10          0.898              1.155              0.558
 Vibration    11          0.958              1.031              0.449

 Optimization completed.
    -- Stationary point found.
 Normal termination of Gaussian 09 at Mon Jan 27 23:03:09 2020.
