 Gaussian 09, Revision D.01,
 Gaussian 09:  ES64L-G09RevD.01 24-Apr-2013

 -----------------------------
 # b3lyp 6-31G(2df,p) opt Freq
 -----------------------------

 -----
 titel
 -----
 Symbolic Z-matrix:
 Charge =  0 Multiplicity = 1

 SCF Done:  E(RB3LYP) =  -423.160858981     A.U. after   14 cycles
 Optimization completed.
    -- Stationary point found.
 Normal termination of Gaussian 09 at Tue Jan 28 02:54:57 2020.

 ----------------------------------------------------------------------
 #N Geom=AllCheck Guess=TCheck SCRF=Check GenChk RB3LYP/6-31G(2df,p) Fr
 eq
 ----------------------------------------------------------------------

 Structure from the checkpoint file:  "/scratch/puck/g09_d4fe8830-9a1a-472d-aeee-2c964b0fbee6/Gau-44221.chk"
 -----
 titel
 -----
 Charge =  0 Multiplicity = 1

                         Standard orientation:
 ---------------------------------------------------------------------
 Center     Atomic      Atomic             Coordinates (Angstroms)
 Number     Number       Type             X           Y           Z
 ---------------------------------------------------------------------
      1          6           0       -1.809973   -1.876996    0.289228
      2          6           0       -1.044248   -0.725733   -0.326103
      3          8           0        0.256207   -1.137632   -0.842996
      4          6           0        0.930205   -0.203042   -0.011082
      5          6           0        2.251880   -0.506984    0.608583
      6          6           0        2.132071    0.549847   -0.484180
      7          6           0       -0.380177    0.294847    0.621576
      8          6           0       -0.696827    1.752142    0.403462
      9          8           0       -1.504552    2.171754   -0.385346
     10          1           0       -2.764606   -1.524613    0.694972
     11          1           0       -2.021708   -2.637404   -0.468603
     12          1           0       -1.236456   -2.346098    1.094761
     13          1           0       -1.627197   -0.234484   -1.111899
     14          1           0        2.441093   -0.181547    1.626749
     15          1           0        2.708023   -1.453930    0.340359
     16          1           0        2.252280    1.593842   -0.214179
     17          1           0        2.502611    0.292670   -1.470535
     18          1           0       -0.461379    0.062883    1.689501
     19          1           0       -0.103487    2.451212    1.036694
 ---------------------------------------------------------------------

 SCF Done:  E(RB3LYP) =  -423.160858981     A.U. after    1 cycles

 The electronic state is 1-A.
 Alpha  occ. eigenvalues --  -19.14828 -19.13876 -10.27907 -10.25371 -10.23976
 Alpha  occ. eigenvalues --  -10.20697 -10.19168 -10.19140 -10.18177  -1.05703
 Alpha  occ. eigenvalues --   -1.04624  -0.85502  -0.78243  -0.73346  -0.61936
 Alpha  occ. eigenvalues --   -0.61437  -0.59886  -0.52859  -0.51431  -0.49399
 Alpha  occ. eigenvalues --   -0.48996  -0.45510  -0.43926  -0.41496  -0.40444
 Alpha  occ. eigenvalues --   -0.39395  -0.37965  -0.37210  -0.35787  -0.34558
 Alpha  occ. eigenvalues --   -0.31966  -0.29249  -0.25824  -0.23459
 Alpha virt. eigenvalues --   -0.03087   0.07796   0.08811   0.09448   0.11655
 Alpha virt. eigenvalues --    0.12314   0.13810   0.15136   0.15371   0.16038
 Alpha virt. eigenvalues --    0.16873   0.17658   0.18072   0.22040   0.23129

 Mulliken charges:
               1
     1  C   -0.411441
     2  C    0.146716
     3  O   -0.321337
     4  C    0.464389
     5  C   -0.334177
     6  C   -0.339601
     7  C   -0.267562
     8  C    0.148897
     9  O   -0.239687
    10  H    0.122709
    11  H    0.132159
    12  H    0.119549
    13  H    0.106250
    14  H    0.114710
    15  H    0.129771
    16  H    0.117428
    17  H    0.132425
    18  H    0.099689
    19  H    0.079113
 Sum of Mulliken charges =   0.00000

 Dipole moment (field-independent basis, Debye):
    X=              0.9607    Y=             -0.5070    Z=              2.3053  Tot=              2.5484
 Quadrupole moment (field-independent basis, Debye-Ang):
   XX=            -53.3737   YY=            -56.9862   ZZ=            -52.4738
   XY=              5.2062   XZ=             -1.1298   YZ=              1.6480

  Exact polarizability:  85.679   1.717  78.144   3.702  -0.827  66.053
 Approx polarizability: 115.927  -3.373 108.234   9.567  -2.291 105.170

                      1                      2                      3
                      A                      A                      A
 Frequencies --     47.6929                63.2118               170.8264
 Red. masses --      3.6591                 4.8553                 3.6945
 Frc consts  --      0.0049                 0.0114                 0.0635
 IR Inten    --      1.9291                 4.7982                 5.4958

                      4                      5                      6
                      A                      A                      A
 Frequencies --    199.7629               220.0212               246.9900
 Red. masses --      2.2691                 1.2944                 1.7695
 Frc consts  --      0.0534                 0.0369                 0.0636
 IR Inten    --      0.8834                 0.1647                 0.1670

                      7                      8                      9
                      A                      A                      A
 Frequencies --    279.1224               375.7593               411.7307
 Red. masses --      2.6200                 2.8129                 3.0415
 Frc consts  --      0.1203                 0.2340                 0.3038
 IR Inten    --      0.9845                 0.2724                 7.5269

                     10                     11                     12
                      A                      A                      A
 Frequencies --    479.9277               555.0543               667.8858
 Red. masses --      3.7091                 3.7219                 4.2959
 Frc consts  --      0.5034                 0.6756                 1.1290
 IR Inten    --      0.7436                 4.3493                12.5265

                     13                     14                     15
                      A                      A                      A
 Frequencies --    754.1863               772.5155               853.7673
 Red. masses --      1.0551                 3.1062                 1.9073
 Frc consts  --      0.3536                 1.0922                 0.8191
 IR Inten    --      0.7886                12.0851                 7.8709

                     16                     17                     18
                      A                      A                      A
 Frequencies --    865.9218               874.9950               923.6474
 Red. masses --      1.5569                 2.2428                 2.2463
 Frc consts  --      0.6878                 1.0117                 1.1291
 IR Inten    --      3.8630                16.3712                28.4084

                     19                     20                     21
                      A                      A                      A
 Frequencies --    933.0366               973.5837              1020.1566
 Red. masses --      2.1908                 2.2470                 1.8894
 Frc consts  --      1.1237                 1.2549                 1.1586
 IR Inten    --     12.2244                10.8712                 0.4224

                     22                     23                     24
                      A                      A                      A
 Frequencies --   1049.7672              1069.1863              1077.6426
 Red. masses --      1.6975                 1.4840                 2.5983
 Frc consts  --      1.1022                 0.9995                 1.7779
 IR Inten    --      9.9015                 0.0223                89.1310

                     25                     26                     27
                      A                      A                      A
 Frequencies --   1081.7574              1113.2855              1138.0265
 Red. masses --      2.3096                 1.7087                 2.5901
 Frc consts  --      1.5924                 1.2478                 1.9764
 IR Inten    --      9.6927                21.5005                 7.1574

                     28                     29                     30
                      A                      A                      A
 Frequencies --   1185.4442              1203.1232              1216.1437
 Red. masses --      1.2622                 1.5376                 2.0239
 Frc consts  --      1.0451                 1.3114                 1.7636
 IR Inten    --      0.1809                 2.8827                26.2319

                     31                     32                     33
                      A                      A                      A
 Frequencies --   1287.4123              1345.1973              1353.5056
 Red. masses --      1.6724                 1.7268                 1.9455
 Frc consts  --      1.6332                 1.8410                 2.0999
 IR Inten    --      5.6429                22.1370                50.2074

                     34                     35                     36
                      A                      A                      A
 Frequencies --   1400.5018              1415.8500              1428.4725
 Red. masses --      1.2785                 1.5204                 1.2472
 Frc consts  --      1.4775                 1.7957                 1.4994
 IR Inten    --      2.8457                21.2435                 2.0681

                     37                     38                     39
                      A                      A                      A
 Frequencies --   1449.1868              1482.4588              1493.6615
 Red. masses --      1.0911                 1.0656                 1.0683
 Frc consts  --      1.3501                 1.3798                 1.4043
 IR Inten    --      1.8531                 2.7665                 1.1846

                     40                     41                     42
                      A                      A                      A
 Frequencies --   1498.7398              1827.1441              2865.6358
 Red. masses --      1.6331                10.4158                 1.0823
 Frc consts  --      2.1613                20.4875                 5.2365
 IR Inten    --     27.1377               149.4496               114.6259

                     43                     44                     45
                      A                      A                      A
 Frequencies --   3033.9758              3049.3347              3060.6444
 Red. masses --      1.0352                 1.0842                 1.0854
 Frc consts  --      5.6141                 5.9400                 5.9903
 IR Inten    --     13.8367                11.1919                14.4067

                     46                     47                     48
                      A                      A                      A
 Frequencies --   3107.9438              3114.4742              3126.9493
 Red. masses --      1.1008                 1.1021                 1.0527
 Frc consts  --      6.2649                 6.2983                 6.0648
 IR Inten    --     19.5606                23.9089                10.4731

                     49                     50                     51
                      A                      A                      A
 Frequencies --   3132.1176              3211.6869              3225.8910
 Red. masses --      1.0563                 1.1179                 1.1151
 Frc consts  --      6.1053                 6.7937                 6.8369
 IR Inten    --      5.1611                 0.3572                 7.4736

 - Thermochemistry -
 -------------------
 Temperature   298.150 Kelvin.  Pressure   1.00000 Atm.
 Atom     1 has atomic number  6 and mass  12.00000

 Molecular mass:   126.06808 amu.
 Principal axes and moments of inertia in atomic units:
                           1         2         3
     Eigenvalues --   908.845611103.159641712.66792
           X            0.97254   0.23273  -0.00319
           Y           -0.23275   0.97251  -0.00677
           Z            0.00153   0.00733   0.99997
 This molecule is an asymmetric top.
 Rotational symmetry number  1.
 Warning -- assumption of classical behavior for rotation
           may cause significant error
 Rotational temperatures (Kelvin)      0.09530     0.07851     0.05057
 Rotational constants (GHZ):           1.98575     1.63597     1.05376
 Zero-point vibrational energy     411126.3 (Joules/Mol)
                                   98.26155 (Kcal/Mol)
 Warning -- explicit consideration of  11 degrees of freedom as
           vibrations may cause significant error
 Vibrational temperatures:     68.62    90.95   245.78   287.41   316.56
          (Kelvin)            355.36   401.59   540.63   592.39   690.51
                              798.60   960.94  1085.10  1111.48  1228.38
                             1245.87  1258.92  1328.92  1342.43  1400.77
                             1467.78  1510.38  1538.32  1550.49  1556.41
                             1601.77  1637.36  1705.59  1731.02  1749.76
                             1852.30  1935.44  1947.39  2015.01  2037.09
                             2055.25  2085.05  2132.92  2149.04  2156.35
                             2628.85  4123.01  4365.21  4387.31  4403.58
                             4471.63  4481.03  4498.98  4506.41  4620.90
                             4641.33

 Zero-point correction=                           0.156590 (Hartree/Particle)
 Thermal correction to Energy=                    0.165708
 Thermal correction to Enthalpy=                  0.166652
 Thermal correction to Gibbs Free Energy=         0.121951
 Sum of electronic and zero-point Energies=           -423.004269
 Sum of electronic and thermal Energies=              -422.995151
 Sum of electronic and thermal Enthalpies=            -422.994207
 Sum of electronic and thermal Free Energies=         -423.038908

                     E (Thermal)             CV                S
                      KCal/Mol        Cal/Mol-Kelvin    Cal/Mol-Kelvin
 Total                  103.983             33.378             94.080
 Electronic               0.000              0.000              0.000
 Translational            0.889              2.981             40.409
 Rotational               0.889              2.981             28.931
 Vibrational            102.206             27.416             24.741
 Vibration     1          0.595              1.978              4.911
 Vibration     2          0.597              1.972              4.354
 Vibration     3          0.626              1.878              2.426
 Vibration     4          0.638              1.840              2.135
 Vibration     5          0.647              1.811              1.959
 Vibration     6          0.661              1.768              1.752
 Vibration     7          0.679              1.712              1.539
 Vibration     8          0.747              1.522              1.056
 Vibration     9          0.776              1.445              0.921
 Vibration    10          0.836              1.295              0.710
 Vibration    11          0.910              1.129              0.534

 Optimization completed.
    -- Stationary point found.
 Normal termination of Gaussian 09 at Tue Jan 28 04:40:44 2020.
