 Gaussian 09, Revision D.01,
 Gaussian 09:  ES64L-G09RevD.01 24-Apr-2013

 -----------------------------
 # b3lyp 6-31G(2df,p) opt Freq
 -----------------------------

 -----
 titel
 -----
 Symbolic Z-matrix:
 Charge =  0 Multiplicity = 1

 SCF Done:  E(RB3LYP) =  -423.086641442     A.U. after   14 cycles
 Optimization completed.
    -- Stationary point found.
 Normal termination of Gaussian 09 at Tue Jan 28 14:02:15 2020.

 ----------------------------------------------------------------------
 #N Geom=AllCheck Guess=TCheck SCRF=Check GenChk RB3LYP/6-31G(2df,p) Fr
 eq
 ----------------------------------------------------------------------

 Structure from the checkpoint file:  "/scratch/puck/g09_8bf044a3-4dd1-4539-b721-92adc21faf17/Gau-15425.chk"
 -----
 titel
 -----
 Charge =  0 Multiplicity = 1

                         Standard orientation:
 ---------------------------------------------------------------------
 Center     Atomic      Atomic             Coordinates (Angstroms)
 Number     Number       Type             X           Y           Z
 ---------------------------------------------------------------------
      1          6           0       -2.776143   -0.521287   -0.513807
      2          8           0       -1.814092   -0.522952    0.524182
      3          6           0       -0.508266   -0.613696    0.047143
      4          6           0        0.525582   -0.293066    1.088614
      5          6           0        1.965246   -0.499565    0.537317
      6          8           0        1.902003   -0.973942   -0.818458
      7          6           0        1.715176    0.428493   -0.561394
      8          6           0        0.259031    0.696100   -0.054362
      9          6           0       -0.366462    2.056748   -0.009465
     10          1           0       -2.705556   -1.432664   -1.125586
     11          1           0       -3.759270   -0.487334   -0.038803
     12          1           0       -2.665801    0.349553   -1.175022
     13          1           0       -0.341347   -1.412014   -0.672225
     14          1           0        0.264923   -0.198236    2.134477
     15          1           0        2.859638   -0.728407    1.104084
     16          1           0        2.359254    1.122789   -1.089631
     17          1           0       -1.321398    2.013104    0.521096
     18          1           0        0.273724    2.779701    0.509924
     19          1           0       -0.552438    2.446296   -1.018366
 ---------------------------------------------------------------------

 SCF Done:  E(RB3LYP) =  -423.086641442     A.U. after    1 cycles

 The electronic state is 1-A.
 Alpha  occ. eigenvalues --  -19.15232 -19.14782 -10.24000 -10.23739 -10.23391
 Alpha  occ. eigenvalues --  -10.22598 -10.19697 -10.18888 -10.18128  -1.07763
 Alpha  occ. eigenvalues --   -1.04149  -0.86510  -0.72505  -0.70747  -0.65847
 Alpha  occ. eigenvalues --   -0.63697  -0.56520  -0.54209  -0.51618  -0.49290
 Alpha  occ. eigenvalues --   -0.47093  -0.45054  -0.43472  -0.41775  -0.40663
 Alpha  occ. eigenvalues --   -0.39962  -0.38873  -0.35581  -0.34124  -0.33654
 Alpha  occ. eigenvalues --   -0.30150  -0.26240  -0.25114  -0.22098
 Alpha virt. eigenvalues --    0.06388   0.08253   0.10499   0.10822   0.13150
 Alpha virt. eigenvalues --    0.13713   0.14655   0.14947   0.15637   0.16529
 Alpha virt. eigenvalues --    0.17291   0.17910   0.19125   0.20539   0.21234

 Mulliken charges:
               1
     1  C   -0.240899
     2  O   -0.255861
     3  C    0.077692
     4  C   -0.211047
     5  C    0.018826
     6  O   -0.245949
     7  C   -0.045132
     8  C    0.259150
     9  C   -0.504045
    10  H    0.112896
    11  H    0.127600
    12  H    0.111076
    13  H    0.109004
    14  H    0.099477
    15  H    0.110893
    16  H    0.105569
    17  H    0.137740
    18  H    0.116863
    19  H    0.116147
 Sum of Mulliken charges =   0.00000

 Dipole moment (field-independent basis, Debye):
    X=             -0.2639    Y=              1.4102    Z=              0.0842  Tot=              1.4372
 Quadrupole moment (field-independent basis, Debye-Ang):
   XX=            -49.7893   YY=            -53.7838   ZZ=            -53.0687
   XY=              2.4541   XZ=              4.8624   YZ=             -1.3345

  Exact polarizability:  87.218  -0.431  72.321   2.496  -3.142  66.326
 Approx polarizability: 111.291  -1.733 108.373   1.181  -5.468 108.663

                      1                      2                      3
                      A                      A                      A
 Frequencies --     98.3566               165.2384               171.5448
 Red. masses --      2.6380                 2.5523                 1.3063
 Frc consts  --      0.0150                 0.0411                 0.0226
 IR Inten    --      3.4009                 2.6703                 0.9297

                      4                      5                      6
                      A                      A                      A
 Frequencies --    214.6890               225.7402               259.7891
 Red. masses --      1.9021                 1.2334                 2.9118
 Frc consts  --      0.0517                 0.0370                 0.1158
 IR Inten    --      2.5444                 0.7666                 2.0084

                      7                      8                      9
                      A                      A                      A
 Frequencies --    318.9282               410.5949               414.1759
 Red. masses --      4.0755                 3.3167                 3.3873
 Frc consts  --      0.2442                 0.3294                 0.3424
 IR Inten    --      0.9350                 1.1409                 4.1169

                     10                     11                     12
                      A                      A                      A
 Frequencies --    456.0774               609.3377               679.1111
 Red. masses --      4.7424                 4.4324                 4.3401
 Frc consts  --      0.5812                 0.9696                 1.1793
 IR Inten    --      3.2531                19.9493                 3.0098

                     13                     14                     15
                      A                      A                      A
 Frequencies --    759.9163               795.5819               816.5994
 Red. masses --      3.6275                 5.1448                 2.2403
 Frc consts  --      1.2342                 1.9186                 0.8802
 IR Inten    --      1.0314                 2.4373                13.5217

                     16                     17                     18
                      A                      A                      A
 Frequencies --    861.2546               873.5642               909.7373
 Red. masses --      2.4209                 2.0841                 1.3692
 Frc consts  --      1.0580                 0.9371                 0.6676
 IR Inten    --      6.0504                10.2564                14.0574

                     19                     20                     21
                      A                      A                      A
 Frequencies --    932.1185               978.5496              1032.0133
 Red. masses --      2.7878                 2.6544                 2.4127
 Frc consts  --      1.4271                 1.4975                 1.5140
 IR Inten    --      9.2048                26.9950                21.0145

                     22                     23                     24
                      A                      A                      A
 Frequencies --   1040.2311              1063.5714              1106.9352
 Red. masses --      1.5260                 1.9965                 1.3094
 Frc consts  --      0.9729                 1.3306                 0.9453
 IR Inten    --      7.8678                 3.4056                15.9930

                     25                     26                     27
                      A                      A                      A
 Frequencies --   1116.7188              1165.2593              1180.8704
 Red. masses --      1.9365                 2.6104                 1.5036
 Frc consts  --      1.4228                 2.0883                 1.2354
 IR Inten    --      4.6701                90.0036                19.8768

                     28                     29                     30
                      A                      A                      A
 Frequencies --   1183.3241              1189.9286              1236.0826
 Red. masses --      1.3692                 1.6562                 1.7886
 Frc consts  --      1.1296                 1.3817                 1.6101
 IR Inten    --      4.2721                 1.5327                15.3048

                     31                     32                     33
                      A                      A                      A
 Frequencies --   1246.3024              1262.9297              1337.0617
 Red. masses --      1.4331                 1.8366                 2.1709
 Frc consts  --      1.3115                 1.7259                 2.2867
 IR Inten    --      5.4823                55.6738                 8.6118

                     34                     35                     36
                      A                      A                      A
 Frequencies --   1364.8268              1410.5046              1433.9820
 Red. masses --      3.0879                 1.3122                 3.3064
 Frc consts  --      3.3890                 1.5381                 4.0058
 IR Inten    --     35.1271                 3.5624                21.5763

                     37                     38                     39
                      A                      A                      A
 Frequencies --   1482.3812              1485.7103              1492.1906
 Red. masses --      1.1663                 1.0891                 1.0476
 Frc consts  --      1.5099                 1.4164                 1.3743
 IR Inten    --      3.0192                 2.3849                 5.2185

                     40                     41                     42
                      A                      A                      A
 Frequencies --   1498.6234              1508.5381              2988.5936
 Red. masses --      1.0600                 1.0572                 1.0353
 Frc consts  --      1.4026                 1.4174                 5.4483
 IR Inten    --      6.1131                 7.0205                54.9397

                     43                     44                     45
                      A                      A                      A
 Frequencies --   3017.2477              3040.7991              3068.9508
 Red. masses --      1.0383                 1.1032                 1.1001
 Frc consts  --      5.5694                 6.0102                 6.1049
 IR Inten    --     38.3199                52.3884                25.8656

                     46                     47                     48
                      A                      A                      A
 Frequencies --   3114.5496              3120.1415              3130.4617
 Red. masses --      1.0971                 1.0981                 1.0874
 Frc consts  --      6.2705                 6.2988                 6.2784
 IR Inten    --     12.5589                25.8054                14.1427

                     49                     50                     51
                      A                      A                      A
 Frequencies --   3174.3472              3192.0214              3207.3856
 Red. masses --      1.0884                 1.0990                 1.0947
 Frc consts  --      6.4615                 6.5974                 6.6349
 IR Inten    --     15.7735                23.9589                 5.8013

 - Thermochemistry -
 -------------------
 Temperature   298.150 Kelvin.  Pressure   1.00000 Atm.
 Atom     1 has atomic number  6 and mass  12.00000

 Molecular mass:   126.06808 amu.
 Principal axes and moments of inertia in atomic units:
                           1         2         3
     Eigenvalues --   590.876381391.763731616.11702
           X            0.99959   0.01041   0.02674
           Y           -0.01030   0.99994  -0.00427
           Z           -0.02678   0.00399   0.99963
 This molecule is an asymmetric top.
 Rotational symmetry number  1.
 Warning -- assumption of classical behavior for rotation
           may cause significant error
 Rotational temperatures (Kelvin)      0.14659     0.06223     0.05359
 Rotational constants (GHZ):           3.05435     1.29673     1.11671
 Zero-point vibrational energy     411774.9 (Joules/Mol)
                                   98.41656 (Kcal/Mol)
 Warning -- explicit consideration of  11 degrees of freedom as
           vibrations may cause significant error
 Vibrational temperatures:    141.51   237.74   246.81   308.89   324.79
          (Kelvin)            373.78   458.87   590.75   595.91   656.19
                              876.70   977.09  1093.35  1144.66  1174.90
                             1239.15  1256.86  1308.91  1341.11  1407.91
                             1484.84  1496.66  1530.24  1592.63  1606.71
                             1676.55  1699.01  1702.54  1712.04  1778.44
                             1793.15  1817.07  1923.73  1963.68  2029.40
                             2063.18  2132.81  2137.60  2146.93  2156.18
                             2170.45  4299.91  4341.14  4375.03  4415.53
                             4481.14  4489.18  4504.03  4567.17  4592.60
                             4614.71

 Zero-point correction=                           0.156837 (Hartree/Particle)
 Thermal correction to Energy=                    0.165508
 Thermal correction to Enthalpy=                  0.166452
 Thermal correction to Gibbs Free Energy=         0.123762
 Sum of electronic and zero-point Energies=           -422.929805
 Sum of electronic and thermal Energies=              -422.921133
 Sum of electronic and thermal Enthalpies=            -422.920189
 Sum of electronic and thermal Free Energies=         -422.962880

                     E (Thermal)             CV                S
                      KCal/Mol        Cal/Mol-Kelvin    Cal/Mol-Kelvin
 Total                  103.858             32.996             89.850
 Electronic               0.000              0.000              0.000
 Translational            0.889              2.981             40.409
 Rotational               0.889              2.981             28.676
 Vibrational            102.081             27.035             20.765
 Vibration     1          0.604              1.950              3.487
 Vibration     2          0.624              1.885              2.489
 Vibration     3          0.626              1.878              2.418
 Vibration     4          0.645              1.819              2.003
 Vibration     5          0.650              1.802              1.913
 Vibration     6          0.668              1.746              1.663
 Vibration     7          0.705              1.637              1.316
 Vibration     8          0.775              1.447              0.925
 Vibration     9          0.778              1.439              0.912
 Vibration    10          0.814              1.347              0.778
 Vibration    11          0.968              1.012              0.434

 Normal termination of Gaussian 09 at Tue Jan 28 15:26:55 2020.
