 Gaussian 09, Revision D.01,
 Gaussian 09:  ES64L-G09RevD.01 24-Apr-2013

 -----------------------------
 # b3lyp 6-31G(2df,p) opt Freq
 -----------------------------

 -----
 titel
 -----
 Symbolic Z-matrix:
 Charge =  0 Multiplicity = 1

 SCF Done:  E(RB3LYP) =  -423.174023248     A.U. after   13 cycles
 Optimization completed.
    -- Stationary point found.
 Normal termination of Gaussian 09 at Tue Jan 28 12:39:10 2020.

 ----------------------------------------------------------------------
 #N Geom=AllCheck Guess=TCheck SCRF=Check GenChk RB3LYP/6-31G(2df,p) Fr
 eq
 ----------------------------------------------------------------------

 Structure from the checkpoint file:  "/scratch/puck/g09_bf22c061-be00-4ef4-a71c-6697c9be7eb0/Gau-116068.chk"
 -----
 titel
 -----
 Charge =  0 Multiplicity = 1

                         Standard orientation:
 ---------------------------------------------------------------------
 Center     Atomic      Atomic             Coordinates (Angstroms)
 Number     Number       Type             X           Y           Z
 ---------------------------------------------------------------------
      1          8           0       -3.219465   -0.157996    0.583449
      2          6           0       -2.349539   -0.592849   -0.460143
      3          6           0       -0.940891   -0.122773   -0.260111
      4          6           0        0.153131   -0.884851   -0.176302
      5          6           0        1.375220   -0.072537    0.044913
      6          6           0        2.559072   -0.559621    0.771818
      7          8           0        2.579346   -0.441532   -0.650651
      8          6           0        0.930641    1.395149   -0.004068
      9          6           0       -0.617519    1.347714   -0.083394
     10          1           0       -2.887955   -0.534347    1.405680
     11          1           0       -2.373776   -1.686277   -0.577253
     12          1           0       -2.767197   -0.155841   -1.375646
     13          1           0        0.184967   -1.965741   -0.258621
     14          1           0        3.182395    0.153068    1.312595
     15          1           0        2.583587   -1.578401    1.159752
     16          1           0        1.287915    1.963744    0.858008
     17          1           0        1.361362    1.855546   -0.897610
     18          1           0       -1.092500    1.736090    0.824330
     19          1           0       -1.018531    1.946996   -0.909896
 ---------------------------------------------------------------------

 SCF Done:  E(RB3LYP) =  -423.174023248     A.U. after    1 cycles

 The electronic state is 1-A.
 Alpha  occ. eigenvalues --  -19.14487 -19.14019 -10.24121 -10.23430 -10.22965
 Alpha  occ. eigenvalues --  -10.19285 -10.18841 -10.18607 -10.18400  -1.06438
 Alpha  occ. eigenvalues --   -1.01940  -0.84459  -0.73734  -0.70485  -0.66316
 Alpha  occ. eigenvalues --   -0.64689  -0.56996  -0.53763  -0.51365  -0.48011
 Alpha  occ. eigenvalues --   -0.46775  -0.46310  -0.44370  -0.43221  -0.39337
 Alpha  occ. eigenvalues --   -0.37092  -0.35852  -0.35840  -0.35279  -0.33143
 Alpha  occ. eigenvalues --   -0.31858  -0.27657  -0.26239  -0.24063
 Alpha virt. eigenvalues --    0.00186   0.07979   0.09710   0.10202   0.11535
 Alpha virt. eigenvalues --    0.12367   0.13557   0.14203   0.15640   0.17646
 Alpha virt. eigenvalues --    0.18186   0.18551   0.20050   0.21217   0.21794

 Mulliken charges:
               1
     1  O   -0.411328
     2  C   -0.166996
     3  C    0.282257
     4  C   -0.266260
     5  C    0.447886
     6  C   -0.250295
     7  O   -0.279919
     8  C   -0.324104
     9  C   -0.305802
    10  H    0.282755
    11  H    0.094790
    12  H    0.117359
    13  H    0.098863
    14  H    0.110650
    15  H    0.107801
    16  H    0.107591
    17  H    0.126443
    18  H    0.117894
    19  H    0.110413
 Sum of Mulliken charges =   0.00000

 Dipole moment (field-independent basis, Debye):
    X=             -0.1367    Y=             -0.2942    Z=              1.6548  Tot=              1.6863
 Quadrupole moment (field-independent basis, Debye-Ang):
   XX=            -62.9452   YY=            -50.1871   ZZ=            -50.9452
   XY=              2.8567   XZ=              4.5325   YZ=             -1.9314

  Exact polarizability: 102.021  -6.251  75.696   7.179  -1.329  61.386
 Approx polarizability: 140.855 -17.457 110.672   5.664  -1.807  97.791

                      1                      2                      3
                      A                      A                      A
 Frequencies --     32.6947                71.5943               126.6089
 Red. masses --      2.4397                 3.0412                 3.9286
 Frc consts  --      0.0015                 0.0092                 0.0371
 IR Inten    --      0.9428                 2.0537                 3.4139

                      4                      5                      6
                      A                      A                      A
 Frequencies --    221.5940               271.2307               330.6930
 Red. masses --      3.0680                 2.5145                 2.4574
 Frc consts  --      0.0888                 0.1090                 0.1583
 IR Inten    --      2.9563                16.4249                 8.6986

                      7                      8                      9
                      A                      A                      A
 Frequencies --    353.9073               405.8129               458.4767
 Red. masses --      1.5577                 1.8959                 4.2563
 Frc consts  --      0.1150                 0.1840                 0.5271
 IR Inten    --     65.3333                40.3012                 0.8444

                     10                     11                     12
                      A                      A                      A
 Frequencies --    515.3514               539.6115               653.6387
 Red. masses --      2.2846                 4.9916                 3.6984
 Frc consts  --      0.3575                 0.8564                 0.9310
 IR Inten    --      7.5610                 7.1538                11.6106

                     13                     14                     15
                      A                      A                      A
 Frequencies --    767.2656               824.3894               849.4880
 Red. masses --      2.0346                 5.5381                 2.2001
 Frc consts  --      0.7057                 2.2176                 0.9354
 IR Inten    --     14.7443                 9.0008                10.6598

                     16                     17                     18
                      A                      A                      A
 Frequencies --    873.3695               884.2905               917.8520
 Red. masses --      2.0392                 1.7521                 1.4289
 Frc consts  --      0.9164                 0.8072                 0.7093
 IR Inten    --      5.7850                12.7838                 4.3206

                     19                     20                     21
                      A                      A                      A
 Frequencies --    965.6039               970.5762               996.5723
 Red. masses --      3.4307                 1.8339                 2.2916
 Frc consts  --      1.8846                 1.0178                 1.3409
 IR Inten    --     30.2491                 8.8001                 7.3126

                     22                     23                     24
                      A                      A                      A
 Frequencies --   1049.7137              1053.9397              1127.6453
 Red. masses --      4.1143                 2.1442                 1.2643
 Frc consts  --      2.6711                 1.4033                 0.9472
 IR Inten    --     86.2099                 4.4578                 2.1143

                     25                     26                     27
                      A                      A                      A
 Frequencies --   1147.2745              1163.2935              1175.5437
 Red. masses --      1.6364                 1.2684                 1.6770
 Frc consts  --      1.2691                 1.0113                 1.3654
 IR Inten    --      1.2288                 2.5791                13.4683

                     28                     29                     30
                      A                      A                      A
 Frequencies --   1193.7538              1234.3520              1243.8358
 Red. masses --      1.1471                 1.7054                 1.2083
 Frc consts  --      0.9631                 1.5309                 1.1014
 IR Inten    --     16.2119                 4.9345                 1.3795

                     31                     32                     33
                      A                      A                      A
 Frequencies --   1274.5975              1304.9832              1343.7802
 Red. masses --      1.4384                 2.3926                 2.2383
 Frc consts  --      1.3768                 2.4007                 2.3813
 IR Inten    --      0.8040                 2.2326                 0.6862

                     34                     35                     36
                      A                      A                      A
 Frequencies --   1370.5279              1412.8674              1421.7413
 Red. masses --      1.3606                 1.2786                 2.3568
 Frc consts  --      1.5058                 1.5038                 2.8068
 IR Inten    --      3.8170                48.2839                46.6146

                     37                     38                     39
                      A                      A                      A
 Frequencies --   1478.9764              1495.0139              1499.2405
 Red. masses --      1.0781                 1.0892                 1.0953
 Frc consts  --      1.3894                 1.4343                 1.4506
 IR Inten    --      0.4133                 1.9088                 1.9854

                     40                     41                     42
                      A                      A                      A
 Frequencies --   1526.2461              1710.6711              2995.0900
 Red. masses --      1.3425                 7.5992                 1.0643
 Frc consts  --      1.8425                13.1024                 5.6253
 IR Inten    --      3.2108                 1.6349                54.3608

                     43                     44                     45
                      A                      A                      A
 Frequencies --   3033.1409              3052.1474              3061.1491
 Red. masses --      1.0623                 1.0974                 1.1001
 Frc consts  --      5.7580                 6.0231                 6.0739
 IR Inten    --     28.2515                29.1267                11.3928

                     46                     47                     48
                      A                      A                      A
 Frequencies --   3064.9934              3067.1383              3107.4850
 Red. masses --      1.0605                 1.0499                 1.1050
 Frc consts  --      5.8697                 5.8195                 6.2867
 IR Inten    --     21.2322                33.4796                18.9222

                     49                     50                     51
                      A                      A                      A
 Frequencies --   3151.8718              3195.0380              3808.0228
 Red. masses --      1.1192                 1.0945                 1.0662
 Frc consts  --      6.5508                 6.5831                 9.1098
 IR Inten    --     25.3648                 7.9006                15.3377

 - Thermochemistry -
 -------------------
 Temperature   298.150 Kelvin.  Pressure   1.00000 Atm.
 Atom     1 has atomic number  8 and mass  15.99491

 Molecular mass:   126.06808 amu.
 Principal axes and moments of inertia in atomic units:
                           1         2         3
     Eigenvalues --   441.279451941.927192143.97690
           X            0.99983   0.00781   0.01678
           Y           -0.00753   0.99984  -0.01631
           Z           -0.01691   0.01618   0.99973
 This molecule is an asymmetric top.
 Rotational symmetry number  1.
 Warning -- assumption of classical behavior for rotation
           may cause significant error
 Rotational temperatures (Kelvin)      0.19628     0.04460     0.04040
 Rotational constants (GHZ):           4.08979     0.92936     0.84177
 Zero-point vibrational energy     417465.0 (Joules/Mol)
                                   99.77653 (Kcal/Mol)
 Warning -- explicit consideration of  11 degrees of freedom as
           vibrations may cause significant error
 Vibrational temperatures:     47.04   103.01   182.16   318.82   390.24
          (Kelvin)            475.79   509.19   583.87   659.64   741.47
                              776.38   940.44  1103.92  1186.11  1222.22
                             1256.58  1272.30  1320.58  1389.29  1396.44
                             1433.84  1510.30  1516.38  1622.43  1650.67
                             1673.72  1691.34  1717.54  1775.95  1789.60
                             1833.86  1877.58  1933.40  1971.88  2032.80
                             2045.57  2127.91  2150.99  2157.07  2195.93
                             2461.27  4309.26  4364.01  4391.35  4404.31
                             4409.84  4412.92  4470.97  4534.83  4596.94
                             5478.89

 Zero-point correction=                           0.159004 (Hartree/Particle)
 Thermal correction to Energy=                    0.167789
 Thermal correction to Enthalpy=                  0.168733
 Thermal correction to Gibbs Free Energy=         0.124373
 Sum of electronic and zero-point Energies=           -423.015019
 Sum of electronic and thermal Energies=              -423.006235
 Sum of electronic and thermal Enthalpies=            -423.005290
 Sum of electronic and thermal Free Energies=         -423.049650

                     E (Thermal)             CV                S
                      KCal/Mol        Cal/Mol-Kelvin    Cal/Mol-Kelvin
 Total                  105.289             32.544             93.363
 Electronic               0.000              0.000              0.000
 Translational            0.889              2.981             40.409
 Rotational               0.889              2.981             28.998
 Vibrational            103.511             26.582             23.957
 Vibration     1          0.594              1.983              5.659
 Vibration     2          0.598              1.968              4.109
 Vibration     3          0.611              1.927              2.997
 Vibration     4          0.648              1.808              1.946
 Vibration     5          0.675              1.726              1.588
 Vibration     6          0.713              1.614              1.257
 Vibration     7          0.730              1.567              1.149
 Vibration     8          0.771              1.458              0.942
 Vibration     9          0.816              1.342              0.771
 Vibration    10          0.870              1.216              0.621
 Vibration    11          0.895              1.162              0.566

 Normal termination of Gaussian 09 at Tue Jan 28 13:19:32 2020.
