 Gaussian 09, Revision D.01,
 Gaussian 09:  ES64L-G09RevD.01 24-Apr-2013

 -----------------------------
 # b3lyp 6-31G(2df,p) opt Freq
 -----------------------------

 -----
 titel
 -----
 Symbolic Z-matrix:
 Charge =  0 Multiplicity = 1

 SCF Done:  E(RB3LYP) =  -423.158788933     A.U. after   14 cycles
 Optimization completed.
    -- Stationary point found.
 Normal termination of Gaussian 09 at Tue Jan 28 08:20:46 2020.

 ----------------------------------------------------------------------
 #N Geom=AllCheck Guess=TCheck SCRF=Check GenChk RB3LYP/6-31G(2df,p) Fr
 eq
 ----------------------------------------------------------------------

 Structure from the checkpoint file:  "/scratch/puck/g09_f1386046-2d0a-459a-ab59-1f72c409bdb5/Gau-79814.chk"
 -----
 titel
 -----
 Charge =  0 Multiplicity = 1

                         Standard orientation:
 ---------------------------------------------------------------------
 Center     Atomic      Atomic             Coordinates (Angstroms)
 Number     Number       Type             X           Y           Z
 ---------------------------------------------------------------------
      1          6           0       -0.593905    2.244096   -0.181831
      2          6           0        0.033605    0.938065    0.271127
      3          8           0        1.424097    0.999239   -0.033001
      4          6           0        2.106519   -0.160428    0.358278
      5          8           0        1.648951   -1.305640   -0.311092
      6          6           0        0.283062   -1.544691   -0.030017
      7          6           0       -0.573760   -0.315474   -0.415700
      8          6           0       -1.968673   -0.525341   -0.059099
      9          6           0       -3.109308   -0.720436    0.268118
     10          1           0       -0.119411    3.085938    0.328991
     11          1           0       -0.458678    2.376454   -1.259700
     12          1           0       -1.663305    2.249240    0.042090
     13          1           0       -0.092035    0.817511    1.361041
     14          1           0        3.154418   -0.025315    0.084596
     15          1           0        2.008749   -0.303310    1.452073
     16          1           0       -0.015715   -2.424147   -0.604038
     17          1           0        0.139695   -1.763296    1.040804
     18          1           0       -0.481418   -0.169376   -1.499655
     19          1           0       -4.121915   -0.887226    0.541289
 ---------------------------------------------------------------------

 SCF Done:  E(RB3LYP) =  -423.158788933     A.U. after    1 cycles

 The electronic state is 1-A.
 Alpha  occ. eigenvalues --  -19.15022 -19.14855 -10.27541 -10.24460 -10.23922
 Alpha  occ. eigenvalues --  -10.21445 -10.18760 -10.17915 -10.17765  -1.07959
 Alpha  occ. eigenvalues --   -1.01217  -0.82732  -0.75091  -0.72539  -0.68334
 Alpha  occ. eigenvalues --   -0.63548  -0.59047  -0.53803  -0.51043  -0.50277
 Alpha  occ. eigenvalues --   -0.48776  -0.47788  -0.45856  -0.41687  -0.40301
 Alpha  occ. eigenvalues --   -0.38651  -0.37882  -0.36475  -0.33971  -0.32474
 Alpha  occ. eigenvalues --   -0.29164  -0.27633  -0.26972  -0.25315
 Alpha virt. eigenvalues --    0.04453   0.04810   0.09616   0.11009   0.11470
 Alpha virt. eigenvalues --    0.12404   0.13236   0.14488   0.14852   0.16621
 Alpha virt. eigenvalues --    0.17175   0.18113   0.18577   0.20168   0.22754

 Mulliken charges:
               1
     1  C   -0.409865
     2  C    0.122351
     3  O   -0.246725
     4  C    0.008023
     5  O   -0.230196
     6  C   -0.105468
     7  C   -0.193370
     8  C    0.312568
     9  C   -0.451828
    10  H    0.125648
    11  H    0.126446
    12  H    0.133341
    13  H    0.074993
    14  H    0.119502
    15  H    0.076417
    16  H    0.124595
    17  H    0.100025
    18  H    0.115361
    19  H    0.198182
 Sum of Mulliken charges =   0.00000

 Dipole moment (field-independent basis, Debye):
    X=             -0.9590    Y=              0.0216    Z=              0.9222  Tot=              1.3306
 Quadrupole moment (field-independent basis, Debye-Ang):
   XX=            -50.5984   YY=            -54.5877   ZZ=            -52.9367
   XY=              0.8518   XZ=              0.8994   YZ=             -0.3840

  Exact polarizability:  99.863   3.807  72.445  -3.172  -1.021  60.213
 Approx polarizability: 144.206   8.115  97.549 -12.360  -1.716  95.603

                      1                      2                      3
                      A                      A                      A
 Frequencies --    101.4315               137.5325               178.8152
 Red. masses --      3.1524                 3.7941                 3.8712
 Frc consts  --      0.0191                 0.0423                 0.0729
 IR Inten    --      0.4690                 0.1612                 0.9452

                      4                      5                      6
                      A                      A                      A
 Frequencies --    217.9867               272.1271               301.4273
 Red. masses --      1.0563                 2.7378                 2.8032
 Frc consts  --      0.0296                 0.1195                 0.1501
 IR Inten    --      0.0990                 1.2177                 1.2374

                      7                      8                      9
                      A                      A                      A
 Frequencies --    377.5971               416.5348               456.2477
 Red. masses --      2.0586                 5.1899                 3.6392
 Frc consts  --      0.1729                 0.5305                 0.4463
 IR Inten    --      4.5984                 4.8739                 6.6749

                     10                     11                     12
                      A                      A                      A
 Frequencies --    481.8534               509.0552               532.4016
 Red. masses --      4.8427                 5.5249                 3.8990
 Frc consts  --      0.6625                 0.8435                 0.6511
 IR Inten    --      7.3453                 1.7409                 3.4004

                     13                     14                     15
                      A                      A                      A
 Frequencies --    640.2124               648.6306               681.4772
 Red. masses --      1.2317                 1.2487                 4.0925
 Frc consts  --      0.2974                 0.3095                 1.1198
 IR Inten    --     40.5066                40.6428                 8.8691

                     16                     17                     18
                      A                      A                      A
 Frequencies --    832.5017               879.3194               966.9411
 Red. masses --      2.2314                 2.2854                 3.9966
 Frc consts  --      0.9112                 1.0411                 2.2016
 IR Inten    --      3.9477                15.7439                42.9774

                     19                     20                     21
                      A                      A                      A
 Frequencies --    981.1358              1025.8266              1040.7105
 Red. masses --      1.3103                 2.8674                 4.5610
 Frc consts  --      0.7432                 1.7778                 2.9105
 IR Inten    --      1.6585                11.5486                11.0316

                     22                     23                     24
                      A                      A                      A
 Frequencies --   1060.1648              1093.1767              1103.2542
 Red. masses --      7.2484                 2.7120                 2.0598
 Frc consts  --      4.8000                 1.9095                 1.4772
 IR Inten    --     95.4545                10.8012                37.0544

                     25                     26                     27
                      A                      A                      A
 Frequencies --   1147.9053              1185.2630              1216.0232
 Red. masses --      2.4540                 2.9630                 2.0723
 Frc consts  --      1.9051                 2.4525                 1.8055
 IR Inten    --     56.1713                96.6897                92.2922

                     28                     29                     30
                      A                      A                      A
 Frequencies --   1253.1554              1285.9256              1307.0052
 Red. masses --      1.3208                 1.3889                 1.2114
 Frc consts  --      1.2221                 1.3532                 1.2192
 IR Inten    --     17.2789                 1.9317                 1.4832

                     31                     32                     33
                      A                      A                      A
 Frequencies --   1332.1406              1365.8360              1375.4269
 Red. masses --      1.1670                 1.1791                 1.3564
 Frc consts  --      1.2202                 1.2960                 1.5119
 IR Inten    --      2.3734                 4.8522                 7.0156

                     34                     35                     36
                      A                      A                      A
 Frequencies --   1401.3359              1411.3678              1444.3011
 Red. masses --      1.3314                 1.3518                 1.2147
 Frc consts  --      1.5404                 1.5865                 1.4929
 IR Inten    --     14.7071                18.3470                13.7594

                     37                     38                     39
                      A                      A                      A
 Frequencies --   1484.3770              1493.2610              1499.2758
 Red. masses --      1.0459                 1.0708                 1.0673
 Frc consts  --      1.3577                 1.4068                 1.4135
 IR Inten    --      4.6176                 1.7162                 2.2682

                     40                     41                     42
                      A                      A                      A
 Frequencies --   1508.7741              2233.3168              2916.0832
 Red. masses --      1.1124                 5.9518                 1.0705
 Frc consts  --      1.4920                17.4903                 5.3633
 IR Inten    --      6.1488                 3.1613                71.7190

                     43                     44                     45
                      A                      A                      A
 Frequencies --   2956.9898              2979.4687              3032.2637
 Red. masses --      1.0814                 1.0701                 1.0818
 Frc consts  --      5.5709                 5.5969                 5.8605
 IR Inten    --     27.9397                47.0216                16.7704

                     46                     47                     48
                      A                      A                      A
 Frequencies --   3047.8006              3108.7976              3118.1358
 Red. masses --      1.0354                 1.0940                 1.0935
 Frc consts  --      5.6666                 6.2294                 6.2643
 IR Inten    --     14.7580                23.2497                36.2942

                     49                     50                     51
                      A                      A                      A
 Frequencies --   3120.6708              3134.6499              3503.4927
 Red. masses --      1.1016                 1.1019                 1.1616
 Frc consts  --      6.3206                 6.3792                 8.4004
 IR Inten    --     20.1019                13.9444                73.2914

 - Thermochemistry -
 -------------------
 Temperature   298.150 Kelvin.  Pressure   1.00000 Atm.
 Atom     1 has atomic number  6 and mass  12.00000

 Molecular mass:   126.06808 amu.
 Principal axes and moments of inertia in atomic units:
                           1         2         3
     Eigenvalues --   721.006131258.585691857.79066
           X            0.99985  -0.01617   0.00679
           Y            0.01624   0.99981  -0.01059
           Z           -0.00661   0.01070   0.99992
 This molecule is an asymmetric top.
 Rotational symmetry number  1.
 Warning -- assumption of classical behavior for rotation
           may cause significant error
 Rotational temperatures (Kelvin)      0.12013     0.06882     0.04662
 Rotational constants (GHZ):           2.50309     1.43394     0.97144
 Zero-point vibrational energy     417493.1 (Joules/Mol)
                                   99.78326 (Kcal/Mol)
 Warning -- explicit consideration of  12 degrees of freedom as
           vibrations may cause significant error
 Vibrational temperatures:    145.94   197.88   257.27   313.63   391.53
          (Kelvin)            433.69   543.28   599.30   656.44   693.28
                              732.42   766.01   921.12   933.23   980.49
                             1197.78  1265.14  1391.21  1411.63  1475.93
                             1497.35  1525.34  1572.84  1587.33  1651.58
                             1705.33  1749.58  1803.01  1850.16  1880.49
                             1916.65  1965.13  1978.93  2016.21  2030.64
                             2078.02  2135.68  2148.47  2157.12  2170.79
                             3213.24  4195.59  4254.44  4286.79  4362.75
                             4385.10  4472.86  4486.30  4489.94  4510.06
                             5040.74

 Zero-point correction=                           0.159015 (Hartree/Particle)
 Thermal correction to Energy=                    0.167693
 Thermal correction to Enthalpy=                  0.168638
 Thermal correction to Gibbs Free Energy=         0.125912
 Sum of electronic and zero-point Energies=           -422.999774
 Sum of electronic and thermal Energies=              -422.991096
 Sum of electronic and thermal Enthalpies=            -422.990151
 Sum of electronic and thermal Free Energies=         -423.032877

                     E (Thermal)             CV                S
                      KCal/Mol        Cal/Mol-Kelvin    Cal/Mol-Kelvin
 Total                  105.229             33.247             89.924
 Electronic               0.000              0.000              0.000
 Translational            0.889              2.981             40.409
 Rotational               0.889              2.981             28.913
 Vibrational            103.452             27.285             20.602
 Vibration     1          0.604              1.948              3.427
 Vibration     2          0.614              1.916              2.838
 Vibration     3          0.629              1.868              2.341
 Vibration     4          0.646              1.814              1.976
 Vibration     5          0.675              1.725              1.583
 Vibration     6          0.693              1.671              1.409
 Vibration     7          0.748              1.518              1.049
 Vibration     8          0.780              1.434              0.904
 Vibration     9          0.814              1.347              0.777
 Vibration    10          0.838              1.290              0.705
 Vibration    11          0.864              1.230              0.636
 Vibration    12          0.887              1.178              0.582

 Optimization completed.
    -- Stationary point found.
 Normal termination of Gaussian 09 at Tue Jan 28 09:12:26 2020.
