 Gaussian 09, Revision D.01,
 Gaussian 09:  ES64L-G09RevD.01 24-Apr-2013

 -----------------------------
 # b3lyp 6-31G(2df,p) opt Freq
 -----------------------------

 -----
 titel
 -----
 Symbolic Z-matrix:
 Charge =  0 Multiplicity = 1

 SCF Done:  E(RB3LYP) =  -423.150578903     A.U. after   14 cycles
 Optimization completed.
    -- Stationary point found.
 Normal termination of Gaussian 09 at Mon Jan 27 14:05:55 2020.

 ----------------------------------------------------------------------
 #N Geom=AllCheck Guess=TCheck SCRF=Check GenChk RB3LYP/6-31G(2df,p) Fr
 eq
 ----------------------------------------------------------------------

 Structure from the checkpoint file:  "/scratch/puck/g09_9a158d53-d75f-4894-ad94-2e942fb2cf68/Gau-4564.chk"
 -----
 titel
 -----
 Charge =  0 Multiplicity = 1

                         Standard orientation:
 ---------------------------------------------------------------------
 Center     Atomic      Atomic             Coordinates (Angstroms)
 Number     Number       Type             X           Y           Z
 ---------------------------------------------------------------------
      1          6           0       -4.837265   -0.713310    0.019603
      2          6           0       -3.511650   -0.114300   -0.016163
      3          6           0       -2.412439    0.373718   -0.046877
      4          6           0       -1.095099    0.990345   -0.086747
      5          8           0       -0.086938   -0.002489    0.025828
      6          6           0        1.211600    0.544889   -0.001948
      7          6           0        2.210338   -0.607721    0.094925
      8          6           0        3.622910   -0.118534    0.318779
      9          8           0        4.568270   -0.400583   -0.370205
     10          1           0       -5.328389   -0.543949    0.983979
     11          1           0       -5.482460   -0.297490   -0.761960
     12          1           0       -4.781016   -1.795698   -0.139300
     13          1           0       -0.968930    1.552503   -1.028137
     14          1           0       -0.996321    1.724134    0.732165
     15          1           0        1.374904    1.116724   -0.930771
     16          1           0        1.353874    1.247492    0.838651
     17          1           0        1.925134   -1.220080    0.961729
     18          1           0        2.179598   -1.235714   -0.798097
     19          1           0        3.742575    0.546127    1.207322
 ---------------------------------------------------------------------

 SCF Done:  E(RB3LYP) =  -423.150578903     A.U. after    1 cycles

 The electronic state is 1-A.
 Alpha  occ. eigenvalues --  -19.15209 -19.14318 -10.27604 -10.25637 -10.24658
 Alpha  occ. eigenvalues --  -10.20736 -10.19798 -10.18167 -10.17280  -1.05031
 Alpha  occ. eigenvalues --   -1.04653  -0.80206  -0.77832  -0.73749  -0.67383
 Alpha  occ. eigenvalues --   -0.63714  -0.58170  -0.51222  -0.50310  -0.49727
 Alpha  occ. eigenvalues --   -0.46724  -0.45465  -0.43797  -0.43025  -0.42835
 Alpha  occ. eigenvalues --   -0.42687  -0.41073  -0.37749  -0.36189  -0.33494
 Alpha  occ. eigenvalues --   -0.27470  -0.26425  -0.25390  -0.25028
 Alpha virt. eigenvalues --   -0.02647   0.03457   0.05642   0.09103   0.10799
 Alpha virt. eigenvalues --    0.11210   0.12486   0.14359   0.14797   0.16440
 Alpha virt. eigenvalues --    0.17121   0.17823   0.18622   0.20226   0.20257

 Mulliken charges:
               1
     1  C   -0.498943
     2  C    0.139053
     3  C    0.000265
     4  C   -0.210690
     5  O   -0.242854
     6  C   -0.046650
     7  C   -0.281544
     8  C    0.152952
     9  O   -0.231789
    10  H    0.149611
    11  H    0.150481
    12  H    0.154752
    13  H    0.116617
    14  H    0.114389
    15  H    0.102393
    16  H    0.090524
    17  H    0.135153
    18  H    0.133266
    19  H    0.073015
 Sum of Mulliken charges =   0.00000

 Dipole moment (field-independent basis, Debye):
    X=             -2.7746    Y=              1.1118    Z=              1.0099  Tot=              3.1550
 Quadrupole moment (field-independent basis, Debye-Ang):
   XX=            -59.8399   YY=            -51.2085   ZZ=            -52.5839
   XY=              4.3782   XZ=              4.7969   YZ=             -0.6349

  Exact polarizability: 124.191  10.467  66.239  -2.063   2.334  61.511
 Approx polarizability: 155.114  18.244  98.974  -8.079   3.752  93.455

                      1                      2                      3
                      A                      A                      A
 Frequencies --     16.6025                38.1972                49.7256
 Red. masses --      1.0393                 3.7480                 5.3268
 Frc consts  --      0.0002                 0.0032                 0.0078
 IR Inten    --      0.1815                 1.1332                 1.9302

                      4                      5                      6
                      A                      A                      A
 Frequencies --     70.5638               103.4086               122.8489
 Red. masses --      3.4119                 2.6510                 3.4844
 Frc consts  --      0.0100                 0.0167                 0.0310
 IR Inten    --      5.0144                 1.4223                11.1363

                      7                      8                      9
                      A                      A                      A
 Frequencies --    177.0048               210.4708               277.6656
 Red. masses --      3.2979                 2.7332                 3.9054
 Frc consts  --      0.0609                 0.0713                 0.1774
 IR Inten    --      1.1733                 5.4899                 3.1892

                     10                     11                     12
                      A                      A                      A
 Frequencies --    348.3818               377.2912               383.2553
 Red. masses --      4.6856                 4.2203                 4.0389
 Frc consts  --      0.3351                 0.3540                 0.3495
 IR Inten    --      0.3990                 0.1626                 3.0044

                     13                     14                     15
                      A                      A                      A
 Frequencies --    518.6810               542.8086               782.7333
 Red. masses --      3.5454                 3.5769                 1.7415
 Frc consts  --      0.5620                 0.6209                 0.6286
 IR Inten    --      6.3965                13.5694                 1.1654

                     16                     17                     18
                      A                      A                      A
 Frequencies --    800.1479               874.2999               993.3375
 Red. masses --      2.1522                 1.3794                 4.4583
 Frc consts  --      0.8119                 0.6212                 2.5919
 IR Inten    --      1.6936                 4.0426                38.4794

                     19                     20                     21
                      A                      A                      A
 Frequencies --   1021.3516              1027.3189              1051.5310
 Red. masses --      3.0152                 1.6293                 1.4164
 Frc consts  --      1.8532                 1.0131                 0.9228
 IR Inten    --     12.8807                 3.4416                 0.8389

                     22                     23                     24
                      A                      A                      A
 Frequencies --   1057.1320              1113.4234              1132.0365
 Red. masses --      1.4101                 3.1461                 4.8515
 Frc consts  --      0.9284                 2.2980                 3.6631
 IR Inten    --      0.6920                12.8097               228.3448

                     25                     26                     27
                      A                      A                      A
 Frequencies --   1143.8567              1182.1847              1226.4952
 Red. masses --      2.5257                 3.7719                 1.2294
 Frc consts  --      1.9470                 3.1059                 1.0896
 IR Inten    --     22.9533                46.6992                 5.6095

                     28                     29                     30
                      A                      A                      A
 Frequencies --   1257.9276              1276.5649              1306.0444
 Red. masses --      1.0909                 1.3722                 1.1407
 Frc consts  --      1.0171                 1.3175                 1.1464
 IR Inten    --      5.5818                 2.9046                 3.5596

                     31                     32                     33
                      A                      A                      A
 Frequencies --   1386.1576              1414.1850              1431.5889
 Red. masses --      1.2972                 1.2447                 1.1986
 Frc consts  --      1.4685                 1.4666                 1.4473
 IR Inten    --    143.0125                 1.4751                 6.7879

                     34                     35                     36
                      A                      A                      A
 Frequencies --   1448.3241              1467.3697              1476.0342
 Red. masses --      1.4805                 1.0894                 1.0394
 Frc consts  --      1.8297                 1.3821                 1.3342
 IR Inten    --     13.2563                 4.9132                 5.8605

                     37                     38                     39
                      A                      A                      A
 Frequencies --   1478.5965              1499.2961              1529.5950
 Red. masses --      1.0400                 1.0817                 1.0877
 Frc consts  --      1.3396                 1.4326                 1.4994
 IR Inten    --      5.4681                 1.7238                 3.1117

                     40                     41                     42
                      A                      A                      A
 Frequencies --   1839.0964              2381.2355              2848.6450
 Red. masses --     10.1646                11.8508                 1.0813
 Frc consts  --     20.2559                39.5914                 5.1699
 IR Inten    --    189.8693                19.6214               104.0961

                     43                     44                     45
                      A                      A                      A
 Frequencies --   2941.5731              2951.8506              2966.1858
 Red. masses --      1.0571                 1.0577                 1.1019
 Frc consts  --      5.3890                 5.4299                 5.7121
 IR Inten    --     16.8826                85.0465                48.8908

                     46                     47                     48
                      A                      A                      A
 Frequencies --   2979.3053              3029.2840              3029.3745
 Red. masses --      1.0991                 1.0619                 1.0376
 Frc consts  --      5.7480                 5.7411                 5.6105
 IR Inten    --     36.6836                10.2651                26.1534

                     49                     50                     51
                      A                      A                      A
 Frequencies --   3090.6440              3092.3690              3119.6770
 Red. masses --      1.1005                 1.0999                 1.0970
 Frc consts  --      6.1934                 6.1972                 6.2905
 IR Inten    --      9.8622                 8.4571                10.9905

 - Thermochemistry -
 -------------------
 Temperature   298.150 Kelvin.  Pressure   1.00000 Atm.
 Atom     1 has atomic number  6 and mass  12.00000

 Molecular mass:   126.06808 amu.
 Principal axes and moments of inertia in atomic units:
                           1         2         3
     Eigenvalues --   203.589474292.831684414.70591
           X            0.99996   0.00869   0.00364
           Y           -0.00871   0.99995   0.00386
           Z           -0.00361  -0.00389   0.99999
 This molecule is an asymmetric top.
 Rotational symmetry number  1.
 Rotational temperatures (Kelvin)      0.42543     0.02018     0.01962
 Rotational constants (GHZ):           8.86461     0.42041     0.40880
 Zero-point vibrational energy     406034.6 (Joules/Mol)
                                   97.04459 (Kcal/Mol)
 Warning -- explicit consideration of  14 degrees of freedom as
           vibrations may cause significant error
 Vibrational temperatures:     23.89    54.96    71.54   101.53   148.78
          (Kelvin)            176.75   254.67   302.82   399.50   501.24
                              542.84   551.42   746.27   780.98  1126.18
                             1151.23  1257.92  1429.19  1469.50  1478.08
                             1512.92  1520.98  1601.97  1628.75  1645.75
                             1700.90  1764.65  1809.87  1836.69  1879.10
                             1994.37  2034.69  2059.73  2083.81  2111.22
                             2123.68  2127.37  2157.15  2200.74  2646.05
                             3426.06  4098.56  4232.26  4247.05  4267.67
                             4286.55  4358.46  4358.59  4446.74  4449.22
                             4488.51

 Zero-point correction=                           0.154650 (Hartree/Particle)
 Thermal correction to Energy=                    0.165891
 Thermal correction to Enthalpy=                  0.166835
 Thermal correction to Gibbs Free Energy=         0.114692
 Sum of electronic and zero-point Energies=           -422.995929
 Sum of electronic and thermal Energies=              -422.984688
 Sum of electronic and thermal Enthalpies=            -422.983743
 Sum of electronic and thermal Free Energies=         -423.035887

                     E (Thermal)             CV                S
                      KCal/Mol        Cal/Mol-Kelvin    Cal/Mol-Kelvin
 Total                  104.098             36.184            109.745
 Electronic               0.000              0.000              0.000
 Translational            0.889              2.981             40.409
 Rotational               0.889              2.981             29.735
 Vibrational            102.321             30.222             39.601
 Vibration     1          0.593              1.986              7.004
 Vibration     2          0.594              1.982              5.350
 Vibration     3          0.595              1.978              4.828
 Vibration     4          0.598              1.968              4.138
 Vibration     5          0.605              1.946              3.389
 Vibration     6          0.610              1.930              3.055
 Vibration     7          0.628              1.871              2.360
 Vibration     8          0.643              1.825              2.040
 Vibration     9          0.679              1.715              1.548
 Vibration    10          0.726              1.579              1.174
 Vibration    11          0.748              1.519              1.050
 Vibration    12          0.752              1.506              1.026
 Vibration    13          0.874              1.209              0.613
 Vibration    14          0.898              1.155              0.559

 Optimization completed on the basis of negligible forces.
    -- Stationary point found.
 Normal termination of Gaussian 09 at Mon Jan 27 15:19:56 2020.
