 Gaussian 09, Revision D.01,
 Gaussian 09:  ES64L-G09RevD.01 24-Apr-2013

 -----------------------------
 # b3lyp 6-31G(2df,p) opt Freq
 -----------------------------

 -----
 titel
 -----
 Symbolic Z-matrix:
 Charge =  0 Multiplicity = 1

 SCF Done:  E(RB3LYP) =  -423.123440205     A.U. after   14 cycles
 Optimization completed.
    -- Stationary point found.
 Normal termination of Gaussian 09 at Tue Jan 28 08:58:18 2020.

 ----------------------------------------------------------------------
 #N Geom=AllCheck Guess=TCheck SCRF=Check GenChk RB3LYP/6-31G(2df,p) Fr
 eq
 ----------------------------------------------------------------------

 Structure from the checkpoint file:  "/scratch/puck/g09_9d3d0fda-2877-4a18-baa5-2c8b9d7619ac/Gau-187766.chk"
 -----
 titel
 -----
 Charge =  0 Multiplicity = 1

                         Standard orientation:
 ---------------------------------------------------------------------
 Center     Atomic      Atomic             Coordinates (Angstroms)
 Number     Number       Type             X           Y           Z
 ---------------------------------------------------------------------
      1          6           0       -2.155145   -1.105149    0.407462
      2          8           0       -1.140292   -0.948667   -0.570609
      3          6           0       -0.159810    0.007405   -0.235151
      4          6           0       -0.791117    1.379961   -0.404273
      5          8           0       -0.625423    2.341204    0.303176
      6          6           0        1.231220   -0.260317   -0.904385
      7          6           0        1.861672    0.624870    0.208505
      8          6           0        0.828829   -0.281503    0.943079
      9          6           0        1.379614   -1.460623    0.079804
     10          1           0       -2.677175   -0.161165    0.621028
     11          1           0       -2.875270   -1.820692    0.004932
     12          1           0       -1.749949   -1.496454    1.350560
     13          1           0       -1.483553    1.412464   -1.276669
     14          1           0        1.436685   -0.243519   -1.975154
     15          1           0        2.907565    0.403832    0.430240
     16          1           0        1.670827    1.695565    0.191562
     17          1           0        0.594563   -0.280527    2.007416
     18          1           0        2.406325   -1.763804    0.297756
     19          1           0        0.724123   -2.313863   -0.082444
 ---------------------------------------------------------------------

 SCF Done:  E(RB3LYP) =  -423.123440205     A.U. after    1 cycles

 The electronic state is 1-A.
 Alpha  occ. eigenvalues --  -19.15449 -19.14532 -10.27080 -10.25035 -10.23413
 Alpha  occ. eigenvalues --  -10.21218 -10.20844 -10.19171 -10.19053  -1.05765
 Alpha  occ. eigenvalues --   -1.04309  -0.91339  -0.72865  -0.68164  -0.65275
 Alpha  occ. eigenvalues --   -0.63658  -0.60119  -0.52802  -0.50629  -0.50099
 Alpha  occ. eigenvalues --   -0.47955  -0.46147  -0.44167  -0.43216  -0.40480
 Alpha  occ. eigenvalues --   -0.38318  -0.36560  -0.34346  -0.33411  -0.32767
 Alpha  occ. eigenvalues --   -0.32052  -0.30717  -0.28064  -0.24245
 Alpha virt. eigenvalues --   -0.03357   0.09755   0.11209   0.12053   0.12852
 Alpha virt. eigenvalues --    0.13750   0.14138   0.14652   0.15120   0.15982
 Alpha virt. eigenvalues --    0.16409   0.17556   0.18458   0.19350   0.20662

 Mulliken charges:
               1
     1  C   -0.261782
     2  O   -0.303823
     3  C    0.384453
     4  C    0.080050
     5  O   -0.251843
     6  C   -0.113629
     7  C   -0.239905
     8  C   -0.110872
     9  C   -0.234950
    10  H    0.119593
    11  H    0.133445
    12  H    0.117929
    13  H    0.087634
    14  H    0.081734
    15  H    0.097259
    16  H    0.126272
    17  H    0.080890
    18  H    0.094391
    19  H    0.113152
 Sum of Mulliken charges =   0.00000

 Dipole moment (field-independent basis, Debye):
    X=             -0.0012    Y=             -1.7665    Z=             -0.0204  Tot=              1.7666
 Quadrupole moment (field-independent basis, Debye-Ang):
   XX=            -49.2220   YY=            -59.6945   ZZ=            -52.8455
   XY=              1.6988   XZ=             -0.9858   YZ=             -3.5950

  Exact polarizability:  83.983  -0.532  78.167   1.919   0.356  66.069
 Approx polarizability: 111.803   0.212 117.460   2.836   7.138 107.580

                      1                      2                      3
                      A                      A                      A
 Frequencies --     78.2244               109.8175               166.9507
 Red. masses --      4.1783                 2.3253                 2.4204
 Frc consts  --      0.0151                 0.0165                 0.0397
 IR Inten    --      5.2166                 2.7704                 1.5000

                      4                      5                      6
                      A                      A                      A
 Frequencies --    174.5839               239.1743               276.6818
 Red. masses --      1.3096                 3.7359                 2.6164
 Frc consts  --      0.0235                 0.1259                 0.1180
 IR Inten    --      1.7150                 4.2050                 0.8123

                      7                      8                      9
                      A                      A                      A
 Frequencies --    379.4761               437.2540               473.5454
 Red. masses --      4.0808                 3.5090                 4.6508
 Frc consts  --      0.3462                 0.3953                 0.6145
 IR Inten    --     11.2949                 0.6242                 3.5260

                     10                     11                     12
                      A                      A                      A
 Frequencies --    553.8417               627.0500               696.5362
 Red. masses --      2.1701                 3.2965                 3.6750
 Frc consts  --      0.3922                 0.7637                 1.0505
 IR Inten    --      2.1154                 3.0268                32.1713

                     13                     14                     15
                      A                      A                      A
 Frequencies --    798.0391               804.7677               890.1624
 Red. masses --      3.1595                 2.8399                 2.3095
 Frc consts  --      1.1855                 1.0837                 1.0782
 IR Inten    --      3.8933                 0.6687                 0.8170

                     16                     17                     18
                      A                      A                      A
 Frequencies --    899.8720               906.5250               984.2276
 Red. masses --      1.9278                 2.9863                 1.7440
 Frc consts  --      0.9197                 1.4459                 0.9954
 IR Inten    --      0.0359                 0.5160                 7.9340

                     19                     20                     21
                      A                      A                      A
 Frequencies --   1018.2072              1024.3200              1046.9877
 Red. masses --      1.3699                 1.0178                 2.4571
 Frc consts  --      0.8368                 0.6292                 1.5869
 IR Inten    --      4.9101                 0.1588                 3.6217

                     22                     23                     24
                      A                      A                      A
 Frequencies --   1078.9019              1092.5549              1093.8201
 Red. masses --      2.7969                 1.6027                 1.6466
 Frc consts  --      1.9182                 1.1272                 1.1607
 IR Inten    --     41.3968                 5.3350                12.4395

                     25                     26                     27
                      A                      A                      A
 Frequencies --   1109.8080              1163.0353              1185.5530
 Red. masses --      1.8404                 3.1215                 1.3545
 Frc consts  --      1.3355                 2.4877                 1.1217
 IR Inten    --      0.7889               111.6377                 9.5585

                     28                     29                     30
                      A                      A                      A
 Frequencies --   1191.0578              1198.1578              1200.6294
 Red. masses --      1.5896                 1.9427                 1.7478
 Frc consts  --      1.3287                 1.6432                 1.4845
 IR Inten    --      3.7603                 3.7532                 8.6506

                     31                     32                     33
                      A                      A                      A
 Frequencies --   1229.8517              1242.9402              1248.4946
 Red. masses --      1.6812                 1.6827                 1.7702
 Frc consts  --      1.4982                 1.5316                 1.6257
 IR Inten    --     20.4586                11.2149                 8.1441

                     34                     35                     36
                      A                      A                      A
 Frequencies --   1263.1026              1409.4717              1481.2330
 Red. masses --      2.2111                 1.2102                 1.1343
 Frc consts  --      2.0784                 1.4165                 1.4664
 IR Inten    --     10.4208                14.0487                 0.5401

                     37                     38                     39
                      A                      A                      A
 Frequencies --   1488.9849              1498.7739              1508.0232
 Red. masses --      1.0471                 1.0935                 1.0617
 Frc consts  --      1.3678                 1.4473                 1.4225
 IR Inten    --      4.6597                 1.0117                 7.1822

                     40                     41                     42
                      A                      A                      A
 Frequencies --   1536.6916              1822.8808              2873.9419
 Red. masses --      1.1296                10.8419                 1.0828
 Frc consts  --      1.5717                21.2262                 5.2692
 IR Inten    --      5.3282               124.2734               112.1484

                     43                     44                     45
                      A                      A                      A
 Frequencies --   2991.9213              3046.1815              3073.4092
 Red. masses --      1.0360                 1.1027                 1.0596
 Frc consts  --      5.4642                 6.0287                 5.8972
 IR Inten    --     42.5163                38.7299                35.5030

                     46                     47                     48
                      A                      A                      A
 Frequencies --   3081.8444              3111.4475              3117.7808
 Red. masses --      1.0602                 1.0904                 1.0930
 Frc consts  --      5.9329                 6.2193                 6.2596
 IR Inten    --     38.2870                74.4744                13.5064

                     49                     50                     51
                      A                      A                      A
 Frequencies --   3123.7432              3161.3055              3169.1711
 Red. masses --      1.0984                 1.1058                 1.1049
 Frc consts  --      6.3146                 6.5111                 6.5384
 IR Inten    --     27.0866                20.8095                13.2722

 - Thermochemistry -
 -------------------
 Temperature   298.150 Kelvin.  Pressure   1.00000 Atm.
 Atom     1 has atomic number  6 and mass  12.00000

 Molecular mass:   126.06808 amu.
 Principal axes and moments of inertia in atomic units:
                           1         2         3
     Eigenvalues --   838.99220 954.607611476.29768
           X            0.99349   0.11357  -0.00918
           Y           -0.11378   0.99315  -0.02666
           Z            0.00609   0.02753   0.99960
 This molecule is an asymmetric top.
 Rotational symmetry number  1.
 Warning -- assumption of classical behavior for rotation
           may cause significant error
 Rotational temperatures (Kelvin)      0.10324     0.09073     0.05867
 Rotational constants (GHZ):           2.15108     1.89056     1.22248
 Zero-point vibrational energy     414990.3 (Joules/Mol)
                                   99.18506 (Kcal/Mol)
 Warning -- explicit consideration of  10 degrees of freedom as
           vibrations may cause significant error
 Vibrational temperatures:    112.55   158.00   240.20   251.19   344.12
          (Kelvin)            398.08   545.98   629.11   681.33   796.85
                              902.18  1002.16  1148.20  1157.88  1280.74
                             1294.71  1304.29  1416.08  1464.97  1473.77
                             1506.38  1552.30  1571.94  1573.76  1596.76
                             1673.35  1705.74  1713.66  1723.88  1727.44
                             1769.48  1788.31  1796.30  1817.32  2027.91
                             2131.16  2142.31  2156.40  2169.71  2210.95
                             2622.72  4134.96  4304.70  4382.77  4421.94
                             4434.08  4476.67  4485.79  4494.36  4548.41
                             4559.72

 Zero-point correction=                           0.158061 (Hartree/Particle)
 Thermal correction to Energy=                    0.166587
 Thermal correction to Enthalpy=                  0.167531
 Thermal correction to Gibbs Free Energy=         0.124711
 Sum of electronic and zero-point Energies=           -422.965379
 Sum of electronic and thermal Energies=              -422.956853
 Sum of electronic and thermal Enthalpies=            -422.955909
 Sum of electronic and thermal Free Energies=         -422.998729

                     E (Thermal)             CV                S
                      KCal/Mol        Cal/Mol-Kelvin    Cal/Mol-Kelvin
 Total                  104.535             31.923             90.122
 Electronic               0.000              0.000              0.000
 Translational            0.889              2.981             40.409
 Rotational               0.889              2.981             28.560
 Vibrational            102.757             25.961             21.153
 Vibration     1          0.600              1.964              3.935
 Vibration     2          0.606              1.941              3.272
 Vibration     3          0.624              1.883              2.470
 Vibration     4          0.627              1.874              2.386
 Vibration     5          0.657              1.781              1.809
 Vibration     6          0.678              1.717              1.554
 Vibration     7          0.749              1.514              1.041
 Vibration     8          0.798              1.389              0.835
 Vibration     9          0.830              1.309              0.728
 Vibration    10          0.909              1.131              0.536

 Optimization completed.
    -- Stationary point found.
 Normal termination of Gaussian 09 at Tue Jan 28 09:33:53 2020.
