 Gaussian 09, Revision D.01,
 Gaussian 09:  ES64L-G09RevD.01 24-Apr-2013

 -----------------------------
 # b3lyp 6-31G(2df,p) opt Freq
 -----------------------------

 -----
 titel
 -----
 Symbolic Z-matrix:
 Charge =  0 Multiplicity = 1

 SCF Done:  E(RB3LYP) =  -423.120068804     A.U. after   13 cycles
 Optimization completed.
    -- Stationary point found.
 Normal termination of Gaussian 09 at Mon Jan 27 12:07:08 2020.

 ----------------------------------------------------------------------
 #N Geom=AllCheck Guess=TCheck SCRF=Check GenChk RB3LYP/6-31G(2df,p) Fr
 eq
 ----------------------------------------------------------------------

 Structure from the checkpoint file:  "/scratch/puck/g09_10bd123a-b730-4c98-8284-901733e6a554/Gau-18697.chk"
 -----
 titel
 -----
 Charge =  0 Multiplicity = 1

                         Standard orientation:
 ---------------------------------------------------------------------
 Center     Atomic      Atomic             Coordinates (Angstroms)
 Number     Number       Type             X           Y           Z
 ---------------------------------------------------------------------
      1          6           0       -2.516057   -1.018235    0.418205
      2          8           0       -2.887557    0.240151   -0.146817
      3          6           0       -1.531958   -0.201565   -0.302686
      4          6           0       -0.481282    0.583070    0.403904
      5          6           0        0.296957    1.655389   -0.361942
      6          6           0        0.960750    0.383982    0.035300
      7          6           0        2.168026    0.108874    0.924659
      8          6           0        2.497763   -0.966831   -0.133535
      9          8           0        1.354015   -0.588583   -0.936800
     10          1           0       -2.490393   -1.051772    1.507341
     11          1           0       -2.949462   -1.896323   -0.059345
     12          1           0       -1.273940   -0.501154   -1.318101
     13          1           0       -0.695558    0.791948    1.449147
     14          1           0        0.061396    1.775237   -1.414929
     15          1           0        0.558315    2.572998    0.155003
     16          1           0        2.887048    0.927832    0.990218
     17          1           0        1.945120   -0.261754    1.926840
     18          1           0        3.436385   -0.833040   -0.681509
     19          1           0        2.424230   -2.004605    0.210847
 ---------------------------------------------------------------------

 SCF Done:  E(RB3LYP) =  -423.120068804     A.U. after    1 cycles

 The electronic state is 1-A.
 Alpha  occ. eigenvalues --  -19.14162 -19.13971 -10.24627 -10.23776 -10.23427
 Alpha  occ. eigenvalues --  -10.22712 -10.19700 -10.19330 -10.18607  -1.06140
 Alpha  occ. eigenvalues --   -1.04690  -0.85633  -0.74869  -0.68437  -0.64962
 Alpha  occ. eigenvalues --   -0.63624  -0.58216  -0.54056  -0.50749  -0.49627
 Alpha  occ. eigenvalues --   -0.48736  -0.47415  -0.43380  -0.41864  -0.39232
 Alpha  occ. eigenvalues --   -0.38707  -0.37839  -0.36161  -0.34048  -0.32548
 Alpha  occ. eigenvalues --   -0.31503  -0.27064  -0.26152  -0.23035
 Alpha virt. eigenvalues --    0.06904   0.09047   0.10072   0.10530   0.11990
 Alpha virt. eigenvalues --    0.12335   0.12424   0.13417   0.15761   0.16314
 Alpha virt. eigenvalues --    0.17346   0.17814   0.19251   0.19844   0.21844

 Mulliken charges:
               1
     1  C   -0.188569
     2  O   -0.244403
     3  C    0.104280
     4  C   -0.129676
     5  C   -0.373590
     6  C    0.450944
     7  C   -0.358568
     8  C   -0.069156
     9  O   -0.304226
    10  H    0.107084
    11  H    0.113665
    12  H    0.105176
    13  H    0.089163
    14  H    0.128889
    15  H    0.116930
    16  H    0.117752
    17  H    0.115675
    18  H    0.110362
    19  H    0.108269
 Sum of Mulliken charges =   0.00000

 Dipole moment (field-independent basis, Debye):
    X=              2.3318    Y=             -0.6357    Z=              1.6972  Tot=              2.9533
 Quadrupole moment (field-independent basis, Debye-Ang):
   XX=            -55.7781   YY=            -51.0553   ZZ=            -52.3092
   XY=              3.7774   XZ=              0.7282   YZ=             -0.8233

  Exact polarizability:  89.257   2.904  74.585  -2.026  -2.070  66.150
 Approx polarizability: 113.459   1.215 107.802  -3.831  -3.560 100.802

                      1                      2                      3
                      A                      A                      A
 Frequencies --     54.5115                78.1864               130.3890
 Red. masses --      3.0913                 2.8019                 4.5539
 Frc consts  --      0.0054                 0.0101                 0.0456
 IR Inten    --      0.6033                 2.9157                 3.7216

                      4                      5                      6
                      A                      A                      A
 Frequencies --    148.9190               304.9631               323.1039
 Red. masses --      2.8886                 3.6045                 2.6459
 Frc consts  --      0.0377                 0.1975                 0.1627
 IR Inten    --      1.5968                 1.7307                 0.4293

                      7                      8                      9
                      A                      A                      A
 Frequencies --    348.2057               450.8986               505.5386
 Red. masses --      3.0625                 2.8379                 3.4165
 Frc consts  --      0.2188                 0.3399                 0.5144
 IR Inten    --      3.6992                 0.9496                 1.4455

                     10                     11                     12
                      A                      A                      A
 Frequencies --    621.6048               780.2923               793.3036
 Red. masses --      3.9442                 1.2067                 1.6554
 Frc consts  --      0.8979                 0.4329                 0.6138
 IR Inten    --     13.2957                 1.8188                 9.9464

                     13                     14                     15
                      A                      A                      A
 Frequencies --    842.4249               853.9941               867.2036
 Red. masses --      3.1458                 2.1835                 4.0877
 Frc consts  --      1.3154                 0.9382                 1.8112
 IR Inten    --     33.7696                 1.8445                24.8205

                     16                     17                     18
                      A                      A                      A
 Frequencies --    889.3448               920.6733               946.1231
 Red. masses --      1.8196                 1.7313                 2.4291
 Frc consts  --      0.8479                 0.8646                 1.2811
 IR Inten    --      5.1235                 8.0734                11.6051

                     19                     20                     21
                      A                      A                      A
 Frequencies --    972.5834              1016.9984              1025.6991
 Red. masses --      2.7293                 4.8874                 2.4643
 Frc consts  --      1.5211                 2.9783                 1.5275
 IR Inten    --      3.5223                99.8969                12.1474

                     22                     23                     24
                      A                      A                      A
 Frequencies --   1046.1083              1086.3988              1099.8528
 Red. masses --      1.3924                 1.8764                 1.2709
 Frc consts  --      0.8978                 1.3049                 0.9058
 IR Inten    --     28.0105                 3.1434                 0.9749

                     25                     26                     27
                      A                      A                      A
 Frequencies --   1121.7030              1152.5433              1164.5531
 Red. masses --      2.2374                 1.3940                 1.1715
 Frc consts  --      1.6587                 1.0910                 0.9360
 IR Inten    --     19.0632                 0.9253                 0.5258

                     28                     29                     30
                      A                      A                      A
 Frequencies --   1170.3751              1183.2162              1210.6584
 Red. masses --      1.3398                 2.0669                 2.2064
 Frc consts  --      1.0813                 1.7049                 1.9054
 IR Inten    --      4.5869                11.0505                11.9633

                     31                     32                     33
                      A                      A                      A
 Frequencies --   1213.6856              1248.0185              1280.8377
 Red. masses --      1.2065                 1.4667                 1.5522
 Frc consts  --      1.0471                 1.3460                 1.5003
 IR Inten    --      0.3628                 1.7434                35.1833

                     34                     35                     36
                      A                      A                      A
 Frequencies --   1294.8749              1353.2302              1386.7272
 Red. masses --      1.4954                 1.5088                 2.0103
 Frc consts  --      1.4773                 1.6279                 2.2777
 IR Inten    --      2.1791                 9.0966                 6.7875

                     37                     38                     39
                      A                      A                      A
 Frequencies --   1455.7880              1486.9480              1495.4338
 Red. masses --      1.3240                 1.2295                 1.5756
 Frc consts  --      1.6533                 1.6016                 2.0761
 IR Inten    --     10.6191                10.0530                26.5870

                     40                     41                     42
                      A                      A                      A
 Frequencies --   1529.9994              1535.1367              3029.6593
 Red. masses --      1.2176                 1.4601                 1.0558
 Frc consts  --      1.6794                 2.0273                 5.7097
 IR Inten    --      4.3711                 8.3901                79.7463

                     43                     44                     45
                      A                      A                      A
 Frequencies --   3073.4772              3075.4686              3076.2714
 Red. masses --      1.0847                 1.0841                 1.0505
 Frc consts  --      6.0372                 6.0413                 5.8572
 IR Inten    --     21.1182                38.9664                27.3655

                     46                     47                     48
                      A                      A                      A
 Frequencies --   3117.3674              3125.1540              3128.7198
 Red. masses --      1.0871                 1.0549                 1.1090
 Frc consts  --      6.2242                 6.0700                 6.3960
 IR Inten    --      4.7317                 7.8586                21.2541

                     49                     50                     51
                      A                      A                      A
 Frequencies --   3139.6234              3161.6765              3215.0601
 Red. masses --      1.0890                 1.1184                 1.1166
 Frc consts  --      6.3246                 6.5866                 6.8006
 IR Inten    --      8.3493                33.5356                 5.2096

 - Thermochemistry -
 -------------------
 Temperature   298.150 Kelvin.  Pressure   1.00000 Atm.
 Atom     1 has atomic number  6 and mass  12.00000

 Molecular mass:   126.06808 amu.
 Principal axes and moments of inertia in atomic units:
                           1         2         3
     Eigenvalues --   484.123881804.756291967.88206
           X            0.99992   0.01159   0.00438
           Y           -0.01147   0.99959  -0.02620
           Z           -0.00469   0.02615   0.99965
 This molecule is an asymmetric top.
 Rotational symmetry number  1.
 Warning -- assumption of classical behavior for rotation
           may cause significant error
 Rotational temperatures (Kelvin)      0.17891     0.04799     0.04401
 Rotational constants (GHZ):           3.72785     0.99999     0.91710
 Zero-point vibrational energy     415902.9 (Joules/Mol)
                                   99.40317 (Kcal/Mol)
 Warning -- explicit consideration of   9 degrees of freedom as
           vibrations may cause significant error
 Vibrational temperatures:     78.43   112.49   187.60   214.26   438.77
          (Kelvin)            464.87   500.99   648.74   727.36   894.35
                             1122.67  1141.39  1212.06  1228.71  1247.71
                             1279.57  1324.64  1361.26  1399.33  1463.23
                             1475.75  1505.11  1563.08  1582.44  1613.88
                             1658.25  1675.53  1683.91  1702.38  1741.87
                             1746.22  1795.62  1842.84  1863.03  1946.99
                             1995.19  2094.55  2139.38  2151.59  2201.33
                             2208.72  4359.00  4422.04  4424.91  4426.06
                             4485.19  4496.39  4501.52  4517.21  4548.94
                             4625.75

 Zero-point correction=                           0.158409 (Hartree/Particle)
 Thermal correction to Energy=                    0.166878
 Thermal correction to Enthalpy=                  0.167822
 Thermal correction to Gibbs Free Energy=         0.124306
 Sum of electronic and zero-point Energies=           -422.961660
 Sum of electronic and thermal Energies=              -422.953191
 Sum of electronic and thermal Enthalpies=            -422.952247
 Sum of electronic and thermal Free Energies=         -422.995763

                     E (Thermal)             CV                S
                      KCal/Mol        Cal/Mol-Kelvin    Cal/Mol-Kelvin
 Total                  104.717             31.330             91.587
 Electronic               0.000              0.000              0.000
 Translational            0.889              2.981             40.409
 Rotational               0.889              2.981             28.932
 Vibrational            102.940             25.368             22.246
 Vibration     1          0.596              1.976              4.647
 Vibration     2          0.599              1.964              3.936
 Vibration     3          0.612              1.923              2.940
 Vibration     4          0.618              1.904              2.686
 Vibration     5          0.696              1.664              1.390
 Vibration     6          0.708              1.629              1.294
 Vibration     7          0.726              1.579              1.174
 Vibration     8          0.810              1.359              0.793
 Vibration     9          0.861              1.238              0.644

 Optimization completed.
    -- Stationary point found.
 Normal termination of Gaussian 09 at Mon Jan 27 12:52:46 2020.
