 Gaussian 09, Revision D.01,
 Gaussian 09:  ES64L-G09RevD.01 24-Apr-2013

 -----------------------------
 # b3lyp 6-31G(2df,p) opt Freq
 -----------------------------

 -----
 titel
 -----
 Symbolic Z-matrix:
 Charge =  0 Multiplicity = 1

 SCF Done:  E(RB3LYP) =  -423.157364766     A.U. after   13 cycles
 Optimization completed.
    -- Stationary point found.
 Normal termination of Gaussian 09 at Mon Jan 27 12:01:50 2020.

 ----------------------------------------------------------------------
 #N Geom=AllCheck Guess=TCheck SCRF=Check GenChk RB3LYP/6-31G(2df,p) Fr
 eq
 ----------------------------------------------------------------------

 Structure from the checkpoint file:  "/scratch/puck/g09_89a78e12-e650-4330-b7ea-cd3c68d2cf45/Gau-51021.chk"
 -----
 titel
 -----
 Charge =  0 Multiplicity = 1

                         Standard orientation:
 ---------------------------------------------------------------------
 Center     Atomic      Atomic             Coordinates (Angstroms)
 Number     Number       Type             X           Y           Z
 ---------------------------------------------------------------------
      1          6           0        2.465502   -0.305604   -0.686454
      2          8           0        2.361317   -0.508595    0.727664
      3          6           0        1.204402   -0.064951    0.027957
      4          6           0        0.670361    1.335141    0.314842
      5          6           0       -0.696505    1.335968   -0.390789
      6          6           0       -1.211152   -0.080135   -0.152286
      7          6           0       -2.567011   -0.519868   -0.484967
      8          8           0       -2.207253   -0.232118    0.869754
      9          6           0        0.000638   -1.010232   -0.070270
     10          1           0        3.087248    0.535561   -0.992484
     11          1           0        2.588354   -1.212014   -1.279173
     12          1           0        0.534117    1.444112    1.397419
     13          1           0        1.345892    2.125899   -0.018983
     14          1           0       -1.396072    2.082199   -0.008787
     15          1           0       -0.566531    1.506981   -1.466902
     16          1           0       -3.267385    0.179083   -0.942751
     17          1           0       -2.757140   -1.570129   -0.705848
     18          1           0       -0.070706   -1.632731    0.825992
     19          1           0        0.072295   -1.675166   -0.936027
 ---------------------------------------------------------------------

 SCF Done:  E(RB3LYP) =  -423.157364766     A.U. after    1 cycles

 The electronic state is 1-A.
 Alpha  occ. eigenvalues --  -19.14876 -19.14692 -10.24354 -10.24342 -10.23215
 Alpha  occ. eigenvalues --  -10.23201 -10.19068 -10.18838 -10.18811  -1.07098
 Alpha  occ. eigenvalues --   -1.06731  -0.82939  -0.72465  -0.68774  -0.66206
 Alpha  occ. eigenvalues --   -0.64948  -0.56874  -0.55636  -0.50341  -0.49334
 Alpha  occ. eigenvalues --   -0.47200  -0.46272  -0.45006  -0.41772  -0.40723
 Alpha  occ. eigenvalues --   -0.38832  -0.36239  -0.35959  -0.35046  -0.34733
 Alpha  occ. eigenvalues --   -0.29826  -0.29366  -0.26462  -0.25911
 Alpha virt. eigenvalues --    0.06156   0.09181   0.10568   0.11303   0.11824
 Alpha virt. eigenvalues --    0.12628   0.13223   0.14695   0.15055   0.15338
 Alpha virt. eigenvalues --    0.17217   0.18387   0.18920   0.20679   0.22154

 Mulliken charges:
               1
     1  C   -0.253717
     2  O   -0.282035
     3  C    0.468266
     4  C   -0.306847
     5  C   -0.290620
     6  C    0.436609
     7  C   -0.256689
     8  O   -0.271591
     9  C   -0.383699
    10  H    0.111814
    11  H    0.110778
    12  H    0.124879
    13  H    0.103152
    14  H    0.116123
    15  H    0.104924
    16  H    0.109564
    17  H    0.111241
    18  H    0.137700
    19  H    0.110147
 Sum of Mulliken charges =   0.00000

 Dipole moment (field-independent basis, Debye):
    X=             -0.2865    Y=              0.5333    Z=             -2.9393  Tot=              3.0010
 Quadrupole moment (field-independent basis, Debye-Ang):
   XX=            -56.4144   YY=            -50.6906   ZZ=            -54.5220
   XY=              1.6224   XZ=             -0.1588   YZ=              1.5401

  Exact polarizability:  90.778   1.588  71.536  -1.428   1.825  62.662
 Approx polarizability: 115.916   1.143 100.084  -2.425   1.203 105.008

                      1                      2                      3
                      A                      A                      A
 Frequencies --     15.1801               131.3025               265.0846
 Red. masses --      3.5358                 2.6455                 3.0865
 Frc consts  --      0.0005                 0.0269                 0.1278
 IR Inten    --      0.6568                 1.0502                 0.8937

                      4                      5                      6
                      A                      A                      A
 Frequencies --    318.8781               339.1446               375.4515
 Red. masses --      3.1776                 2.9247                 1.9074
 Frc consts  --      0.1904                 0.1982                 0.1584
 IR Inten    --      2.3076                 7.5126                 1.4953

                      7                      8                      9
                      A                      A                      A
 Frequencies --    404.0614               424.8241               460.8187
 Red. masses --      2.2905                 2.6674                 5.0626
 Frc consts  --      0.2203                 0.2836                 0.6334
 IR Inten    --      2.9766                 0.4885                 7.9440

                     10                     11                     12
                      A                      A                      A
 Frequencies --    560.0409               707.8620               773.3551
 Red. masses --      3.5873                 2.1562                 4.7341
 Frc consts  --      0.6629                 0.6365                 1.6682
 IR Inten    --      4.2336                 1.3256                11.2955

                     13                     14                     15
                      A                      A                      A
 Frequencies --    804.2345               840.8870               863.6469
 Red. masses --      2.8542                 2.9110                 2.9288
 Frc consts  --      1.0877                 1.2128                 1.2871
 IR Inten    --     18.3536                20.2639                13.9590

                     16                     17                     18
                      A                      A                      A
 Frequencies --    897.2411               923.3056               938.7502
 Red. masses --      1.4050                 1.4614                 3.8937
 Frc consts  --      0.6664                 0.7340                 2.0217
 IR Inten    --      2.1934                 0.3002                14.5137

                     19                     20                     21
                      A                      A                      A
 Frequencies --    968.8660               987.3191              1006.5390
 Red. masses --      3.1023                 1.8898                 2.1108
 Frc consts  --      1.7158                 1.0854                 1.2600
 IR Inten    --      6.9616                 1.4188                32.5195

                     22                     23                     24
                      A                      A                      A
 Frequencies --   1035.7327              1127.5851              1128.6685
 Red. masses --      1.4977                 1.2849                 1.2826
 Frc consts  --      0.9466                 0.9625                 0.9627
 IR Inten    --      1.1752                 3.6074                 2.4014

                     25                     26                     27
                      A                      A                      A
 Frequencies --   1152.9610              1159.5232              1177.2817
 Red. masses --      1.3376                 1.4035                 1.7264
 Frc consts  --      1.0476                 1.1117                 1.4098
 IR Inten    --      0.6004                 1.4905                 9.0236

                     28                     29                     30
                      A                      A                      A
 Frequencies --   1191.5789              1207.7867              1211.8762
 Red. masses --      1.5437                 2.1029                 1.7299
 Frc consts  --      1.2914                 1.8074                 1.4969
 IR Inten    --      6.0318                 0.5979                 5.2539

                     31                     32                     33
                      A                      A                      A
 Frequencies --   1258.6828              1278.9496              1316.8455
 Red. masses --      1.3828                 2.5055                 1.5484
 Frc consts  --      1.2907                 2.4147                 1.5820
 IR Inten    --      2.3650                 7.9581                10.0964

                     34                     35                     36
                      A                      A                      A
 Frequencies --   1321.6184              1421.9980              1430.7838
 Red. masses --      1.3759                 2.5013                 2.5506
 Frc consts  --      1.4159                 2.9800                 3.0764
 IR Inten    --      0.9096                10.3576                21.6600

                     37                     38                     39
                      A                      A                      A
 Frequencies --   1469.2605              1476.8694              1493.0532
 Red. masses --      1.0915                 1.0904                 1.1146
 Frc consts  --      1.3882                 1.4013                 1.4639
 IR Inten    --      5.4396                 2.7273                 2.3220

                     40                     41                     42
                      A                      A                      A
 Frequencies --   1529.5592              1535.1155              3031.4955
 Red. masses --      1.3838                 1.4788                 1.0687
 Frc consts  --      1.9074                 2.0532                 5.7865
 IR Inten    --      5.8571                 3.3877                15.7877

                     43                     44                     45
                      A                      A                      A
 Frequencies --   3044.5949              3056.0284              3071.8020
 Red. masses --      1.0630                 1.0610                 1.0505
 Frc consts  --      5.8055                 5.8384                 5.8405
 IR Inten    --     21.3353                 9.2252                30.3357

                     46                     47                     48
                      A                      A                      A
 Frequencies --   3072.2391              3103.7029              3105.7277
 Red. masses --      1.0503                 1.1033                 1.0983
 Frc consts  --      5.8409                 6.2621                 6.2418
 IR Inten    --     28.0355                 5.8956                19.7642

                     49                     50                     51
                      A                      A                      A
 Frequencies --   3114.3891              3154.9670              3158.6325
 Red. masses --      1.0984                 1.1190                 1.1194
 Frc consts  --      6.2773                 6.5625                 6.5803
 IR Inten    --     18.6410                22.6730                28.1726

 - Thermochemistry -
 -------------------
 Temperature   298.150 Kelvin.  Pressure   1.00000 Atm.
 Atom     1 has atomic number  6 and mass  12.00000

 Molecular mass:   126.06808 amu.
 Principal axes and moments of inertia in atomic units:
                           1         2         3
     Eigenvalues --   463.002031594.519141757.87515
           X            0.99998   0.00661   0.00051
           Y           -0.00663   0.99916   0.04051
           Z           -0.00025  -0.04052   0.99918
 This molecule is an asymmetric top.
 Rotational symmetry number  1.
 Warning -- assumption of classical behavior for rotation
           may cause significant error
 Rotational temperatures (Kelvin)      0.18707     0.05432     0.04927
 Rotational constants (GHZ):           3.89791     1.13184     1.02666
 Zero-point vibrational energy     417772.5 (Joules/Mol)
                                   99.85002 (Kcal/Mol)
 Warning -- explicit consideration of  10 degrees of freedom as
           vibrations may cause significant error
 Vibrational temperatures:     21.84   188.91   381.40   458.79   487.95
          (Kelvin)            540.19   581.35   611.23   663.01   805.77
                             1018.45  1112.68  1157.11  1209.85  1242.59
                             1290.93  1328.43  1350.65  1393.98  1420.53
                             1448.18  1490.19  1622.34  1623.90  1658.85
                             1668.29  1693.84  1714.41  1737.73  1743.62
                             1810.96  1840.12  1894.64  1901.51  2045.94
                             2058.58  2113.94  2124.88  2148.17  2200.69
                             2208.69  4361.64  4380.49  4396.94  4419.63
                             4420.26  4465.53  4468.44  4480.91  4539.29
                             4544.56

 Zero-point correction=                           0.159121 (Hartree/Particle)
 Thermal correction to Energy=                    0.167078
 Thermal correction to Enthalpy=                  0.168022
 Thermal correction to Gibbs Free Energy=         0.125301
 Sum of electronic and zero-point Energies=           -422.998244
 Sum of electronic and thermal Energies=              -422.990287
 Sum of electronic and thermal Enthalpies=            -422.989343
 Sum of electronic and thermal Free Energies=         -423.032064

                     E (Thermal)             CV                S
                      KCal/Mol        Cal/Mol-Kelvin    Cal/Mol-Kelvin
 Total                  104.843             30.911             89.914
 Electronic               0.000              0.000              0.000
 Translational            0.889              2.981             40.409
 Rotational               0.889              2.981             28.653
 Vibrational            103.065             24.949             20.852
 Vibration     1          0.593              1.986              7.182
 Vibration     2          0.612              1.922              2.927
 Vibration     3          0.671              1.737              1.628
 Vibration     4          0.705              1.637              1.316
 Vibration     5          0.719              1.597              1.216
 Vibration     6          0.746              1.522              1.057
 Vibration     7          0.769              1.461              0.948
 Vibration     8          0.787              1.416              0.876
 Vibration     9          0.819              1.337              0.764
 Vibration    10          0.916              1.118              0.524

 Optimization completed on the basis of negligible forces.
    -- Stationary point found.
 Normal termination of Gaussian 09 at Mon Jan 27 12:47:59 2020.
