 Gaussian 09, Revision D.01,
 Gaussian 09:  ES64L-G09RevD.01 24-Apr-2013

 -----------------------------
 # b3lyp 6-31G(2df,p) opt Freq
 -----------------------------

 -----
 titel
 -----
 Symbolic Z-matrix:
 Charge =  0 Multiplicity = 1

 SCF Done:  E(RB3LYP) =  -423.112939399     A.U. after   13 cycles
 Optimization completed.
    -- Stationary point found.
 Normal termination of Gaussian 09 at Mon Jan 27 11:17:03 2020.

 ----------------------------------------------------------------------
 #N Geom=AllCheck Guess=TCheck SCRF=Check GenChk RB3LYP/6-31G(2df,p) Fr
 eq
 ----------------------------------------------------------------------

 Structure from the checkpoint file:  "/scratch/puck/g09_ec85076c-1df7-4444-a604-bd02282f3cb1/Gau-49276.chk"
 -----
 titel
 -----
 Charge =  0 Multiplicity = 1

                         Standard orientation:
 ---------------------------------------------------------------------
 Center     Atomic      Atomic             Coordinates (Angstroms)
 Number     Number       Type             X           Y           Z
 ---------------------------------------------------------------------
      1          6           0       -0.000001   -0.000036    1.667983
      2          6           0       -0.745461   -0.000002    0.364758
      3          6           0       -1.702266   -1.042108   -0.208318
      4          8           0       -2.540800    0.000016   -0.752740
      5          6           0       -1.702251    1.042122   -0.208308
      6          6           0        0.745463   -0.000022    0.364760
      7          6           0        1.702263   -1.042113   -0.208347
      8          8           0        2.540799    0.000023   -0.752741
      9          6           0        1.702255    1.042117   -0.208277
     10          1           0        0.000022    0.913169    2.257562
     11          1           0       -0.000026   -0.913264    2.257525
     12          1           0       -1.296091   -1.694333   -0.993185
     13          1           0       -2.235789   -1.656680    0.528980
     14          1           0       -1.296066    1.694347   -0.993168
     15          1           0       -2.235766    1.656696    0.528995
     16          1           0        2.235787   -1.656709    0.528930
     17          1           0        1.296082   -1.694313   -0.993230
     18          1           0        2.235773    1.656667    0.529042
     19          1           0        1.296071    1.694367   -0.993118
 ---------------------------------------------------------------------

 SCF Done:  E(RB3LYP) =  -423.112939399     A.U. after    1 cycles

 The electronic state is 1-A.
 Alpha  occ. eigenvalues --  -19.13581 -19.13581 -10.23561 -10.23561 -10.23561
 Alpha  occ. eigenvalues --  -10.23561 -10.20841 -10.20812 -10.19764  -1.04219
 Alpha  occ. eigenvalues --   -1.03938  -0.86990  -0.70324  -0.70144  -0.69229
 Alpha  occ. eigenvalues --   -0.67182  -0.57266  -0.53374  -0.51788  -0.48960
 Alpha  occ. eigenvalues --   -0.48931  -0.47958  -0.43575  -0.42327  -0.40834
 Alpha  occ. eigenvalues --   -0.40086  -0.38818  -0.34484  -0.34264  -0.31922
 Alpha  occ. eigenvalues --   -0.29325  -0.28189  -0.24826  -0.24761
 Alpha virt. eigenvalues --    0.05117   0.08602   0.08729   0.08831   0.09862
 Alpha virt. eigenvalues --    0.11730   0.14094   0.14834   0.14887   0.15799
 Alpha virt. eigenvalues --    0.15930   0.17474   0.20697   0.21168   0.21237

 Mulliken charges:
               1
     1  C   -0.424195
     2  C    0.224368
     3  C   -0.137067
     4  O   -0.273104
     5  C   -0.137069
     6  C    0.224367
     7  C   -0.137070
     8  O   -0.273104
     9  C   -0.137065
    10  H    0.118555
    11  H    0.118554
    12  H    0.104381
    13  H    0.103827
    14  H    0.104381
    15  H    0.103827
    16  H    0.103827
    17  H    0.104381
    18  H    0.103827
    19  H    0.104381
 Sum of Mulliken charges =   0.00000

 Dipole moment (field-independent basis, Debye):
    X=              0.0000    Y=             -0.0001    Z=              1.8809  Tot=              1.8809
 Quadrupole moment (field-independent basis, Debye-Ang):
   XX=            -65.5758   YY=            -47.9265   ZZ=            -53.9926
   XY=              0.0000   XZ=              0.0000   YZ=              0.0001

  Exact polarizability:  79.582   0.000  78.248   0.000   0.000  69.043
 Approx polarizability: 106.892   0.000 111.656   0.000   0.000 103.100

                      1                      2                      3
                      A                      A                      A
 Frequencies --     71.8867               107.3117               142.3050
 Red. masses --      6.3275                 3.0528                 2.9710
 Frc consts  --      0.0193                 0.0207                 0.0354
 IR Inten    --      5.6369                 2.7500                 2.4827

                      4                      5                      6
                      A                      A                      A
 Frequencies --    153.9333               249.3879               366.5494
 Red. masses --      2.3483                 2.1597                 2.0062
 Frc consts  --      0.0328                 0.0791                 0.1588
 IR Inten    --      0.0000                 2.0735                 2.4077

                      7                      8                      9
                      A                      A                      A
 Frequencies --    407.4377               426.4308               503.1191
 Red. masses --      2.9130                 2.1515                 4.1038
 Frc consts  --      0.2849                 0.2305                 0.6120
 IR Inten    --      0.0000                 0.5413                 0.5789

                     10                     11                     12
                      A                      A                      A
 Frequencies --    601.5133               848.8768               854.5523
 Red. masses --      3.5044                 3.3435                 4.2030
 Frc consts  --      0.7471                 1.4195                 1.8084
 IR Inten    --      1.6550                 0.3793                16.2549

                     13                     14                     15
                      A                      A                      A
 Frequencies --    866.9878               883.1142               890.4794
 Red. masses --      1.3235                 1.3757                 3.0456
 Frc consts  --      0.5861                 0.6321                 1.4229
 IR Inten    --      0.0000                 0.7902                20.9292

                     16                     17                     18
                      A                      A                      A
 Frequencies --    967.1063               969.9367               995.9674
 Red. masses --      4.2158                 1.6701                 4.9018
 Frc consts  --      2.3231                 0.9257                 2.8648
 IR Inten    --     33.2473                 1.0783                 5.4176

                     19                     20                     21
                      A                      A                      A
 Frequencies --   1005.7060              1028.7041              1035.2786
 Red. masses --      1.3209                10.9478                11.5088
 Frc consts  --      0.7872                 6.8259                 7.2677
 IR Inten    --      0.0000                 0.0000               165.9318

                     22                     23                     24
                      A                      A                      A
 Frequencies --   1044.7813              1113.9154              1132.2687
 Red. masses --      1.3147                 1.9873                 1.7208
 Frc consts  --      0.8455                 1.4528                 1.2998
 IR Inten    --      0.0420                 0.3019                 0.0414

                     25                     26                     27
                      A                      A                      A
 Frequencies --   1148.4551              1150.9712              1154.0076
 Red. masses --      1.0677                 1.1775                 1.0752
 Frc consts  --      0.8297                 0.9190                 0.8436
 IR Inten    --      0.0000                 2.0019                 0.0107

                     28                     29                     30
                      A                      A                      A
 Frequencies --   1164.9545              1167.4340              1207.0182
 Red. masses --      3.1425                 1.4448                 4.9796
 Frc consts  --      2.5127                 1.1602                 4.2744
 IR Inten    --      1.1861                 1.0421                 0.5174

                     31                     32                     33
                      A                      A                      A
 Frequencies --   1246.0746              1305.7723              1308.6051
 Red. masses --      2.8673                 1.3682                 1.2938
 Frc consts  --      2.6231                 1.3745                 1.3054
 IR Inten    --      0.0000                 0.0000                 1.2422

                     34                     35                     36
                      A                      A                      A
 Frequencies --   1353.4880              1371.4152              1444.6596
 Red. masses --      1.3925                 1.5379                 1.2734
 Frc consts  --      1.5030                 1.7042                 1.5658
 IR Inten    --      2.6755                17.4750                 1.8612

                     37                     38                     39
                      A                      A                      A
 Frequencies --   1503.4539              1510.4404              1515.0226
 Red. masses --      1.0818                 1.0818                 4.1109
 Frc consts  --      1.4407                 1.4541                 5.5594
 IR Inten    --      0.0000                 3.5087                 0.9433

                     40                     41                     42
                      A                      A                      A
 Frequencies --   1528.0433              1536.2405              2991.8116
 Red. masses --      1.1105                 1.1081                 1.0517
 Frc consts  --      1.5277                 1.5407                 5.5463
 IR Inten    --      0.2191                 0.0025                 0.0000

                     43                     44                     45
                      A                      A                      A
 Frequencies --   2995.4526              3002.8412              3007.1575
 Red. masses --      1.0518                 1.0568                 1.0570
 Frc consts  --      5.5607                 5.6145                 5.6315
 IR Inten    --    251.5924                 8.1928                 1.4002

                     46                     47                     48
                      A                      A                      A
 Frequencies --   3038.0027              3038.6485              3040.5706
 Red. masses --      1.1085                 1.1125                 1.1087
 Frc consts  --      6.0277                 6.0521                 6.0393
 IR Inten    --      0.0000                60.6557                 0.0212

                     49                     50                     51
                      A                      A                      A
 Frequencies --   3041.7043              3107.3998              3192.0737
 Red. masses --      1.1131                 1.0536                 1.1161
 Frc consts  --      6.0678                 5.9943                 6.7005
 IR Inten    --    118.1929                11.7738                 6.5047

 - Thermochemistry -
 -------------------
 Temperature   298.150 Kelvin.  Pressure   1.00000 Atm.
 Atom     1 has atomic number  6 and mass  12.00000

 Molecular mass:   126.06808 amu.
 Principal axes and moments of inertia in atomic units:
                           1         2         3
     Eigenvalues --   530.507021635.459171650.94321
           X            1.00000   0.00000   0.00000
           Y            0.00000   1.00000   0.00004
           Z            0.00000  -0.00004   1.00000
 This molecule is an asymmetric top.
 Rotational symmetry number  1.
 Warning -- assumption of classical behavior for rotation
           may cause significant error
 Rotational temperatures (Kelvin)      0.16327     0.05296     0.05246
 Rotational constants (GHZ):           3.40192     1.10351     1.09316
 Zero-point vibrational energy     417133.5 (Joules/Mol)
                                   99.69729 (Kcal/Mol)
 Warning -- explicit consideration of  10 degrees of freedom as
           vibrations may cause significant error
 Vibrational temperatures:    103.43   154.40   204.74   221.48   358.81
          (Kelvin)            527.38   586.21   613.54   723.88   865.44
                             1221.34  1229.51  1247.40  1270.60  1281.20
                             1391.45  1395.52  1432.97  1446.98  1480.07
                             1489.53  1503.21  1602.67  1629.08  1652.37
                             1655.99  1660.36  1676.11  1679.68  1736.63
                             1792.82  1878.71  1882.79  1947.36  1973.16
                             2078.54  2163.13  2173.18  2179.78  2198.51
                             2210.30  4304.54  4309.78  4320.41  4326.62
                             4371.00  4371.93  4374.70  4376.33  4470.85
                             4592.68

 Zero-point correction=                           0.158878 (Hartree/Particle)
 Thermal correction to Energy=                    0.167113
 Thermal correction to Enthalpy=                  0.168057
 Thermal correction to Gibbs Free Energy=         0.125420
 Sum of electronic and zero-point Energies=           -422.954062
 Sum of electronic and thermal Energies=              -422.945827
 Sum of electronic and thermal Enthalpies=            -422.944883
 Sum of electronic and thermal Free Energies=         -422.987520

                     E (Thermal)             CV                S
                      KCal/Mol        Cal/Mol-Kelvin    Cal/Mol-Kelvin
 Total                  104.865             30.488             89.738
 Electronic               0.000              0.000              0.000
 Translational            0.889              2.981             40.409
 Rotational               0.889              2.981             28.751
 Vibrational            103.087             24.527             20.579
 Vibration     1          0.598              1.967              4.101
 Vibration     2          0.606              1.943              3.317
 Vibration     3          0.616              1.911              2.773
 Vibration     4          0.619              1.898              2.623
 Vibration     5          0.662              1.764              1.735
 Vibration     6          0.739              1.541              1.094
 Vibration     7          0.772              1.454              0.936
 Vibration     8          0.788              1.413              0.870
 Vibration     9          0.858              1.243              0.650
 Vibration    10          0.960              1.029              0.447

 Optimization completed.
    -- Stationary point found.
 Normal termination of Gaussian 09 at Mon Jan 27 12:04:27 2020.
