 Gaussian 09, Revision D.01,
 Gaussian 09:  ES64L-G09RevD.01 24-Apr-2013

 -----------------------------
 # b3lyp 6-31G(2df,p) opt Freq
 -----------------------------

 -----
 titel
 -----
 Symbolic Z-matrix:
 Charge =  0 Multiplicity = 1

 SCF Done:  E(RB3LYP) =  -423.134311114     A.U. after   14 cycles
 Optimization completed.
    -- Stationary point found.
 Normal termination of Gaussian 09 at Mon Jan 27 23:47:50 2020.

 ----------------------------------------------------------------------
 #N Geom=AllCheck Guess=TCheck SCRF=Check GenChk RB3LYP/6-31G(2df,p) Fr
 eq
 ----------------------------------------------------------------------

 Structure from the checkpoint file:  "/scratch/puck/g09_46049b55-6dec-4a6e-a43d-7f53b6938990/Gau-78015.chk"
 -----
 titel
 -----
 Charge =  0 Multiplicity = 1

                         Standard orientation:
 ---------------------------------------------------------------------
 Center     Atomic      Atomic             Coordinates (Angstroms)
 Number     Number       Type             X           Y           Z
 ---------------------------------------------------------------------
      1          6           0        0.860792    2.153163    0.088834
      2          6           0        0.505907    0.696925    0.020789
      3          6           0        1.481958   -0.509819   -0.151299
      4          6           0        0.942774   -1.138730    1.151705
      5          6           0       -0.273309   -0.177450    1.098432
      6          6           0       -1.299400   -0.570457    0.000151
      7          8           0       -2.503157    0.169507    0.055583
      8          6           0       -0.313371   -0.051751   -1.081339
      9          8           0        0.762992   -0.982815   -1.312540
     10          1           0        1.412454    2.466666   -0.804742
     11          1           0       -0.032903    2.784468    0.163634
     12          1           0        1.486681    2.370009    0.962181
     13          1           0        2.558578   -0.461651   -0.329391
     14          1           0        0.756477   -2.216132    1.142258
     15          1           0        1.594848   -0.890370    1.995912
     16          1           0       -0.687288    0.200862    2.034809
     17          1           0       -1.584869   -1.622910   -0.073589
     18          1           0       -2.287080    1.096968    0.203634
     19          1           0       -0.727676    0.367280   -2.002692
 ---------------------------------------------------------------------

 SCF Done:  E(RB3LYP) =  -423.134311114     A.U. after    1 cycles

 The electronic state is 1-A.
 Alpha  occ. eigenvalues --  -19.14168 -19.13498 -10.23333 -10.22846 -10.22736
 Alpha  occ. eigenvalues --  -10.20013 -10.19144 -10.19007 -10.18624  -1.04873
 Alpha  occ. eigenvalues --   -1.02091  -0.84698  -0.74659  -0.73762  -0.64499
 Alpha  occ. eigenvalues --   -0.61128  -0.60814  -0.52067  -0.51736  -0.47942
 Alpha  occ. eigenvalues --   -0.46052  -0.44873  -0.42522  -0.41443  -0.40811
 Alpha  occ. eigenvalues --   -0.39944  -0.37864  -0.37213  -0.35356  -0.31328
 Alpha  occ. eigenvalues --   -0.27801  -0.27490  -0.27022  -0.23285
 Alpha virt. eigenvalues --    0.04819   0.08063   0.09175   0.10858   0.11821
 Alpha virt. eigenvalues --    0.13594   0.14397   0.15232   0.15675   0.16160
 Alpha virt. eigenvalues --    0.17529   0.18512   0.19794   0.21328   0.22027

 Mulliken charges:
               1
     1  C   -0.537184
     2  C    0.305658
     3  C    0.058618
     4  C   -0.249270
     5  C   -0.151282
     6  C    0.126390
     7  O   -0.434847
     8  C    0.012155
     9  O   -0.303721
    10  H    0.131265
    11  H    0.113653
    12  H    0.125273
    13  H    0.076353
    14  H    0.105512
    15  H    0.103281
    16  H    0.068722
    17  H    0.091321
    18  H    0.280838
    19  H    0.077267
 Sum of Mulliken charges =   0.00000

 Dipole moment (field-independent basis, Debye):
    X=              1.1878    Y=              1.9711    Z=              1.4222  Tot=              2.7054
 Quadrupole moment (field-independent basis, Debye-Ang):
   XX=            -56.8831   YY=            -51.2514   ZZ=            -54.4716
   XY=             -0.9298   XZ=              1.7258   YZ=             -1.9406

  Exact polarizability:  77.715  -0.872  75.296   2.367  -2.219  69.768
 Approx polarizability: 111.987  -2.892 107.603   2.188   0.310 106.073

                      1                      2                      3
                      A                      A                      A
 Frequencies --    138.0399               214.1912               219.3768
 Red. masses --      3.8772                 1.4169                 1.5301
 Frc consts  --      0.0435                 0.0383                 0.0434
 IR Inten    --      1.4189                 8.9263                 1.5919

                      4                      5                      6
                      A                      A                      A
 Frequencies --    237.2108               276.6659               328.3862
 Red. masses --      1.0731                 2.6961                 3.3098
 Frc consts  --      0.0356                 0.1216                 0.2103
 IR Inten    --     49.2134                 2.2912                25.1139

                      7                      8                      9
                      A                      A                      A
 Frequencies --    357.4647               396.4778               461.9803
 Red. masses --      3.7800                 2.7077                 4.8197
 Frc consts  --      0.2846                 0.2508                 0.6061
 IR Inten    --      1.9097                 0.8556                 1.3990

                     10                     11                     12
                      A                      A                      A
 Frequencies --    597.3445               695.2349               734.7536
 Red. masses --      3.0760                 4.3368                 4.2542
 Frc consts  --      0.6467                 1.2350                 1.3532
 IR Inten    --      1.6611                 3.4286                10.2542

                     13                     14                     15
                      A                      A                      A
 Frequencies --    830.6041               841.8445               862.5321
 Red. masses --      2.4327                 2.1595                 1.8358
 Frc consts  --      0.9888                 0.9017                 0.8047
 IR Inten    --      6.0111                 6.6918                 2.1465

                     16                     17                     18
                      A                      A                      A
 Frequencies --    906.7991               918.2437               962.1091
 Red. masses --      2.0099                 1.9165                 2.3596
 Frc consts  --      0.9738                 0.9521                 1.2869
 IR Inten    --     12.5843                 0.3291                19.6740

                     19                     20                     21
                      A                      A                      A
 Frequencies --    986.5684               998.0503              1027.7363
 Red. masses --      2.2708                 2.4173                 4.2319
 Frc consts  --      1.3022                 1.4187                 2.6336
 IR Inten    --      8.8047                12.3953                42.5411

                     22                     23                     24
                      A                      A                      A
 Frequencies --   1047.6768              1091.7034              1113.2120
 Red. masses --      2.6081                 2.4676                 1.7298
 Frc consts  --      1.6866                 1.7327                 1.2630
 IR Inten    --     43.8016                74.2265                 7.9634

                     25                     26                     27
                      A                      A                      A
 Frequencies --   1135.9314              1158.9921              1169.0575
 Red. masses --      1.5406                 2.2200                 1.8878
 Frc consts  --      1.1712                 1.7570                 1.5201
 IR Inten    --      2.6210                 1.3603                 3.2365

                     28                     29                     30
                      A                      A                      A
 Frequencies --   1169.7323              1193.9623              1239.4468
 Red. masses --      1.7780                 2.3320                 1.2402
 Frc consts  --      1.4333                 1.9587                 1.1225
 IR Inten    --      0.2805                11.4114                 1.9912

                     31                     32                     33
                      A                      A                      A
 Frequencies --   1246.2943              1260.6141              1285.3079
 Red. masses --      1.5660                 1.5447                 1.6264
 Frc consts  --      1.4331                 1.4463                 1.5831
 IR Inten    --      5.9626                 1.5047                 3.4594

                     34                     35                     36
                      A                      A                      A
 Frequencies --   1315.5937              1326.4932              1364.7240
 Red. masses --      1.5242                 1.5212                 2.6033
 Frc consts  --      1.5543                 1.5771                 2.8567
 IR Inten    --      4.4581                 9.8802                 6.0851

                     37                     38                     39
                      A                      A                      A
 Frequencies --   1412.9794              1416.7962              1470.1649
 Red. masses --      1.2776                 1.3714                 1.1147
 Frc consts  --      1.5029                 1.6219                 1.4195
 IR Inten    --     20.0071                43.2934                 3.6445

                     40                     41                     42
                      A                      A                      A
 Frequencies --   1487.5298              1490.4336              3017.6855
 Red. masses --      1.0474                 1.0492                 1.0356
 Frc consts  --      1.3655                 1.3732                 5.5564
 IR Inten    --      3.9498                 6.2337                30.6245

                     43                     44                     45
                      A                      A                      A
 Frequencies --   3044.1434              3072.4671              3078.3732
 Red. masses --      1.0588                 1.0880                 1.0998
 Frc consts  --      5.7808                 6.0512                 6.1405
 IR Inten    --     27.7004                56.7275                23.5633

                     46                     47                     48
                      A                      A                      A
 Frequencies --   3083.9896              3085.7847              3088.5352
 Red. masses --      1.0886                 1.0896                 1.1009
 Frc consts  --      6.1001                 6.1130                 6.1874
 IR Inten    --     45.2190                50.5325                20.7359

                     49                     50                     51
                      A                      A                      A
 Frequencies --   3095.4513              3104.5678              3798.8589
 Red. masses --      1.0919                 1.1056                 1.0658
 Frc consts  --      6.1644                 6.2786                 9.0621
 IR Inten    --     17.0747                29.2960                 9.6215

 - Thermochemistry -
 -------------------
 Temperature   298.150 Kelvin.  Pressure   1.00000 Atm.
 Atom     1 has atomic number  6 and mass  12.00000

 Molecular mass:   126.06808 amu.
 Principal axes and moments of inertia in atomic units:
                           1         2         3
     Eigenvalues --   776.044811039.436431191.91930
           X            0.99904   0.03509   0.02622
           Y           -0.03305   0.99666  -0.07474
           Z           -0.02876   0.07380   0.99686
 This molecule is an asymmetric top.
 Rotational symmetry number  1.
 Warning -- assumption of classical behavior for rotation
           may cause significant error
 Rotational temperatures (Kelvin)      0.11161     0.08333     0.07267
 Rotational constants (GHZ):           2.32556     1.73627     1.51415
 Zero-point vibrational energy     417844.3 (Joules/Mol)
                                   99.86719 (Kcal/Mol)
 Warning -- explicit consideration of  10 degrees of freedom as
           vibrations may cause significant error
 Vibrational temperatures:    198.61   308.17   315.63   341.29   398.06
          (Kelvin)            472.47   514.31   570.44   664.69   859.44
                             1000.29  1057.15  1195.05  1211.22  1240.99
                             1304.68  1321.15  1384.26  1419.45  1435.97
                             1478.68  1507.37  1570.72  1601.66  1634.35
                             1667.53  1682.01  1682.98  1717.84  1783.29
                             1793.14  1813.74  1849.27  1892.84  1908.53
                             1963.53  2032.96  2038.45  2115.24  2140.22
                             2144.40  4341.77  4379.84  4420.59  4429.09
                             4437.17  4439.75  4443.71  4453.66  4466.78
                             5465.70

 Zero-point correction=                           0.159149 (Hartree/Particle)
 Thermal correction to Energy=                    0.167094
 Thermal correction to Enthalpy=                  0.168038
 Thermal correction to Gibbs Free Energy=         0.127176
 Sum of electronic and zero-point Energies=           -422.975163
 Sum of electronic and thermal Energies=              -422.967217
 Sum of electronic and thermal Enthalpies=            -422.966273
 Sum of electronic and thermal Free Energies=         -423.007135

                     E (Thermal)             CV                S
                      KCal/Mol        Cal/Mol-Kelvin    Cal/Mol-Kelvin
 Total                  104.853             31.430             86.000
 Electronic               0.000              0.000              0.000
 Translational            0.889              2.981             40.409
 Rotational               0.889              2.981             28.355
 Vibrational            103.075             25.468             17.237
 Vibration     1          0.614              1.915              2.831
 Vibration     2          0.644              1.819              2.008
 Vibration     3          0.647              1.812              1.964
 Vibration     4          0.656              1.784              1.824
 Vibration     5          0.678              1.717              1.554
 Vibration     6          0.712              1.619              1.268
 Vibration     7          0.733              1.560              1.133
 Vibration     8          0.763              1.478              0.976
 Vibration     9          0.820              1.334              0.760
 Vibration    10          0.955              1.037              0.454

 Optimization completed.
    -- Stationary point found.
 Normal termination of Gaussian 09 at Tue Jan 28 00:35:25 2020.
