 Gaussian 09, Revision D.01,
 Gaussian 09:  ES64L-G09RevD.01 24-Apr-2013

 -----------------------------
 # b3lyp 6-31G(2df,p) opt Freq
 -----------------------------

 -----
 titel
 -----
 Symbolic Z-matrix:
 Charge =  0 Multiplicity = 1

 SCF Done:  E(RB3LYP) =  -423.232704155     A.U. after   14 cycles
 Optimization completed.
    -- Stationary point found.
 Normal termination of Gaussian 09 at Mon Jan 27 16:12:27 2020.

 ----------------------------------------------------------------------
 #N Geom=AllCheck Guess=TCheck SCRF=Check GenChk RB3LYP/6-31G(2df,p) Fr
 eq
 ----------------------------------------------------------------------

 Structure from the checkpoint file:  "/scratch/puck/g09_f5865ea0-a397-4c07-9b85-8db07a5d28fd/Gau-176591.chk"
 -----
 titel
 -----
 Charge =  0 Multiplicity = 1

                         Standard orientation:
 ---------------------------------------------------------------------
 Center     Atomic      Atomic             Coordinates (Angstroms)
 Number     Number       Type             X           Y           Z
 ---------------------------------------------------------------------
      1          6           0       -1.613363   -0.541960   -1.260728
      2          6           0       -0.725821   -0.407802    0.000017
      3          6           0       -1.612862   -0.541985    1.261118
      4          6           0        0.328766   -1.480412   -0.000210
      5          6           0        1.629064   -1.226058   -0.000202
      6          6           0        2.175492    0.160476    0.000040
      7          8           0        1.199141    1.204505    0.000087
      8          6           0       -0.139973    1.012470   -0.000062
      9          8           0       -0.849810    1.983150   -0.000185
     10          1           0       -2.375753    0.239627   -1.266298
     11          1           0       -1.019113   -0.455921   -2.175307
     12          1           0       -2.106060   -1.519671   -1.266983
     13          1           0       -1.018262   -0.455903    2.175465
     14          1           0       -2.375302    0.239555    1.266977
     15          1           0       -2.105508   -1.519722    1.267588
     16          1           0       -0.033991   -2.506077   -0.000371
     17          1           0        2.366916   -2.023372   -0.000362
     18          1           0        2.812221    0.325814    0.880069
     19          1           0        2.812387    0.326058   -0.879822
 ---------------------------------------------------------------------

 SCF Done:  E(RB3LYP) =  -423.232704155     A.U. after    1 cycles

 The electronic state is 1-A.
 Alpha  occ. eigenvalues --  -19.18037 -19.11335 -10.30120 -10.25605 -10.21643
 Alpha  occ. eigenvalues --  -10.19968 -10.19701 -10.18300 -10.18299  -1.09489
 Alpha  occ. eigenvalues --   -1.01175  -0.83890  -0.78576  -0.71560  -0.69296
 Alpha  occ. eigenvalues --   -0.62305  -0.61157  -0.53081  -0.49606  -0.48983
 Alpha  occ. eigenvalues --   -0.47336  -0.43364  -0.43000  -0.42502  -0.42089
 Alpha  occ. eigenvalues --   -0.40398  -0.38609  -0.37906  -0.35202  -0.34321
 Alpha  occ. eigenvalues --   -0.32682  -0.29309  -0.26205  -0.25963
 Alpha virt. eigenvalues --    0.00519   0.01923   0.07715   0.10862   0.11941
 Alpha virt. eigenvalues --    0.12675   0.14545   0.15335   0.15752   0.16580
 Alpha virt. eigenvalues --    0.17496   0.18639   0.18950   0.20770   0.21185

 Mulliken charges:
               1
     1  C   -0.403690
     2  C    0.030175
     3  C   -0.403691
     4  C   -0.051053
     5  C   -0.121797
     6  C   -0.108661
     7  O   -0.246972
     8  C    0.427141
     9  O   -0.340442
    10  H    0.144561
    11  H    0.121010
    12  H    0.112195
    13  H    0.121011
    14  H    0.144557
    15  H    0.112204
    16  H    0.097799
    17  H    0.104672
    18  H    0.130490
    19  H    0.130492
 Sum of Mulliken charges =   0.00000

 Dipole moment (field-independent basis, Debye):
    X=              1.5401    Y=             -3.6396    Z=              0.0003  Tot=              3.9521
 Quadrupole moment (field-independent basis, Debye-Ang):
   XX=            -48.2144   YY=            -59.8105   ZZ=            -52.6219
   XY=              1.6517   XZ=             -0.0007   YZ=              0.0007

  Exact polarizability:  97.719  -0.824  74.639   0.000   0.001  60.403
 Approx polarizability: 145.306  -2.896 112.406   0.002   0.000  87.675

                      1                      2                      3
                      A                      A                      A
 Frequencies --     27.7885                94.6014               217.0193
 Red. masses --      3.2173                 4.2256                 1.2523
 Frc consts  --      0.0015                 0.0223                 0.0348
 IR Inten    --      2.5620                 1.3874                 0.5987

                      4                      5                      6
                      A                      A                      A
 Frequencies --    242.3399               262.0190               264.5349
 Red. masses --      2.1202                 2.4332                 1.0376
 Frc consts  --      0.0734                 0.0984                 0.0428
 IR Inten    --      0.0203                 3.1866                 0.6819

                      7                      8                      9
                      A                      A                      A
 Frequencies --    302.1338               329.8922               478.9529
 Red. masses --      2.9221                 2.7678                 5.3988
 Frc consts  --      0.1572                 0.1775                 0.7297
 IR Inten    --      2.8296                 3.1243                 0.6243

                     10                     11                     12
                      A                      A                      A
 Frequencies --    484.1245               496.1201               551.7105
 Red. masses --      2.1588                 6.1477                 5.2169
 Frc consts  --      0.2981                 0.8915                 0.9356
 IR Inten    --      0.7356                 3.5816                 1.9617

                     13                     14                     15
                      A                      A                      A
 Frequencies --    659.2927               740.4917               750.0553
 Red. masses --      5.7110                 1.4780                 4.6982
 Frc consts  --      1.4626                 0.4775                 1.5573
 IR Inten    --      0.2434                31.6423                 0.0522

                     16                     17                     18
                      A                      A                      A
 Frequencies --    826.2305               915.4975               926.8383
 Red. masses --      3.5844                 2.5428                 2.9753
 Frc consts  --      1.4417                 1.2557                 1.5059
 IR Inten    --      1.0886                 9.3589                 3.7378

                     19                     20                     21
                      A                      A                      A
 Frequencies --    950.3037               970.8833              1004.9659
 Red. masses --      1.5238                 2.2191                 1.2043
 Frc consts  --      0.8108                 1.2324                 0.7166
 IR Inten    --      0.6879                 0.5228                 0.4325

                     22                     23                     24
                      A                      A                      A
 Frequencies --   1029.8658              1032.1259              1082.9869
 Red. masses --      1.3399                 1.7300                 2.7507
 Frc consts  --      0.8373                 1.0858                 1.9008
 IR Inten    --      1.5606                 8.2175                50.2598

                     25                     26                     27
                      A                      A                      A
 Frequencies --   1150.7220              1164.6367              1200.8802
 Red. masses --      3.5916                 1.5799                 2.6933
 Frc consts  --      2.8020                 1.2626                 2.2884
 IR Inten    --      2.7005               127.8549                84.7614

                     28                     29                     30
                      A                      A                      A
 Frequencies --   1231.6401              1258.7411              1313.7786
 Red. masses --      2.4015                 1.0626                 2.4346
 Frc consts  --      2.1464                 0.9920                 2.4758
 IR Inten    --     25.9971                 0.0175                57.1675

                     31                     32                     33
                      A                      A                      A
 Frequencies --   1386.3618              1397.1334              1427.0284
 Red. masses --      1.1964                 1.3116                 1.5598
 Frc consts  --      1.3548                 1.5085                 1.8714
 IR Inten    --      2.5487                 0.4438                 1.2527

                     34                     35                     36
                      A                      A                      A
 Frequencies --   1432.0471              1478.8967              1489.3015
 Red. masses --      1.4634                 1.0474                 1.0468
 Frc consts  --      1.7681                 1.3497                 1.3680
 IR Inten    --     45.1654                 1.2127                 1.6535

                     37                     38                     39
                      A                      A                      A
 Frequencies --   1498.1506              1504.9547              1512.5830
 Red. masses --      1.0620                 1.0895                 1.0701
 Frc consts  --      1.4043                 1.4539                 1.4425
 IR Inten    --      5.1414                 5.7403                13.5333

                     40                     41                     42
                      A                      A                      A
 Frequencies --   1754.0261              1825.9576              3008.1763
 Red. masses --      7.3637                12.4912                 1.0576
 Frc consts  --     13.3480                24.5377                 5.6385
 IR Inten    --      1.8745               259.3855                51.2851

                     43                     44                     45
                      A                      A                      A
 Frequencies --   3030.2917              3037.1630              3040.3905
 Red. masses --      1.1048                 1.0348                 1.0354
 Frc consts  --      5.9773                 5.6237                 5.6391
 IR Inten    --     19.9292                23.4749                15.5868

                     46                     47                     48
                      A                      A                      A
 Frequencies --   3106.3141              3108.9141              3134.1264
 Red. masses --      1.1020                 1.1017                 1.1020
 Frc consts  --      6.2651                 6.2740                 6.3775
 IR Inten    --     14.0635                27.0360                 2.5544

                     49                     50                     51
                      A                      A                      A
 Frequencies --   3137.5989              3146.1919              3176.7539
 Red. masses --      1.1012                 1.0850                 1.0962
 Frc consts  --      6.3870                 6.3280                 6.5179
 IR Inten    --     17.5810                 9.7755                15.7252

 - Thermochemistry -
 -------------------
 Temperature   298.150 Kelvin.  Pressure   1.00000 Atm.
 Atom     1 has atomic number  6 and mass  12.00000

 Molecular mass:   126.06808 amu.
 Principal axes and moments of inertia in atomic units:
                           1         2         3
     Eigenvalues --   796.712541047.453771446.14496
           X            0.99878   0.04944   0.00000
           Y           -0.04944   0.99878   0.00000
           Z            0.00000   0.00000   1.00000
 This molecule is an asymmetric top.
 Rotational symmetry number  1.
 Warning -- assumption of classical behavior for rotation
           may cause significant error
 Rotational temperatures (Kelvin)      0.10871     0.08269     0.05989
 Rotational constants (GHZ):           2.26524     1.72298     1.24797
 Zero-point vibrational energy     416261.8 (Joules/Mol)
                                   99.48895 (Kcal/Mol)
 Warning -- explicit consideration of  12 degrees of freedom as
           vibrations may cause significant error
 Vibrational temperatures:     39.98   136.11   312.24   348.67   376.99
          (Kelvin)            380.61   434.70   474.64   689.11   696.55
                              713.81   793.79   948.57  1065.40  1079.16
                             1188.76  1317.20  1333.51  1367.27  1396.88
                             1445.92  1481.75  1485.00  1558.17  1655.63
                             1675.65  1727.80  1772.05  1811.05  1890.23
                             1994.66  2010.16  2053.17  2060.39  2127.80
                             2142.77  2155.50  2165.29  2176.27  2523.65
                             2627.14  4328.09  4359.91  4369.79  4374.44
                             4469.29  4473.03  4509.30  4514.30  4526.66
                             4570.63

 Zero-point correction=                           0.158546 (Hartree/Particle)
 Thermal correction to Energy=                    0.167525
 Thermal correction to Enthalpy=                  0.168469
 Thermal correction to Gibbs Free Energy=         0.124236
 Sum of electronic and zero-point Energies=           -423.074158
 Sum of electronic and thermal Energies=              -423.065179
 Sum of electronic and thermal Enthalpies=            -423.064235
 Sum of electronic and thermal Free Energies=         -423.108468

                     E (Thermal)             CV                S
                      KCal/Mol        Cal/Mol-Kelvin    Cal/Mol-Kelvin
 Total                  105.124             33.395             93.097
 Electronic               0.000              0.000              0.000
 Translational            0.889              2.981             40.409
 Rotational               0.889              2.981             28.580
 Vibrational            103.346             27.434             24.108
 Vibration     1          0.593              1.984              5.981
 Vibration     2          0.603              1.953              3.563
 Vibration     3          0.646              1.815              1.984
 Vibration     4          0.659              1.775              1.786
 Vibration     5          0.669              1.742              1.648
 Vibration     6          0.671              1.738              1.632
 Vibration     7          0.694              1.670              1.405
 Vibration     8          0.713              1.616              1.261
 Vibration     9          0.835              1.297              0.713
 Vibration    10          0.840              1.285              0.699
 Vibration    11          0.852              1.259              0.668
 Vibration    12          0.907              1.136              0.541

 Optimization completed.
    -- Stationary point found.
 Normal termination of Gaussian 09 at Mon Jan 27 16:58:53 2020.
