 Gaussian 09, Revision D.01,
 Gaussian 09:  ES64L-G09RevD.01 24-Apr-2013

 -----------------------------
 # b3lyp 6-31G(2df,p) opt Freq
 -----------------------------

 -----
 titel
 -----
 Symbolic Z-matrix:
 Charge =  0 Multiplicity = 1

 SCF Done:  E(RB3LYP) =  -423.160252826     A.U. after   14 cycles
 Optimization completed.
    -- Stationary point found.
 Normal termination of Gaussian 09 at Tue Jan 28 02:16:30 2020.

 ----------------------------------------------------------------------
 #N Geom=AllCheck Guess=TCheck SCRF=Check GenChk RB3LYP/6-31G(2df,p) Fr
 eq
 ----------------------------------------------------------------------

 Structure from the checkpoint file:  "/scratch/puck/g09_8f01245a-5768-4f56-9661-3cb0d24e4540/Gau-105186.chk"
 -----
 titel
 -----
 Charge =  0 Multiplicity = 1

                         Standard orientation:
 ---------------------------------------------------------------------
 Center     Atomic      Atomic             Coordinates (Angstroms)
 Number     Number       Type             X           Y           Z
 ---------------------------------------------------------------------
      1          8           0        3.443423    0.388241   -0.232237
      2          6           0        2.321173   -0.101473    0.440142
      3          6           0        1.680937   -1.391706   -0.007436
      4          6           0        1.027152   -0.055832   -0.315597
      5          6           0       -0.241157    0.357364    0.355532
      6          6           0       -0.949465    1.614343   -0.019031
      7          6           0       -1.557310    0.275621   -0.422322
      8          6           0       -2.757195   -0.197429    0.296238
      9          8           0       -3.633630   -0.875638   -0.179783
     10          1           0        4.201300   -0.147917    0.024650
     11          1           0        2.282666    0.131738    1.505228
     12          1           0        2.146628   -1.915382   -0.834868
     13          1           0        1.224813   -2.030568    0.742034
     14          1           0        1.131238    0.278229   -1.344240
     15          1           0       -0.314590    0.066979    1.401637
     16          1           0       -1.453345    2.178874    0.758934
     17          1           0       -0.542838    2.218769   -0.822058
     18          1           0       -1.502657   -0.014981   -1.465713
     19          1           0       -2.796379    0.128108    1.365401
 ---------------------------------------------------------------------

 SCF Done:  E(RB3LYP) =  -423.160252826     A.U. after    1 cycles

 The electronic state is 1-A.
 Alpha  occ. eigenvalues --  -19.14833 -19.12834 -10.26550 -10.24202 -10.21583
 Alpha  occ. eigenvalues --  -10.20556 -10.20357 -10.20269 -10.19071  -1.03644
 Alpha  occ. eigenvalues --   -1.03360  -0.88842  -0.84586  -0.67629  -0.64018
 Alpha  occ. eigenvalues --   -0.61232  -0.58438  -0.57086  -0.52911  -0.49875
 Alpha  occ. eigenvalues --   -0.49071  -0.44547  -0.43747  -0.42400  -0.40067
 Alpha  occ. eigenvalues --   -0.39318  -0.38847  -0.36315  -0.35865  -0.31995
 Alpha  occ. eigenvalues --   -0.31067  -0.27003  -0.26400  -0.24390
 Alpha virt. eigenvalues --   -0.01455   0.07120   0.08241   0.09893   0.10869
 Alpha virt. eigenvalues --    0.12476   0.13273   0.14171   0.14696   0.15391
 Alpha virt. eigenvalues --    0.17046   0.18093   0.19711   0.21787   0.23677

 Mulliken charges:
               1
     1  O   -0.423208
     2  C    0.094227
     3  C   -0.333371
     4  C   -0.017854
     5  C   -0.020773
     6  C   -0.306005
     7  C   -0.104382
     8  C    0.164754
     9  O   -0.270175
    10  H    0.288505
    11  H    0.085536
    12  H    0.118632
    13  H    0.114501
    14  H    0.099238
    15  H    0.090370
    16  H    0.123529
    17  H    0.131530
    18  H    0.106909
    19  H    0.058038
 Sum of Mulliken charges =   0.00000

 Dipole moment (field-independent basis, Debye):
    X=              3.1227    Y=              0.4979    Z=              1.2817  Tot=              3.4120
 Quadrupole moment (field-independent basis, Debye-Ang):
   XX=            -62.7159   YY=            -54.0906   ZZ=            -50.6734
   XY=            -10.3272   XZ=             -0.2963   YZ=             -0.4094

  Exact polarizability: 100.955   2.538  71.992   0.267   1.536  66.084
 Approx polarizability: 131.306  11.308 109.734   5.074   3.574 102.839

                      1                      2                      3
                      A                      A                      A
 Frequencies --     46.1210                80.9645               138.9076
 Red. masses --      4.6688                 5.8661                 4.2098
 Frc consts  --      0.0059                 0.0227                 0.0479
 IR Inten    --      2.5303                 3.2264                 2.3808

                      4                      5                      6
                      A                      A                      A
 Frequencies --    169.3567               255.8694               286.2426
 Red. masses --      2.4548                 2.8570                 2.4923
 Frc consts  --      0.0415                 0.1102                 0.1203
 IR Inten    --      0.4330                10.5096                23.5149

                      7                      8                      9
                      A                      A                      A
 Frequencies --    317.7210               339.1265               406.1017
 Red. masses --      1.4256                 2.8821                 2.4865
 Frc consts  --      0.0848                 0.1953                 0.2416
 IR Inten    --     62.5126                12.5426                17.1200

                     10                     11                     12
                      A                      A                      A
 Frequencies --    436.1732               464.2603               527.3714
 Red. masses --      2.6938                 2.6038                 4.1555
 Frc consts  --      0.3019                 0.3307                 0.6809
 IR Inten    --      4.2035                 3.1936                13.6416

                     13                     14                     15
                      A                      A                      A
 Frequencies --    783.7933               816.5571               846.7474
 Red. masses --      1.9726                 2.1696                 2.8607
 Frc consts  --      0.7140                 0.8523                 1.2085
 IR Inten    --      3.9169                 2.7525                16.1177

                     16                     17                     18
                      A                      A                      A
 Frequencies --    864.5371               889.9217               922.2297
 Red. masses --      1.2774                 1.3866                 3.2451
 Frc consts  --      0.5625                 0.6470                 1.6262
 IR Inten    --     14.7125                 1.6999                51.9983

                     19                     20                     21
                      A                      A                      A
 Frequencies --    959.1691               988.5432              1040.5727
 Red. masses --      2.6055                 2.4812                 1.4001
 Frc consts  --      1.4123                 1.4286                 0.8932
 IR Inten    --     21.0013                 6.5675                14.2437

                     22                     23                     24
                      A                      A                      A
 Frequencies --   1045.6193              1060.5812              1075.9830
 Red. masses --      1.7507                 1.3997                 1.3780
 Frc consts  --      1.1278                 0.9276                 0.9399
 IR Inten    --      1.8527                 7.3790                 2.8628

                     25                     26                     27
                      A                      A                      A
 Frequencies --   1086.4459              1101.5796              1124.8994
 Red. masses --      2.0159                 1.1046                 1.0953
 Frc consts  --      1.4020                 0.7897                 0.8166
 IR Inten    --     38.7873                 2.8815                 1.5818

                     28                     29                     30
                      A                      A                      A
 Frequencies --   1180.2676              1182.1795              1217.9364
 Red. masses --      1.8286                 2.2148                 2.1410
 Frc consts  --      1.5008                 1.8237                 1.8712
 IR Inten    --     69.3877                 1.9222                 4.9209

                     31                     32                     33
                      A                      A                      A
 Frequencies --   1223.1318              1225.5450              1277.7221
 Red. masses --      2.1467                 1.6760                 1.2563
 Frc consts  --      1.8922                 1.4831                 1.2084
 IR Inten    --     35.9647                 7.3271                 5.5822

                     34                     35                     36
                      A                      A                      A
 Frequencies --   1304.2120              1334.6670              1411.7784
 Red. masses --      1.2499                 1.4570                 1.3824
 Frc consts  --      1.2527                 1.5291                 1.6234
 IR Inten    --     59.9312                 9.5957                 1.1278

                     37                     38                     39
                      A                      A                      A
 Frequencies --   1438.5293              1452.1802              1484.8760
 Red. masses --      1.2360                 1.3050                 1.3377
 Frc consts  --      1.5069                 1.6215                 1.7378
 IR Inten    --      1.1770                 5.7628                 5.4116

                     40                     41                     42
                      A                      A                      A
 Frequencies --   1504.8676              1821.0141              2824.9144
 Red. masses --      2.1930                10.1666                 1.0804
 Frc consts  --      2.9261                19.8634                 5.0799
 IR Inten    --     21.7287               295.2706               103.5515

                     43                     44                     45
                      A                      A                      A
 Frequencies --   3088.7139              3125.8841              3131.2928
 Red. masses --      1.0871                 1.0825                 1.0567
 Frc consts  --      6.1107                 6.2319                 6.1045
 IR Inten    --     29.8557                 5.1639                14.4823

                     46                     47                     48
                      A                      A                      A
 Frequencies --   3133.4768              3152.3086              3180.7352
 Red. masses --      1.0573                 1.0880                 1.0901
 Frc consts  --      6.1165                 6.3697                 6.4978
 IR Inten    --      7.1037                 6.1919                 3.3162

                     49                     50                     51
                      A                      A                      A
 Frequencies --   3221.6875              3222.6603              3799.9830
 Red. masses --      1.1162                 1.1166                 1.0662
 Frc consts  --      6.8257                 6.8322                 9.0706
 IR Inten    --      3.8587                 8.8599                21.0752

 - Thermochemistry -
 -------------------
 Temperature   298.150 Kelvin.  Pressure   1.00000 Atm.
 Atom     1 has atomic number  8 and mass  15.99491

 Molecular mass:   126.06808 amu.
 Principal axes and moments of inertia in atomic units:
                           1         2         3
     Eigenvalues --   400.068572533.247872774.43598
           X            0.99982  -0.01873  -0.00231
           Y            0.01874   0.99982   0.00101
           Z            0.00229  -0.00105   1.00000
 This molecule is an asymmetric top.
 Rotational symmetry number  1.
 Rotational temperatures (Kelvin)      0.21650     0.03419     0.03122
 Rotational constants (GHZ):           4.51108     0.71242     0.65049
 Zero-point vibrational energy     412807.1 (Joules/Mol)
                                   98.66327 (Kcal/Mol)
 Warning -- explicit consideration of  12 degrees of freedom as
           vibrations may cause significant error
 Vibrational temperatures:     66.36   116.49   199.86   243.67   368.14
          (Kelvin)            411.84   457.13   487.93   584.29   627.56
                              667.97   758.77  1127.70  1174.84  1218.28
                             1243.87  1280.40  1326.88  1380.03  1422.29
                             1497.15  1504.41  1525.94  1548.10  1563.15
                             1584.93  1618.48  1698.14  1700.89  1752.34
                             1759.81  1763.28  1838.35  1876.47  1920.29
                             2031.23  2069.72  2089.36  2136.40  2165.17
                             2620.03  4064.42  4443.96  4497.44  4505.23
                             4508.37  4535.46  4576.36  4635.28  4636.68
                             5467.32

 Zero-point correction=                           0.157230 (Hartree/Particle)
 Thermal correction to Energy=                    0.166484
 Thermal correction to Enthalpy=                  0.167429
 Thermal correction to Gibbs Free Energy=         0.122360
 Sum of electronic and zero-point Energies=           -423.003023
 Sum of electronic and thermal Energies=              -422.993768
 Sum of electronic and thermal Enthalpies=            -422.992824
 Sum of electronic and thermal Free Energies=         -423.037893

                     E (Thermal)             CV                S
                      KCal/Mol        Cal/Mol-Kelvin    Cal/Mol-Kelvin
 Total                  104.471             33.997             94.855
 Electronic               0.000              0.000              0.000
 Translational            0.889              2.981             40.409
 Rotational               0.889              2.981             29.421
 Vibrational            102.693             28.035             25.026
 Vibration     1          0.595              1.979              4.977
 Vibration     2          0.600              1.962              3.867
 Vibration     3          0.615              1.914              2.819
 Vibration     4          0.625              1.880              2.443
 Vibration     5          0.666              1.753              1.690
 Vibration     6          0.684              1.699              1.496
 Vibration     7          0.704              1.640              1.322
 Vibration     8          0.719              1.597              1.216
 Vibration     9          0.771              1.457              0.940
 Vibration    10          0.797              1.391              0.839
 Vibration    11          0.822              1.329              0.754
 Vibration    12          0.882              1.189              0.593

 Optimization completed.
    -- Stationary point found.
 Normal termination of Gaussian 09 at Tue Jan 28 02:53:07 2020.
