 Gaussian 09, Revision D.01,
 Gaussian 09:  ES64L-G09RevD.01 24-Apr-2013

 -----------------------------
 # b3lyp 6-31G(2df,p) opt Freq
 -----------------------------

 -----
 titel
 -----
 Symbolic Z-matrix:
 Charge =  0 Multiplicity = 1

 SCF Done:  E(RB3LYP) =  -423.176706623     A.U. after   13 cycles
 Optimization completed.
    -- Stationary point found.
 Normal termination of Gaussian 09 at Mon Jan 27 19:03:27 2020.

 ----------------------------------------------------------------------
 #N Geom=AllCheck Guess=TCheck SCRF=Check GenChk RB3LYP/6-31G(2df,p) Fr
 eq
 ----------------------------------------------------------------------

 Structure from the checkpoint file:  "/scratch/puck/g09_575c9107-b0e4-4f19-ac44-4b6d8805c6bf/Gau-183529.chk"
 -----
 titel
 -----
 Charge =  0 Multiplicity = 1

                         Standard orientation:
 ---------------------------------------------------------------------
 Center     Atomic      Atomic             Coordinates (Angstroms)
 Number     Number       Type             X           Y           Z
 ---------------------------------------------------------------------
      1          6           0       -2.540681   -0.255973    0.026933
      2          6           0       -1.050482   -0.084064   -0.047048
      3          8           0       -0.638889    1.027872   -0.810598
      4          6           0        0.423726    1.685750   -0.121453
      5          6           0        1.095885    0.607238    0.744375
      6          6           0        1.978492   -0.336985   -0.089851
      7          8           0        1.077344   -1.202477   -0.783893
      8          6           0       -0.108689   -1.282024   -0.039939
      9          6           0       -0.098918   -0.299861    1.106710
     10          1           0       -3.009536    0.595506    0.531487
     11          1           0       -2.965366   -0.332180   -0.979111
     12          1           0       -2.799412   -1.166536    0.575739
     13          1           0        1.092132    2.124969   -0.868852
     14          1           0        0.024463    2.494978    0.509347
     15          1           0        1.619524    1.021943    1.607938
     16          1           0        2.589448    0.182076   -0.834921
     17          1           0        2.642762   -0.924833    0.561793
     18          1           0       -0.512282   -2.286501    0.045897
     19          1           0       -0.385371   -0.517074    2.128235
 ---------------------------------------------------------------------

 SCF Done:  E(RB3LYP) =  -423.176706623     A.U. after    1 cycles

 The electronic state is 1-A.
 Alpha  occ. eigenvalues --  -19.13816 -19.13691 -10.23466 -10.22807 -10.22804
 Alpha  occ. eigenvalues --  -10.22781 -10.19943 -10.18953 -10.17997  -1.05588
 Alpha  occ. eigenvalues --   -1.02134  -0.84013  -0.78738  -0.71803  -0.67316
 Alpha  occ. eigenvalues --   -0.60131  -0.58078  -0.56011  -0.52211  -0.47172
 Alpha  occ. eigenvalues --   -0.46084  -0.44349  -0.43282  -0.42311  -0.40796
 Alpha  occ. eigenvalues --   -0.40117  -0.38927  -0.35285  -0.33964  -0.33190
 Alpha  occ. eigenvalues --   -0.32110  -0.27925  -0.25297  -0.21806
 Alpha virt. eigenvalues --    0.08494   0.10206   0.10577   0.11565   0.13268
 Alpha virt. eigenvalues --    0.14311   0.14873   0.15001   0.16137   0.17187
 Alpha virt. eigenvalues --    0.18060   0.18629   0.19885   0.19978   0.20634

 Mulliken charges:
               1
     1  C   -0.478558
     2  C    0.422866
     3  O   -0.293175
     4  C   -0.081329
     5  C   -0.086416
     6  C   -0.073314
     7  O   -0.254407
     8  C    0.028691
     9  C   -0.219811
    10  H    0.122122
    11  H    0.134354
    12  H    0.116934
    13  H    0.107042
    14  H    0.090302
    15  H    0.080464
    16  H    0.108469
    17  H    0.091781
    18  H    0.093784
    19  H    0.090199
 Sum of Mulliken charges =   0.00000

 Dipole moment (field-independent basis, Debye):
    X=              0.3078    Y=              0.4728    Z=              2.3446  Tot=              2.4116
 Quadrupole moment (field-independent basis, Debye-Ang):
   XX=            -49.9607   YY=            -52.7822   ZZ=            -54.6801
   XY=              4.1366   XZ=              0.1293   YZ=             -0.5686

  Exact polarizability:  84.517   3.188  73.624   0.162  -0.314  63.740
 Approx polarizability: 110.990   2.867 107.368   1.118   0.867 102.793

                      1                      2                      3
                      A                      A                      A
 Frequencies --    141.5956               199.5482               208.9312
 Red. masses --      2.5197                 1.3166                 2.0577
 Frc consts  --      0.0298                 0.0309                 0.0529
 IR Inten    --      2.8757                 1.6696                 1.7747

                      4                      5                      6
                      A                      A                      A
 Frequencies --    264.3724               313.7915               385.4570
 Red. masses --      4.5098                 2.7856                 1.8952
 Frc consts  --      0.1857                 0.1616                 0.1659
 IR Inten    --      0.5815                 0.8149                 0.2764

                      7                      8                      9
                      A                      A                      A
 Frequencies --    517.1364               596.2883               614.5965
 Red. masses --      4.0308                 3.3057                 3.7569
 Frc consts  --      0.6351                 0.6925                 0.8361
 IR Inten    --      1.1400                 9.8455                 1.7418

                     10                     11                     12
                      A                      A                      A
 Frequencies --    735.5700               756.4390               785.5620
 Red. masses --      7.2356                 4.6000                 2.8811
 Frc consts  --      2.3066                 1.5508                 1.0475
 IR Inten    --     10.2155                18.2128                 0.9864

                     13                     14                     15
                      A                      A                      A
 Frequencies --    829.4582               844.4248               872.8797
 Red. masses --      2.6236                 2.6283                 2.3476
 Frc consts  --      1.0635                 1.1042                 1.0538
 IR Inten    --      4.4189                 8.1633                 2.1297

                     16                     17                     18
                      A                      A                      A
 Frequencies --    930.2427               951.8637               966.5634
 Red. masses --      2.0869                 1.7964                 1.7005
 Frc consts  --      1.0640                 0.9590                 0.9360
 IR Inten    --      1.8427                 1.4449                 3.5666

                     19                     20                     21
                      A                      A                      A
 Frequencies --    978.3697              1012.2899              1044.5779
 Red. masses --      2.1420                 2.5145                 1.7557
 Frc consts  --      1.2080                 1.5181                 1.1287
 IR Inten    --     10.6864                32.1188                 3.8560

                     22                     23                     24
                      A                      A                      A
 Frequencies --   1061.7119              1087.9213              1112.3230
 Red. masses --      1.9750                 1.9718                 1.9370
 Frc consts  --      1.3117                 1.3750                 1.4120
 IR Inten    --     11.9662                25.7817                 6.2908

                     25                     26                     27
                      A                      A                      A
 Frequencies --   1118.1406              1149.4731              1194.7896
 Red. masses --      2.3116                 3.6478                 1.7657
 Frc consts  --      1.7027                 2.8397                 1.4851
 IR Inten    --     27.2187                92.1750                13.4376

                     28                     29                     30
                      A                      A                      A
 Frequencies --   1215.0537              1227.7496              1235.2668
 Red. masses --      1.2324                 1.7151                 1.6929
 Frc consts  --      1.0720                 1.5232                 1.5220
 IR Inten    --      9.4349                40.7722                12.9431

                     31                     32                     33
                      A                      A                      A
 Frequencies --   1280.9133              1283.2294              1315.7462
 Red. masses --      1.5646                 1.4477                 1.7975
 Frc consts  --      1.5125                 1.4045                 1.8334
 IR Inten    --     10.1865                 8.8760                 2.4018

                     34                     35                     36
                      A                      A                      A
 Frequencies --   1370.6240              1392.0769              1412.0237
 Red. masses --      1.4073                 1.4881                 1.3142
 Frc consts  --      1.5577                 1.6991                 1.5439
 IR Inten    --      4.5240                 0.7482                 6.2757

                     37                     38                     39
                      A                      A                      A
 Frequencies --   1426.7697              1478.4537              1499.2032
 Red. masses --      2.3448                 1.0467                 1.0806
 Frc consts  --      2.8123                 1.3480                 1.4310
 IR Inten    --      5.1924                 2.8338                 1.7310

                     40                     41                     42
                      A                      A                      A
 Frequencies --   1507.9148              1522.9634              2983.8042
 Red. masses --      1.0980                 1.1001                 1.0698
 Frc consts  --      1.4710                 1.5033                 5.6118
 IR Inten    --      0.4021                 0.2111                75.0866

                     43                     44                     45
                      A                      A                      A
 Frequencies --   2987.4318              3033.6541              3075.2544
 Red. masses --      1.0697                 1.0351                 1.0944
 Frc consts  --      5.6249                 5.6124                 6.0982
 IR Inten    --     76.6926                26.9377                 5.9713

                     46                     47                     48
                      A                      A                      A
 Frequencies --   3083.1383              3098.5987              3100.6005
 Red. masses --      1.0943                 1.0878                 1.1013
 Frc consts  --      6.1289                 6.1534                 6.2381
 IR Inten    --     59.3917                24.6753                22.2508

                     49                     50                     51
                      A                      A                      A
 Frequencies --   3111.1633              3152.8445              3183.2055
 Red. masses --      1.1009                 1.0902                 1.0942
 Frc consts  --      6.2786                 6.3852                 6.5324
 IR Inten    --     16.5329                22.9818                11.7480

 - Thermochemistry -
 -------------------
 Temperature   298.150 Kelvin.  Pressure   1.00000 Atm.
 Atom     1 has atomic number  6 and mass  12.00000

 Molecular mass:   126.06808 amu.
 Principal axes and moments of inertia in atomic units:
                           1         2         3
     Eigenvalues --   621.81852 987.650711232.93029
           X            0.99838   0.05689  -0.00160
           Y           -0.05690   0.99831  -0.01175
           Z            0.00093   0.01182   0.99993
 This molecule is an asymmetric top.
 Rotational symmetry number  1.
 Warning -- assumption of classical behavior for rotation
           may cause significant error
 Rotational temperatures (Kelvin)      0.13929     0.08770     0.07025
 Rotational constants (GHZ):           2.90236     1.82731     1.46378
 Zero-point vibrational energy     422592.8 (Joules/Mol)
                                  101.00211 (Kcal/Mol)
 Warning -- explicit consideration of   9 degrees of freedom as
           vibrations may cause significant error
 Vibrational temperatures:    203.72   287.10   300.61   380.37   451.48
          (Kelvin)            554.59   744.04   857.92   884.27  1058.32
                             1088.35  1130.25  1193.40  1214.94  1255.88
                             1338.41  1369.52  1390.67  1407.65  1456.46
                             1502.91  1527.56  1565.27  1600.38  1608.75
                             1653.83  1719.03  1748.19  1766.46  1777.27
                             1842.95  1846.28  1893.06  1972.02  2002.89
                             2031.58  2052.80  2127.16  2157.02  2169.55
                             2191.20  4293.02  4298.24  4364.75  4424.60
                             4435.94  4458.19  4461.07  4476.26  4536.23
                             4579.92

 Zero-point correction=                           0.160957 (Hartree/Particle)
 Thermal correction to Energy=                    0.168255
 Thermal correction to Enthalpy=                  0.169200
 Thermal correction to Gibbs Free Energy=         0.129520
 Sum of electronic and zero-point Energies=           -423.015750
 Sum of electronic and thermal Energies=              -423.008451
 Sum of electronic and thermal Enthalpies=            -423.007507
 Sum of electronic and thermal Free Energies=         -423.047186

                     E (Thermal)             CV                S
                      KCal/Mol        Cal/Mol-Kelvin    Cal/Mol-Kelvin
 Total                  105.582             29.301             83.512
 Electronic               0.000              0.000              0.000
 Translational            0.889              2.981             40.409
 Rotational               0.889              2.981             28.117
 Vibrational            103.804             23.339             14.986
 Vibration     1          0.615              1.912              2.782
 Vibration     2          0.638              1.841              2.137
 Vibration     3          0.642              1.827              2.053
 Vibration     4          0.671              1.738              1.633
 Vibration     5          0.702              1.647              1.342
 Vibration     6          0.754              1.501              1.018
 Vibration     7          0.872              1.212              0.617
 Vibration     8          0.954              1.040              0.456
 Vibration     9          0.974              1.001              0.425

 Normal termination of Gaussian 09 at Mon Jan 27 19:45:51 2020.
