 Gaussian 09, Revision D.01,
 Gaussian 09:  ES64L-G09RevD.01 24-Apr-2013

 -----------------------------
 # b3lyp 6-31G(2df,p) opt Freq
 -----------------------------

 -----
 titel
 -----
 Symbolic Z-matrix:
 Charge =  0 Multiplicity = 1

 SCF Done:  E(RB3LYP) =  -423.216359885     A.U. after   14 cycles
 Optimization completed.
    -- Stationary point found.
 Normal termination of Gaussian 09 at Tue Jan 28 00:38:59 2020.

 ----------------------------------------------------------------------
 #N Geom=AllCheck Guess=TCheck SCRF=Check GenChk RB3LYP/6-31G(2df,p) Fr
 eq
 ----------------------------------------------------------------------

 Structure from the checkpoint file:  "/scratch/puck/g09_146c7fca-bd55-4902-bed0-064a64d3b2ec/Gau-36635.chk"
 -----
 titel
 -----
 Charge =  0 Multiplicity = 1

                         Standard orientation:
 ---------------------------------------------------------------------
 Center     Atomic      Atomic             Coordinates (Angstroms)
 Number     Number       Type             X           Y           Z
 ---------------------------------------------------------------------
      1          6           0       -0.512956   -1.355895    1.614136
      2          6           0       -0.150641   -1.026241    0.152415
      3          6           0        1.283956   -0.452941    0.040442
      4          8           0        1.838453   -0.651743   -1.260428
      5          6           0        1.356025    1.001577    0.433511
      6          6           0        0.297419    1.811752    0.455629
      7          6           0       -1.103703    1.366618    0.126953
      8          6           0       -1.158512   -0.049960   -0.437340
      9          8           0       -1.948453   -0.361722   -1.297616
     10          1           0       -0.441524   -0.475114    2.259262
     11          1           0       -1.528793   -1.754845    1.685844
     12          1           0        0.173946   -2.112206    2.006677
     13          1           0       -0.193685   -1.938255   -0.448898
     14          1           0        1.933434   -1.044746    0.696690
     15          1           0        1.414247   -0.027768   -1.860141
     16          1           0        2.346049    1.391208    0.653632
     17          1           0        0.421922    2.860127    0.716827
     18          1           0       -1.730428    1.401618    1.031794
     19          1           0       -1.584688    2.038246   -0.591813
 ---------------------------------------------------------------------

 SCF Done:  E(RB3LYP) =  -423.216359885     A.U. after    1 cycles

 The electronic state is 1-A.
 Alpha  occ. eigenvalues --  -19.14050 -19.13089 -10.26883 -10.24402 -10.20401
 Alpha  occ. eigenvalues --  -10.20166 -10.19442 -10.19291 -10.19105  -1.04178
 Alpha  occ. eigenvalues --   -1.02196  -0.83767  -0.77865  -0.73514  -0.67741
 Alpha  occ. eigenvalues --   -0.62907  -0.58340  -0.51449  -0.50824  -0.47400
 Alpha  occ. eigenvalues --   -0.46387  -0.45604  -0.43103  -0.42602  -0.41082
 Alpha  occ. eigenvalues --   -0.40167  -0.39050  -0.36770  -0.35255  -0.34638
 Alpha  occ. eigenvalues --   -0.33317  -0.28083  -0.26416  -0.23928
 Alpha virt. eigenvalues --   -0.01953   0.00117   0.07766   0.09909   0.11367
 Alpha virt. eigenvalues --    0.12130   0.13678   0.15188   0.16237   0.16593
 Alpha virt. eigenvalues --    0.17235   0.18812   0.20310   0.21888   0.22351

 Mulliken charges:
               1
     1  C   -0.421648
     2  C   -0.099825
     3  C    0.081676
     4  O   -0.435903
     5  C   -0.101449
     6  C   -0.054044
     7  C   -0.359618
     8  C    0.369449
     9  O   -0.318354
    10  H    0.128458
    11  H    0.132092
    12  H    0.127795
    13  H    0.102757
    14  H    0.089912
    15  H    0.281442
    16  H    0.100835
    17  H    0.102210
    18  H    0.139003
    19  H    0.135212
 Sum of Mulliken charges =   0.00000

 Dipole moment (field-independent basis, Debye):
    X=              0.5967    Y=              1.6959    Z=              2.3226  Tot=              2.9371
 Quadrupole moment (field-independent basis, Debye-Ang):
   XX=            -59.3735   YY=            -50.5411   ZZ=            -54.4862
   XY=             -0.0220   XZ=             -2.4577   YZ=             -2.9701

  Exact polarizability:  81.893  -4.619  79.450   3.600   1.321  67.717
 Approx polarizability: 126.552 -13.047 114.466   8.502   5.811 105.562

                      1                      2                      3
                      A                      A                      A
 Frequencies --     73.4369                93.7745               191.5332
 Red. masses --      5.1751                 3.3281                 2.2355
 Frc consts  --      0.0164                 0.0172                 0.0483
 IR Inten    --      4.8625                 1.4722                 0.2568

                      4                      5                      6
                      A                      A                      A
 Frequencies --    214.3145               243.8625               263.8615
 Red. masses --      1.2666                 2.3085                 1.6079
 Frc consts  --      0.0343                 0.0809                 0.0660
 IR Inten    --      0.2028                 2.3674                22.2323

                      7                      8                      9
                      A                      A                      A
 Frequencies --    319.5557               409.5511               453.8198
 Red. masses --      1.6750                 3.7127                 4.7308
 Frc consts  --      0.1008                 0.3669                 0.5741
 IR Inten    --     65.8729                 5.2683                 9.3099

                     10                     11                     12
                      A                      A                      A
 Frequencies --    482.6868               526.1702               552.6940
 Red. masses --      4.6249                 3.1405                 3.0168
 Frc consts  --      0.6349                 0.5123                 0.5430
 IR Inten    --      1.1536                 3.3821                 0.7497

                     13                     14                     15
                      A                      A                      A
 Frequencies --    618.5978               702.3020               754.9571
 Red. masses --      3.4074                 3.6457                 1.5691
 Frc consts  --      0.7682                 1.0595                 0.5269
 IR Inten    --      0.8439                 1.8518                14.6626

                     16                     17                     18
                      A                      A                      A
 Frequencies --    830.7145               901.6538               932.3054
 Red. masses --      2.3128                 2.2999                 2.1227
 Frc consts  --      0.9404                 1.1016                 1.0871
 IR Inten    --      7.2546                21.3832                 6.4443

                     19                     20                     21
                      A                      A                      A
 Frequencies --    946.5139              1005.9043              1008.6222
 Red. masses --      2.6157                 2.0126                 1.2602
 Frc consts  --      1.3807                 1.1998                 0.7553
 IR Inten    --      9.8436                16.4938                 1.2128

                     22                     23                     24
                      A                      A                      A
 Frequencies --   1014.1082              1042.8479              1078.7077
 Red. masses --      1.9970                 4.0020                 2.1924
 Frc consts  --      1.2100                 2.5643                 1.5031
 IR Inten    --      1.7739                95.7513                22.6523

                     25                     26                     27
                      A                      A                      A
 Frequencies --   1124.3792              1160.2875              1186.0635
 Red. masses --      1.7105                 1.4359                 1.2024
 Frc consts  --      1.2741                 1.1390                 0.9966
 IR Inten    --     19.4633                 9.5084                 1.7203

                     28                     29                     30
                      A                      A                      A
 Frequencies --   1235.8494              1268.9670              1288.0150
 Red. masses --      1.6781                 1.3172                 1.6418
 Frc consts  --      1.5101                 1.2497                 1.6048
 IR Inten    --     15.7976                16.4233                 4.1331

                     31                     32                     33
                      A                      A                      A
 Frequencies --   1321.7676              1331.5324              1373.6290
 Red. masses --      1.3622                 1.7727                 1.4966
 Frc consts  --      1.4022                 1.8517                 1.6637
 IR Inten    --      1.5720                10.3295                14.2044

                     34                     35                     36
                      A                      A                      A
 Frequencies --   1403.5783              1407.6302              1430.2231
 Red. masses --      1.2485                 1.3356                 1.3339
 Frc consts  --      1.4492                 1.5592                 1.6076
 IR Inten    --     10.5543                 5.6416                41.6895

                     37                     38                     39
                      A                      A                      A
 Frequencies --   1443.5613              1498.0356              1500.1777
 Red. masses --      1.0839                 1.0444                 1.0556
 Frc consts  --      1.3308                 1.3809                 1.3997
 IR Inten    --     18.2078                 6.0721                 2.1266

                     40                     41                     42
                      A                      A                      A
 Frequencies --   1716.4508              1815.5933              2998.8787
 Red. masses --      6.7136                11.5166                 1.0698
 Frc consts  --     11.6537                22.3673                 5.6687
 IR Inten    --      4.6975               180.7270                 8.6876

                     43                     44                     45
                      A                      A                      A
 Frequencies --   3034.6390              3039.3663              3074.4492
 Red. masses --      1.0804                 1.0380                 1.0891
 Frc consts  --      5.8619                 5.6497                 6.0656
 IR Inten    --     20.3234                28.0827                 7.5221

                     46                     47                     48
                      A                      A                      A
 Frequencies --   3080.0480              3109.3722              3117.4771
 Red. masses --      1.0862                 1.1012                 1.1016
 Frc consts  --      6.0710                 6.2728                 6.3078
 IR Inten    --      4.3060                18.4692                21.8462

                     49                     50                     51
                      A                      A                      A
 Frequencies --   3149.0996              3175.5914              3801.3198
 Red. masses --      1.0847                 1.0963                 1.0662
 Frc consts  --      6.3378                 6.5137                 9.0774
 IR Inten    --      7.5132                22.6357                16.7403

 - Thermochemistry -
 -------------------
 Temperature   298.150 Kelvin.  Pressure   1.00000 Atm.
 Atom     1 has atomic number  6 and mass  12.00000

 Molecular mass:   126.06808 amu.
 Principal axes and moments of inertia in atomic units:
                           1         2         3
     Eigenvalues --   922.569641144.243441289.86669
           X            0.99941  -0.01190  -0.03213
           Y            0.00800   0.99291  -0.11860
           Z            0.03332   0.11827   0.99242
 This molecule is an asymmetric top.
 Rotational symmetry number  1.
 Warning -- assumption of classical behavior for rotation
           may cause significant error
 Rotational temperatures (Kelvin)      0.09388     0.07570     0.06715
 Rotational constants (GHZ):           1.95621     1.57724     1.39917
 Zero-point vibrational energy     417188.5 (Joules/Mol)
                                   99.71045 (Kcal/Mol)
 Warning -- explicit consideration of  13 degrees of freedom as
           vibrations may cause significant error
 Vibrational temperatures:    105.66   134.92   275.57   308.35   350.86
          (Kelvin)            379.64   459.77   589.25   652.94   694.48
                              757.04   795.20   890.02  1010.45  1086.21
                             1195.21  1297.28  1341.38  1361.82  1447.27
                             1451.18  1459.07  1500.42  1552.02  1617.73
                             1669.39  1706.48  1778.11  1825.76  1853.16
                             1901.73  1915.78  1976.34  2019.43  2025.26
                             2057.77  2076.96  2155.34  2158.42  2469.59
                             2612.23  4314.71  4366.16  4372.96  4423.44
                             4431.50  4473.69  4485.35  4530.85  4568.96
                             5469.24

 Zero-point correction=                           0.158899 (Hartree/Particle)
 Thermal correction to Energy=                    0.167831
 Thermal correction to Enthalpy=                  0.168775
 Thermal correction to Gibbs Free Energy=         0.125254
 Sum of electronic and zero-point Energies=           -423.057461
 Sum of electronic and thermal Energies=              -423.048529
 Sum of electronic and thermal Enthalpies=            -423.047585
 Sum of electronic and thermal Free Energies=         -423.091106

                     E (Thermal)             CV                S
                      KCal/Mol        Cal/Mol-Kelvin    Cal/Mol-Kelvin
 Total                  105.316             33.588             91.598
 Electronic               0.000              0.000              0.000
 Translational            0.889              2.981             40.409
 Rotational               0.889              2.981             28.700
 Vibrational            103.538             27.627             22.489
 Vibration     1          0.599              1.967              4.059
 Vibration     2          0.603              1.954              3.580
 Vibration     3          0.634              1.852              2.213
 Vibration     4          0.644              1.819              2.007
 Vibration     5          0.659              1.773              1.775
 Vibration     6          0.670              1.739              1.636
 Vibration     7          0.705              1.636              1.312
 Vibration     8          0.774              1.449              0.928
 Vibration     9          0.812              1.352              0.784
 Vibration    10          0.839              1.288              0.703
 Vibration    11          0.881              1.192              0.596
 Vibration    12          0.908              1.134              0.539
 Vibration    13          0.978              0.993              0.419

 Optimization completed.
    -- Stationary point found.
 Normal termination of Gaussian 09 at Tue Jan 28 02:51:53 2020.
