 Gaussian 09, Revision D.01,
 Gaussian 09:  ES64L-G09RevD.01 24-Apr-2013

 -----------------------------
 # b3lyp 6-31G(2df,p) opt Freq
 -----------------------------

 -----
 titel
 -----
 Symbolic Z-matrix:
 Charge =  0 Multiplicity = 1

 SCF Done:  E(RB3LYP) =  -423.178823813     A.U. after   14 cycles
 Optimization completed.
    -- Stationary point found.
 Normal termination of Gaussian 09 at Mon Jan 27 13:42:02 2020.

 ----------------------------------------------------------------------
 #N Geom=AllCheck Guess=TCheck SCRF=Check GenChk RB3LYP/6-31G(2df,p) Fr
 eq
 ----------------------------------------------------------------------

 Structure from the checkpoint file:  "/scratch/puck/g09_7cefd5ff-47df-4102-b869-f5c8f51cd466/Gau-157494.chk"
 -----
 titel
 -----
 Charge =  0 Multiplicity = 1

                         Standard orientation:
 ---------------------------------------------------------------------
 Center     Atomic      Atomic             Coordinates (Angstroms)
 Number     Number       Type             X           Y           Z
 ---------------------------------------------------------------------
      1          8           0       -3.268095    0.503251   -0.004571
      2          6           0       -2.259600   -0.006004    0.412454
      3          6           0       -1.270778   -0.775581   -0.444441
      4          6           0        0.150799   -0.299340   -0.247372
      5          6           0        1.400677   -1.086618   -0.711256
      6          6           0        1.961430   -0.309345    0.498495
      7          6           0        1.961106    1.159683    0.029229
      8          6           0        0.521055    1.170739   -0.572763
      9          8           0        0.647038   -0.428013    1.130918
     10          1           0       -1.984891    0.049374    1.487738
     11          1           0       -1.330799   -1.832026   -0.149311
     12          1           0       -1.569705   -0.689718   -1.493286
     13          1           0        1.305914   -2.153573   -0.505833
     14          1           0        1.811114   -0.901148   -1.707407
     15          1           0        2.783943   -0.671224    1.114403
     16          1           0        2.071616    1.846287    0.870725
     17          1           0        2.744217    1.373813   -0.702907
     18          1           0       -0.145088    1.872673   -0.066002
     19          1           0        0.494013    1.382440   -1.644972
 ---------------------------------------------------------------------

 SCF Done:  E(RB3LYP) =  -423.178823813     A.U. after    1 cycles

 The electronic state is 1-A.
 Alpha  occ. eigenvalues --  -19.13916 -19.13794 -10.27132 -10.25308 -10.24337
 Alpha  occ. eigenvalues --  -10.19843 -10.19381 -10.19006 -10.18951  -1.05387
 Alpha  occ. eigenvalues --   -1.04528  -0.80467  -0.78133  -0.72096  -0.68379
 Alpha  occ. eigenvalues --   -0.58664  -0.57387  -0.54952  -0.51192  -0.48021
 Alpha  occ. eigenvalues --   -0.46539  -0.45770  -0.45309  -0.42285  -0.40356
 Alpha  occ. eigenvalues --   -0.37960  -0.37882  -0.35497  -0.35344  -0.34270
 Alpha  occ. eigenvalues --   -0.32823  -0.31862  -0.25684  -0.24668
 Alpha virt. eigenvalues --   -0.02316   0.08243   0.09776   0.10191   0.11693
 Alpha virt. eigenvalues --    0.13419   0.13763   0.14933   0.15818   0.16238
 Alpha virt. eigenvalues --    0.16624   0.17371   0.18019   0.20208   0.20810

 Mulliken charges:
               1
     1  O   -0.243122
     2  C    0.156661
     3  C   -0.392095
     4  C    0.409510
     5  C   -0.280164
     6  C    0.079960
     7  C   -0.215734
     8  C   -0.255823
     9  O   -0.334058
    10  H    0.101845
    11  H    0.127430
    12  H    0.124428
    13  H    0.109290
    14  H    0.096136
    15  H    0.082479
    16  H    0.111801
    17  H    0.101637
    18  H    0.115016
    19  H    0.104803
 Sum of Mulliken charges =   0.00000

 Dipole moment (field-independent basis, Debye):
    X=              2.9594    Y=             -0.8904    Z=             -1.0236  Tot=              3.2556
 Quadrupole moment (field-independent basis, Debye-Ang):
   XX=            -60.8353   YY=            -51.9113   ZZ=            -53.5920
   XY=              3.5887   XZ=             -1.4413   YZ=              0.8715

  Exact polarizability:  87.600  -2.397  70.275   2.127   0.683  67.488
 Approx polarizability: 119.384  -7.209 102.569   4.406  -2.215 107.837

                      1                      2                      3
                      A                      A                      A
 Frequencies --     47.2436                68.7164               154.9743
 Red. masses --      4.7128                 3.5200                 2.6396
 Frc consts  --      0.0062                 0.0098                 0.0374
 IR Inten    --      6.4308                 1.8206                 2.9018

                      4                      5                      6
                      A                      A                      A
 Frequencies --    272.6720               289.6348               385.1582
 Red. masses --      1.9221                 2.7536                 2.6460
 Frc consts  --      0.0842                 0.1361                 0.2313
 IR Inten    --      1.6973                 1.3730                 1.5215

                      7                      8                      9
                      A                      A                      A
 Frequencies --    441.9872               459.4829               559.7993
 Red. masses --      2.1964                 3.1908                 3.0494
 Frc consts  --      0.2528                 0.3969                 0.5630
 IR Inten    --      1.9219                16.0659                 7.6158

                     10                     11                     12
                      A                      A                      A
 Frequencies --    628.9060               715.9590               801.5256
 Red. masses --      2.7614                 3.1300                 2.5893
 Frc consts  --      0.6435                 0.9453                 0.9801
 IR Inten    --      2.6935                 6.8823                10.7951

                     13                     14                     15
                      A                      A                      A
 Frequencies --    826.2026               831.0109               847.0801
 Red. masses --      1.6024                 2.8453                 2.1102
 Frc consts  --      0.6445                 1.1577                 0.8921
 IR Inten    --      1.6617                22.8885                 4.1549

                     16                     17                     18
                      A                      A                      A
 Frequencies --    884.1553               905.6106               941.8277
 Red. masses --      2.2356                 2.7292                 2.4136
 Frc consts  --      1.0297                 1.3188                 1.2614
 IR Inten    --      2.7871                12.1458                 2.1632

                     19                     20                     21
                      A                      A                      A
 Frequencies --    957.2028               993.0666              1020.1469
 Red. masses --      2.5374                 2.5139                 1.7486
 Frc consts  --      1.3698                 1.4607                 1.0722
 IR Inten    --      9.9981                23.7362                23.7765

                     22                     23                     24
                      A                      A                      A
 Frequencies --   1023.4900              1075.5453              1105.3513
 Red. masses --      1.7342                 1.6895                 1.6641
 Frc consts  --      1.0703                 1.1515                 1.1979
 IR Inten    --      1.7816                20.8920                 8.9327

                     25                     26                     27
                      A                      A                      A
 Frequencies --   1143.7925              1159.0801              1178.2175
 Red. masses --      1.9016                 1.4488                 1.5611
 Frc consts  --      1.4657                 1.1468                 1.2768
 IR Inten    --      6.1407                10.7944                 1.4751

                     28                     29                     30
                      A                      A                      A
 Frequencies --   1225.5941              1236.0001              1249.7504
 Red. masses --      1.5371                 1.2629                 1.3014
 Frc consts  --      1.3603                 1.1368                 1.1976
 IR Inten    --     16.6708                 0.4655                 5.5432

                     31                     32                     33
                      A                      A                      A
 Frequencies --   1275.8758              1283.5401              1311.5600
 Red. masses --      1.8535                 1.5493                 1.4992
 Frc consts  --      1.7777                 1.5038                 1.5194
 IR Inten    --     12.8918                 4.5096                 2.0270

                     34                     35                     36
                      A                      A                      A
 Frequencies --   1320.3913              1363.3051              1424.8756
 Red. masses --      1.6169                 2.5320                 1.2041
 Frc consts  --      1.6609                 2.7726                 1.4404
 IR Inten    --      5.4264                26.1414                 7.1597

                     37                     38                     39
                      A                      A                      A
 Frequencies --   1448.9914              1480.2206              1482.8339
 Red. masses --      1.1043                 1.0972                 1.1271
 Frc consts  --      1.3660                 1.4164                 1.4602
 IR Inten    --      7.3243                 1.2891                 2.4794

                     40                     41                     42
                      A                      A                      A
 Frequencies --   1507.8693              1831.2644              2907.6984
 Red. masses --      1.1387                 9.8951                 1.0838
 Frc consts  --      1.5254                19.5512                 5.3986
 IR Inten    --      2.9666               173.9151                64.1689

                     43                     44                     45
                      A                      A                      A
 Frequencies --   3024.5697              3062.6547              3064.1842
 Red. masses --      1.0634                 1.0589                 1.0593
 Frc consts  --      5.7314                 5.8518                 5.8598
 IR Inten    --      8.1652                27.3128                27.7146

                     46                     47                     48
                      A                      A                      A
 Frequencies --   3073.0776              3101.0370              3108.6116
 Red. masses --      1.0605                 1.0976                 1.1068
 Frc consts  --      5.9008                 6.2188                 6.3016
 IR Inten    --     24.3876                 7.5006                 1.5687

                     49                     50                     51
                      A                      A                      A
 Frequencies --   3125.7755              3130.1620              3141.6685
 Red. masses --      1.1057                 1.0931                 1.1067
 Frc consts  --      6.3648                 6.3102                 6.4360
 IR Inten    --     32.5219                42.1089                27.5078

 - Thermochemistry -
 -------------------
 Temperature   298.150 Kelvin.  Pressure   1.00000 Atm.
 Atom     1 has atomic number  8 and mass  15.99491

 Molecular mass:   126.06808 amu.
 Principal axes and moments of inertia in atomic units:
                           1         2         3
     Eigenvalues --   482.733011649.924041765.50685
           X            0.99986   0.01582  -0.00522
           Y           -0.01557   0.99887   0.04487
           Z            0.00592  -0.04478   0.99898
 This molecule is an asymmetric top.
 Rotational symmetry number  1.
 Warning -- assumption of classical behavior for rotation
           may cause significant error
 Rotational temperatures (Kelvin)      0.17942     0.05250     0.04906
 Rotational constants (GHZ):           3.73859     1.09383     1.02222
 Zero-point vibrational energy     418091.0 (Joules/Mol)
                                   99.92614 (Kcal/Mol)
 Warning -- explicit consideration of   9 degrees of freedom as
           vibrations may cause significant error
 Vibrational temperatures:     67.97    98.87   222.97   392.31   416.72
          (Kelvin)            554.16   635.92   661.09   805.43   904.85
                             1030.10  1153.22  1188.72  1195.64  1218.76
                             1272.10  1302.97  1355.08  1377.20  1428.80
                             1467.76  1472.57  1547.47  1590.35  1645.66
                             1667.66  1695.19  1763.35  1778.33  1798.11
                             1835.70  1846.73  1887.04  1899.75  1961.49
                             2050.08  2084.77  2129.70  2133.46  2169.48
                             2634.78  4183.52  4351.68  4406.47  4408.67
                             4421.47  4461.70  4472.59  4497.29  4503.60
                             4520.15

 Zero-point correction=                           0.159242 (Hartree/Particle)
 Thermal correction to Energy=                    0.167348
 Thermal correction to Enthalpy=                  0.168292
 Thermal correction to Gibbs Free Energy=         0.125596
 Sum of electronic and zero-point Energies=           -423.019581
 Sum of electronic and thermal Energies=              -423.011476
 Sum of electronic and thermal Enthalpies=            -423.010531
 Sum of electronic and thermal Free Energies=         -423.053228

                     E (Thermal)             CV                S
                      KCal/Mol        Cal/Mol-Kelvin    Cal/Mol-Kelvin
 Total                  105.013             30.726             89.863
 Electronic               0.000              0.000              0.000
 Translational            0.889              2.981             40.409
 Rotational               0.889              2.981             28.732
 Vibrational            103.235             24.764             20.722
 Vibration     1          0.595              1.979              4.930
 Vibration     2          0.598              1.969              4.190
 Vibration     3          0.620              1.897              2.610
 Vibration     4          0.676              1.724              1.579
 Vibration     5          0.686              1.693              1.476
 Vibration     6          0.754              1.502              1.019
 Vibration     7          0.802              1.379              0.820
 Vibration     8          0.817              1.340              0.768
 Vibration     9          0.915              1.118              0.524

 Optimization completed.
    -- Stationary point found.
 Normal termination of Gaussian 09 at Mon Jan 27 14:23:48 2020.
