 Gaussian 09, Revision D.01,
 Gaussian 09:  ES64L-G09RevD.01 24-Apr-2013

 -----------------------------
 # b3lyp 6-31G(2df,p) opt Freq
 -----------------------------

 -----
 titel
 -----
 Symbolic Z-matrix:
 Charge =  0 Multiplicity = 1

 SCF Done:  E(RB3LYP) =  -423.163910235     A.U. after   14 cycles
 Optimization completed.
    -- Stationary point found.
 Normal termination of Gaussian 09 at Mon Jan 27 16:17:05 2020.

 ----------------------------------------------------------------------
 #N Geom=AllCheck Guess=TCheck SCRF=Check GenChk RB3LYP/6-31G(2df,p) Fr
 eq
 ----------------------------------------------------------------------

 Structure from the checkpoint file:  "/scratch/puck/g09_a76b4a06-f83e-4f76-ad06-80819b480f92/Gau-176514.chk"
 -----
 titel
 -----
 Charge =  0 Multiplicity = 1

                         Standard orientation:
 ---------------------------------------------------------------------
 Center     Atomic      Atomic             Coordinates (Angstroms)
 Number     Number       Type             X           Y           Z
 ---------------------------------------------------------------------
      1          6           0        1.334967    0.909063    1.368283
      2          6           0        0.761155    0.507130    0.013023
      3          6           0        0.499365    1.716370   -0.885653
      4          6           0        1.533647   -0.641366   -0.752881
      5          6           0        0.283333   -1.518306   -0.652076
      6          8           0       -0.035801   -1.674393    0.717385
      7          6           0       -0.456050   -0.449634    0.083410
      8          6           0       -1.909235   -0.198904    0.083167
      9          8           0       -2.418797    0.894137    0.019778
     10          1           0        0.672033    1.615691    1.878996
     11          1           0        1.467273    0.034092    2.009519
     12          1           0        2.308989    1.394770    1.243734
     13          1           0        1.438499    2.244804   -1.082875
     14          1           0        0.071873    1.418170   -1.848693
     15          1           0       -0.201696    2.409383   -0.415204
     16          1           0        1.787079   -0.361866   -1.777747
     17          1           0        2.412803   -1.057954   -0.255520
     18          1           0       -0.093035   -2.268493   -1.339497
     19          1           0       -2.510135   -1.132670    0.146340
 ---------------------------------------------------------------------

 SCF Done:  E(RB3LYP) =  -423.163910235     A.U. after    1 cycles

 The electronic state is 1-A.
 Alpha  occ. eigenvalues --  -19.17497 -19.14388 -10.27690 -10.26003 -10.25032
 Alpha  occ. eigenvalues --  -10.21328 -10.19855 -10.17844 -10.17629  -1.10189
 Alpha  occ. eigenvalues --   -1.04924  -0.83589  -0.73617  -0.71020  -0.68967
 Alpha  occ. eigenvalues --   -0.62009  -0.61037  -0.51865  -0.51554  -0.48129
 Alpha  occ. eigenvalues --   -0.45918  -0.45134  -0.43137  -0.42903  -0.41199
 Alpha  occ. eigenvalues --   -0.39424  -0.38632  -0.37152  -0.35075  -0.34245
 Alpha  occ. eigenvalues --   -0.33376  -0.30336  -0.27147  -0.25596
 Alpha virt. eigenvalues --   -0.03899   0.08554   0.09792   0.10784   0.11878
 Alpha virt. eigenvalues --    0.12516   0.13347   0.14703   0.15123   0.16097
 Alpha virt. eigenvalues --    0.17535   0.17637   0.18278   0.19887   0.21064

 Mulliken charges:
               1
     1  C   -0.452649
     2  C    0.237374
     3  C   -0.445042
     4  C   -0.298152
     5  C   -0.033708
     6  O   -0.278319
     7  C    0.304556
     8  C    0.059171
     9  O   -0.264868
    10  H    0.124684
    11  H    0.130706
    12  H    0.114610
    13  H    0.112512
    14  H    0.112381
    15  H    0.142928
    16  H    0.112915
    17  H    0.115281
    18  H    0.116663
    19  H    0.088956
 Sum of Mulliken charges =   0.00000

 Dipole moment (field-independent basis, Debye):
    X=              1.9330    Y=             -0.9405    Z=             -1.3780  Tot=              2.5534
 Quadrupole moment (field-independent basis, Debye-Ang):
   XX=            -56.6197   YY=            -54.8030   ZZ=            -52.5150
   XY=              4.3471   XZ=             -0.5095   YZ=              3.2346

  Exact polarizability:  83.758  -2.632  80.866  -2.053   2.748  65.424
 Approx polarizability: 120.066 -15.150 127.969  -5.369   1.766  99.954

                      1                      2                      3
                      A                      A                      A
 Frequencies --     90.2735               164.4286               196.3236
 Red. masses --      4.1749                 4.5173                 3.1505
 Frc consts  --      0.0200                 0.0720                 0.0715
 IR Inten    --      2.5003                 6.7906                 5.4246

                      4                      5                      6
                      A                      A                      A
 Frequencies --    211.9258               237.0391               264.7937
 Red. masses --      2.4016                 1.0708                 1.0565
 Frc consts  --      0.0635                 0.0354                 0.0436
 IR Inten    --      2.6965                 1.1010                 0.1287

                      7                      8                      9
                      A                      A                      A
 Frequencies --    317.5031               347.4070               384.1310
 Red. masses --      2.4906                 2.3649                 2.4383
 Frc consts  --      0.1479                 0.1682                 0.2120
 IR Inten    --      0.6625                 0.3109                 2.2353

                     10                     11                     12
                      A                      A                      A
 Frequencies --    454.2711               478.4566               548.8981
 Red. masses --      2.5784                 4.1199                 5.4927
 Frc consts  --      0.3135                 0.5557                 0.9750
 IR Inten    --      0.8520                11.6315                 8.8739

                     13                     14                     15
                      A                      A                      A
 Frequencies --    636.0443               691.1492               826.0084
 Red. masses --      3.7425                 4.0547                 3.7173
 Frc consts  --      0.8920                 1.1412                 1.4943
 IR Inten    --      3.5749                22.4782                 3.6093

                     16                     17                     18
                      A                      A                      A
 Frequencies --    840.8864               847.9290               929.0191
 Red. masses --      2.8699                 3.2218                 2.1026
 Frc consts  --      1.1956                 1.3648                 1.0692
 IR Inten    --      3.6986                33.6185                 4.0524

                     19                     20                     21
                      A                      A                      A
 Frequencies --    956.1676               962.9007               977.5365
 Red. masses --      1.9553                 1.3446                 1.9423
 Frc consts  --      1.0533                 0.7345                 1.0936
 IR Inten    --      6.4956                 2.2094                 2.5752

                     22                     23                     24
                      A                      A                      A
 Frequencies --   1003.8971              1040.5751              1045.8949
 Red. masses --      1.5342                 1.4341                 1.7454
 Frc consts  --      0.9110                 0.9149                 1.1249
 IR Inten    --      3.1817                 2.4467                 8.7625

                     25                     26                     27
                      A                      A                      A
 Frequencies --   1121.4101              1164.3183              1208.8206
 Red. masses --      1.5173                 2.2896                 2.0547
 Frc consts  --      1.1242                 1.8288                 1.7689
 IR Inten    --      3.0879                 3.8055                10.8513

                     28                     29                     30
                      A                      A                      A
 Frequencies --   1228.4360              1259.2039              1272.5519
 Red. masses --      2.1858                 1.8258                 2.2396
 Frc consts  --      1.9434                 1.7056                 2.1368
 IR Inten    --      4.0676                13.0607                 7.6743

                     31                     32                     33
                      A                      A                      A
 Frequencies --   1317.0413              1367.1825              1400.6730
 Red. masses --      2.8529                 1.9579                 1.2598
 Frc consts  --      2.9157                 2.1562                 1.4562
 IR Inten    --      8.0848                14.6653                 7.1673

                     34                     35                     36
                      A                      A                      A
 Frequencies --   1418.1311              1434.2148              1473.4022
 Red. masses --      1.3084                 1.7445                 1.1390
 Frc consts  --      1.5504                 2.1142                 1.4568
 IR Inten    --      5.5785                27.3764                 0.2900

                     37                     38                     39
                      A                      A                      A
 Frequencies --   1483.7069              1488.5704              1499.3593
 Red. masses --      1.0501                 1.0468                 1.0597
 Frc consts  --      1.3620                 1.3667                 1.4036
 IR Inten    --      2.5169                 1.0493                 4.8728

                     40                     41                     42
                      A                      A                      A
 Frequencies --   1511.5627              1804.3382              2896.2012
 Red. masses --      1.0566                10.5367                 1.0835
 Frc consts  --      1.4224                20.2112                 5.3549
 IR Inten    --      5.5267               197.4378                99.4177

                     43                     44                     45
                      A                      A                      A
 Frequencies --   3031.0166              3035.0317              3067.2559
 Red. masses --      1.0363                 1.0371                 1.0579
 Frc consts  --      5.6091                 5.6283                 5.8638
 IR Inten    --     20.6532                19.6848                24.0813

                     46                     47                     48
                      A                      A                      A
 Frequencies --   3095.5263              3097.5066              3121.5024
 Red. masses --      1.1013                 1.1011                 1.1010
 Frc consts  --      6.2178                 6.2247                 6.3205
 IR Inten    --     11.4972                30.4742                 9.1427

                     49                     50                     51
                      A                      A                      A
 Frequencies --   3125.9373              3129.1038              3177.9108
 Red. masses --      1.1044                 1.1032                 1.0935
 Frc consts  --      6.3580                 6.3641                 6.5063
 IR Inten    --     15.7651                15.4060                17.7660

 - Thermochemistry -
 -------------------
 Temperature   298.150 Kelvin.  Pressure   1.00000 Atm.
 Atom     1 has atomic number  6 and mass  12.00000

 Molecular mass:   126.06808 amu.
 Principal axes and moments of inertia in atomic units:
                           1         2         3
     Eigenvalues --   846.296831062.584101400.64220
           X            0.99276   0.11970   0.00998
           Y           -0.11993   0.99242   0.02691
           Z           -0.00668  -0.02792   0.99959
 This molecule is an asymmetric top.
 Rotational symmetry number  1.
 Warning -- assumption of classical behavior for rotation
           may cause significant error
 Rotational temperatures (Kelvin)      0.10234     0.08151     0.06184
 Rotational constants (GHZ):           2.13252     1.69845     1.28851
 Zero-point vibrational energy     410817.8 (Joules/Mol)
                                   98.18781 (Kcal/Mol)
 Warning -- explicit consideration of  12 degrees of freedom as
           vibrations may cause significant error
 Vibrational temperatures:    129.88   236.58   282.47   304.91   341.05
          (Kelvin)            380.98   456.82   499.84   552.68   653.59
                              688.39   789.74   915.12   994.41  1188.44
                             1209.85  1219.98  1336.65  1375.71  1385.40
                             1406.46  1444.38  1497.15  1504.81  1613.46
                             1675.19  1739.22  1767.44  1811.71  1830.92
                             1894.93  1967.07  2015.25  2040.37  2063.51
                             2119.89  2134.72  2141.72  2157.24  2174.80
                             2596.04  4166.98  4360.95  4366.73  4413.09
                             4453.77  4456.62  4491.14  4497.52  4502.08
                             4572.30

 Zero-point correction=                           0.156472 (Hartree/Particle)
 Thermal correction to Energy=                    0.165436
 Thermal correction to Enthalpy=                  0.166381
 Thermal correction to Gibbs Free Energy=         0.123264
 Sum of electronic and zero-point Energies=           -423.007438
 Sum of electronic and thermal Energies=              -422.998474
 Sum of electronic and thermal Enthalpies=            -422.997530
 Sum of electronic and thermal Free Energies=         -423.040646

                     E (Thermal)             CV                S
                      KCal/Mol        Cal/Mol-Kelvin    Cal/Mol-Kelvin
 Total                  103.813             34.010             90.746
 Electronic               0.000              0.000              0.000
 Translational            0.889              2.981             40.409
 Rotational               0.889              2.981             28.623
 Vibrational            102.035             28.048             21.714
 Vibration     1          0.602              1.956              3.654
 Vibration     2          0.623              1.886              2.498
 Vibration     3          0.636              1.845              2.167
 Vibration     4          0.643              1.823              2.027
 Vibration     5          0.656              1.784              1.825
 Vibration     6          0.671              1.738              1.630
 Vibration     7          0.704              1.640              1.323
 Vibration     8          0.725              1.581              1.178
 Vibration     9          0.753              1.504              1.023
 Vibration    10          0.813              1.351              0.783
 Vibration    11          0.835              1.298              0.714
 Vibration    12          0.904              1.142              0.546

 Optimization completed.
    -- Stationary point found.
 Normal termination of Gaussian 09 at Mon Jan 27 16:59:14 2020.
