 Gaussian 09, Revision D.01,
 Gaussian 09:  ES64L-G09RevD.01 24-Apr-2013

 -----------------------------
 # b3lyp 6-31G(2df,p) opt Freq
 -----------------------------

 -----
 titel
 -----
 Symbolic Z-matrix:
 Charge =  0 Multiplicity = 1

 SCF Done:  E(RB3LYP) =  -423.259036739     A.U. after   14 cycles
 Optimization completed.
    -- Stationary point found.
 Normal termination of Gaussian 09 at Mon Jan 27 12:58:22 2020.

 ----------------------------------------------------------------------
 #N Geom=AllCheck Guess=TCheck SCRF=Check GenChk RB3LYP/6-31G(2df,p) Fr
 eq
 ----------------------------------------------------------------------

 Structure from the checkpoint file:  "/scratch/puck/g09_988428f2-2f57-4e4b-a1d2-321a847a8d4d/Gau-73322.chk"
 -----
 titel
 -----
 Charge =  0 Multiplicity = 1

                         Standard orientation:
 ---------------------------------------------------------------------
 Center     Atomic      Atomic             Coordinates (Angstroms)
 Number     Number       Type             X           Y           Z
 ---------------------------------------------------------------------
      1          8           0        2.498190   -0.000036   -0.163011
      2          6           0        1.298844   -0.000006   -0.135584
      3          8           0        0.574515   -0.000286   -1.290204
      4          6           0       -0.861126   -0.000295   -1.090340
      5          6           0       -1.242045    1.267667   -0.318292
      6          6           0       -0.485614    1.259780    1.037381
      7          6           0        0.410794    0.000299    1.096985
      8          6           0       -0.485597   -1.259228    1.038054
      9          6           0       -1.241916   -1.267918   -0.317669
     10          1           0       -1.284799   -0.000565   -2.096211
     11          1           0       -0.969067    2.141282   -0.916323
     12          1           0       -2.327131    1.296855   -0.178975
     13          1           0        0.124405    2.160025    1.149030
     14          1           0       -1.180656    1.238437    1.882895
     15          1           0        1.047614    0.000537    1.981990
     16          1           0        0.124409   -2.159408    1.150290
     17          1           0       -1.180710   -1.237382    1.883498
     18          1           0       -0.968736   -2.141778   -0.915252
     19          1           0       -2.327009   -1.297226   -0.178434
 ---------------------------------------------------------------------

 SCF Done:  E(RB3LYP) =  -423.259036739     A.U. after    1 cycles

 The electronic state is 1-A.
 Alpha  occ. eigenvalues --  -19.17215 -19.11194 -10.29324 -10.24962 -10.20295
 Alpha  occ. eigenvalues --  -10.19960 -10.19959 -10.19698 -10.19698  -1.08952
 Alpha  occ. eigenvalues --   -1.00940  -0.84423  -0.77002  -0.76001  -0.64388
 Alpha  occ. eigenvalues --   -0.62998  -0.61662  -0.52040  -0.51367  -0.48702
 Alpha  occ. eigenvalues --   -0.48204  -0.44201  -0.41683  -0.41647  -0.40617
 Alpha  occ. eigenvalues --   -0.39097  -0.39052  -0.38616  -0.36903  -0.33590
 Alpha  occ. eigenvalues --   -0.32566  -0.31617  -0.28164  -0.25263
 Alpha virt. eigenvalues --    0.02268   0.06076   0.09094   0.12116   0.12793
 Alpha virt. eigenvalues --    0.14020   0.14236   0.14763   0.15043   0.15824
 Alpha virt. eigenvalues --    0.16275   0.18469   0.19714   0.20608   0.23204

 Mulliken charges:
               1
     1  O   -0.347859
     2  C    0.430250
     3  O   -0.240929
     4  C    0.104305
     5  C   -0.217056
     6  C   -0.224761
     7  C   -0.139326
     8  C   -0.224759
     9  C   -0.217056
    10  H    0.089143
    11  H    0.117762
    12  H    0.106419
    13  H    0.119085
    14  H    0.104755
    15  H    0.092008
    16  H    0.119085
    17  H    0.104755
    18  H    0.117763
    19  H    0.106418
 Sum of Mulliken charges =   0.00000

 Dipole moment (field-independent basis, Debye):
    X=             -4.3821    Y=              0.0003    Z=              1.2703  Tot=              4.5625
 Quadrupole moment (field-independent basis, Debye-Ang):
   XX=            -61.2115   YY=            -50.5737   ZZ=            -52.5686
   XY=              0.0007   XZ=              2.7909   YZ=             -0.0004

  Exact polarizability:  80.705   0.001  69.009   2.957   0.000  70.105
 Approx polarizability: 124.515   0.001  96.567   3.152   0.002 103.551

                      1                      2                      3
                      A                      A                      A
 Frequencies --     98.0630               161.8195               264.4235
 Red. masses --      2.4790                 3.1288                 1.6919
 Frc consts  --      0.0140                 0.0483                 0.0697
 IR Inten    --      0.1882                 1.6695                 0.0844

                      4                      5                      6
                      A                      A                      A
 Frequencies --    352.2656               372.6297               444.8818
 Red. masses --      2.4513                 5.0547                 6.8116
 Frc consts  --      0.1792                 0.4135                 0.7943
 IR Inten    --      0.8582                 4.6593                 3.0937

                      7                      8                      9
                      A                      A                      A
 Frequencies --    538.2543               543.8896               617.5238
 Red. masses --      4.0466                 4.4855                 6.8485
 Frc consts  --      0.6907                 0.7818                 1.5387
 IR Inten    --      0.4436                 4.0601                 0.7029

                     10                     11                     12
                      A                      A                      A
 Frequencies --    773.3959               784.8054               806.7110
 Red. masses --      4.2962                 2.9443                 1.3817
 Frc consts  --      1.5141                 1.0685                 0.5298
 IR Inten    --      7.1679                 1.4493                 0.3404

                     13                     14                     15
                      A                      A                      A
 Frequencies --    816.7278               846.7058               880.3763
 Red. masses --      2.8120                 2.3599                 1.8716
 Frc consts  --      1.1051                 0.9968                 0.8547
 IR Inten    --      0.7960                 0.6895                 8.1120

                     16                     17                     18
                      A                      A                      A
 Frequencies --    886.5722               947.2395               973.1944
 Red. masses --      2.6742                 1.8376                 5.6671
 Frc consts  --      1.2384                 0.9714                 3.1624
 IR Inten    --      1.4382                 0.0092                19.1378

                     19                     20                     21
                      A                      A                      A
 Frequencies --   1022.9827              1037.5227              1053.8945
 Red. masses --      3.8809                 2.7195                 1.9945
 Frc consts  --      2.3929                 1.7248                 1.3052
 IR Inten    --     45.7676                19.8772                 1.7474

                     22                     23                     24
                      A                      A                      A
 Frequencies --   1070.4013              1077.0530              1161.0946
 Red. masses --      1.8137                 1.9110                 1.0298
 Frc consts  --      1.2244                 1.3061                 0.8180
 IR Inten    --      1.0867                78.5951                 0.2657

                     25                     26                     27
                      A                      A                      A
 Frequencies --   1165.7107              1222.8293              1237.2733
 Red. masses --      1.9159                 1.6463                 1.5002
 Frc consts  --      1.5340                 1.4504                 1.3531
 IR Inten    --     20.7036                 3.2508                52.3899

                     28                     29                     30
                      A                      A                      A
 Frequencies --   1263.3400              1263.8329              1314.1863
 Red. masses --      1.1390                 1.1759                 1.5184
 Frc consts  --      1.0711                 1.1066                 1.5451
 IR Inten    --      0.0411                11.0655                 0.8570

                     31                     32                     33
                      A                      A                      A
 Frequencies --   1321.7584              1338.6902              1365.0653
 Red. masses --      1.8676                 1.2963                 1.5514
 Frc consts  --      1.9224                 1.3687                 1.7032
 IR Inten    --      5.3341                 0.0759                 6.6506

                     34                     35                     36
                      A                      A                      A
 Frequencies --   1372.5996              1383.0687              1395.5503
 Red. masses --      1.5435                 1.3809                 1.4493
 Frc consts  --      1.7134                 1.5564                 1.6630
 IR Inten    --     14.5187                 0.7463                28.9894

                     37                     38                     39
                      A                      A                      A
 Frequencies --   1477.4029              1488.6922              1499.0000
 Red. masses --      1.0771                 1.0790                 1.0936
 Frc consts  --      1.3851                 1.4089                 1.4478
 IR Inten    --      0.8407                 1.0210                 4.2705

                     40                     41                     42
                      A                      A                      A
 Frequencies --   1513.3725              1861.5942              3045.8279
 Red. masses --      1.0944                12.2275                 1.0616
 Frc consts  --      1.4768                24.9664                 5.8028
 IR Inten    --      3.0607               377.0896                 2.1010

                     43                     44                     45
                      A                      A                      A
 Frequencies --   3046.7739              3056.9080              3059.1666
 Red. masses --      1.0612                 1.0615                 1.0619
 Frc consts  --      5.8037                 5.8441                 5.8553
 IR Inten    --     40.9023                32.6088                24.1331

                     46                     47                     48
                      A                      A                      A
 Frequencies --   3084.8092              3086.0438              3097.9762
 Red. masses --      1.1036                 1.1042                 1.0880
 Frc consts  --      6.1878                 6.1958                 6.1522
 IR Inten    --      1.5482                 0.0979                46.1664

                     49                     50                     51
                      A                      A                      A
 Frequencies --   3104.7797              3108.1070              3112.7396
 Red. masses --      1.1041                 1.1036                 1.0886
 Frc consts  --      6.2708                 6.2813                 6.2143
 IR Inten    --     26.9003                38.6759                14.2730

 - Thermochemistry -
 -------------------
 Temperature   298.150 Kelvin.  Pressure   1.00000 Atm.
 Atom     1 has atomic number  8 and mass  15.99491

 Molecular mass:   126.06808 amu.
 Principal axes and moments of inertia in atomic units:
                           1         2         3
     Eigenvalues --   734.835321066.361071074.31929
           X            0.99950   0.03149  -0.00001
           Y           -0.00001   0.00042   1.00000
           Z           -0.03149   0.99950  -0.00042
 This molecule is an asymmetric top.
 Rotational symmetry number  1.
 Warning -- assumption of classical behavior for rotation
           may cause significant error
 Rotational temperatures (Kelvin)      0.11787     0.08122     0.08062
 Rotational constants (GHZ):           2.45598     1.69243     1.67989
 Zero-point vibrational energy     429576.2 (Joules/Mol)
                                  102.67117 (Kcal/Mol)
 Warning -- explicit consideration of   9 degrees of freedom as
           vibrations may cause significant error
 Vibrational temperatures:    141.09   232.82   380.45   506.83   536.13
          (Kelvin)            640.08   774.43   782.53   888.48  1112.74
                             1129.16  1160.68  1175.09  1218.22  1266.66
                             1275.58  1362.86  1400.21  1471.84  1492.76
                             1516.32  1540.07  1549.64  1670.55  1677.20
                             1759.38  1780.16  1817.66  1818.37  1890.82
                             1901.71  1926.07  1964.02  1974.86  1989.92
                             2007.88  2125.65  2141.89  2156.72  2177.40
                             2678.42  4382.26  4383.62  4398.20  4401.45
                             4438.35  4440.12  4457.29  4467.08  4471.87
                             4478.53

 Zero-point correction=                           0.163617 (Hartree/Particle)
 Thermal correction to Energy=                    0.170698
 Thermal correction to Enthalpy=                  0.171643
 Thermal correction to Gibbs Free Energy=         0.132102
 Sum of electronic and zero-point Energies=           -423.095420
 Sum of electronic and thermal Energies=              -423.088338
 Sum of electronic and thermal Enthalpies=            -423.087394
 Sum of electronic and thermal Free Energies=         -423.126934

                     E (Thermal)             CV                S
                      KCal/Mol        Cal/Mol-Kelvin    Cal/Mol-Kelvin
 Total                  107.115             28.404             83.220
 Electronic               0.000              0.000              0.000
 Translational            0.889              2.981             40.409
 Rotational               0.889              2.981             28.223
 Vibrational            105.337             22.443             14.589
 Vibration     1          0.604              1.951              3.492
 Vibration     2          0.622              1.889              2.528
 Vibration     3          0.671              1.738              1.632
 Vibration     4          0.729              1.571              1.156
 Vibration     5          0.744              1.528              1.069
 Vibration     6          0.804              1.372              0.811
 Vibration     7          0.893              1.165              0.569
 Vibration     8          0.899              1.153              0.557
 Vibration     9          0.977              0.995              0.420

 Optimization completed.
    -- Stationary point found.
 Normal termination of Gaussian 09 at Mon Jan 27 13:45:46 2020.
