 Gaussian 09, Revision D.01,
 Gaussian 09:  ES64L-G09RevD.01 24-Apr-2013

 -----------------------------
 # b3lyp 6-31G(2df,p) opt Freq
 -----------------------------

 -----
 titel
 -----
 Symbolic Z-matrix:
 Charge =  0 Multiplicity = 1

 SCF Done:  E(RB3LYP) =  -423.221479005     A.U. after   15 cycles
 Optimization completed.
    -- Stationary point found.
 Normal termination of Gaussian 09 at Mon Jan 27 13:14:03 2020.

 ----------------------------------------------------------------------
 #N Geom=AllCheck Guess=TCheck SCRF=Check GenChk RB3LYP/6-31G(2df,p) Fr
 eq
 ----------------------------------------------------------------------

 Structure from the checkpoint file:  "/scratch/puck/g09_eebc2439-ec0b-4c19-98d1-450122a2bd17/Gau-48175.chk"
 -----
 titel
 -----
 Charge =  0 Multiplicity = 1

                         Standard orientation:
 ---------------------------------------------------------------------
 Center     Atomic      Atomic             Coordinates (Angstroms)
 Number     Number       Type             X           Y           Z
 ---------------------------------------------------------------------
      1          8           0       -2.517963   -0.126473   -0.348605
      2          6           0       -1.448368    0.219005    0.081101
      3          8           0       -0.699345   -0.579753    0.916585
      4          6           0       -0.085356   -1.712231    0.284092
      5          6           0        0.917604   -1.260350   -0.778331
      6          6           0        2.022664   -0.315011   -0.273883
      7          6           0        1.574521    0.931842    0.539083
      8          6           0        0.499737    1.785211   -0.093065
      9          6           0       -0.804745    1.506767   -0.242230
     10          1           0        0.404151   -2.260028    1.094388
     11          1           0       -0.857524   -2.355422   -0.154719
     12          1           0        1.383707   -2.151996   -1.214791
     13          1           0        0.366961   -0.780780   -1.596127
     14          1           0        2.718674   -0.875988    0.362231
     15          1           0        2.604164    0.015881   -1.142526
     16          1           0        1.232058    0.606254    1.522916
     17          1           0        2.461167    1.554740    0.696414
     18          1           0        0.830610    2.748196   -0.479108
     19          1           0       -1.461837    2.217554   -0.733118
 ---------------------------------------------------------------------

 SCF Done:  E(RB3LYP) =  -423.221479005     A.U. after    1 cycles

 The electronic state is 1-A.
 Alpha  occ. eigenvalues --  -19.15517 -19.12716 -10.30258 -10.24106 -10.21284
 Alpha  occ. eigenvalues --  -10.19673 -10.19503 -10.19464 -10.19200  -1.08414
 Alpha  occ. eigenvalues --   -1.00906  -0.82022  -0.79252  -0.72331  -0.68905
 Alpha  occ. eigenvalues --   -0.60490  -0.59516  -0.52744  -0.49573  -0.49246
 Alpha  occ. eigenvalues --   -0.47674  -0.45601  -0.43923  -0.42769  -0.39745
 Alpha  occ. eigenvalues --   -0.39039  -0.37623  -0.37154  -0.35553  -0.33470
 Alpha  occ. eigenvalues --   -0.32612  -0.27548  -0.27242  -0.26503
 Alpha virt. eigenvalues --   -0.05035   0.06277   0.08804   0.10013   0.12298
 Alpha virt. eigenvalues --    0.13111   0.14374   0.15049   0.15750   0.16996
 Alpha virt. eigenvalues --    0.17126   0.18376   0.19992   0.20950   0.21627

 Mulliken charges:
               1
     1  O   -0.325930
     2  C    0.379742
     3  O   -0.252722
     4  C   -0.084915
     5  C   -0.215069
     6  C   -0.191124
     7  C   -0.245464
     8  C   -0.053443
     9  C   -0.132098
    10  H    0.112209
    11  H    0.123497
    12  H    0.103317
    13  H    0.119275
    14  H    0.103546
    15  H    0.103400
    16  H    0.139620
    17  H    0.095283
    18  H    0.108802
    19  H    0.112072
 Sum of Mulliken charges =   0.00000

 Dipole moment (field-independent basis, Debye):
    X=              3.5400    Y=              0.3284    Z=             -0.3902  Tot=              3.5765
 Quadrupole moment (field-independent basis, Debye-Ang):
   XX=            -59.6544   YY=            -47.7749   ZZ=            -54.1486
   XY=             -1.3771   XZ=             -0.5332   YZ=             -0.5422

  Exact polarizability:  94.556   3.559  81.346   4.904  -2.537  58.110
 Approx polarizability: 151.370  12.267 111.905  12.175  -3.088  92.870

                      1                      2                      3
                      A                      A                      A
 Frequencies --     57.6867               168.3739               221.1400
 Red. masses --      4.9808                 2.6081                 3.0851
 Frc consts  --      0.0098                 0.0436                 0.0889
 IR Inten    --      3.5090                 2.9068                 1.7865

                      4                      5                      6
                      A                      A                      A
 Frequencies --    258.6620               299.9530               322.8407
 Red. masses --      4.4826                 4.9398                 2.0092
 Frc consts  --      0.1767                 0.2619                 0.1234
 IR Inten    --      1.1674                 0.3063                 1.4097

                      7                      8                      9
                      A                      A                      A
 Frequencies --    337.7038               477.9492               529.8156
 Red. masses --      2.6708                 2.6736                 1.8980
 Frc consts  --      0.1795                 0.3598                 0.3139
 IR Inten    --      1.6105                 2.0814                 3.4154

                     10                     11                     12
                      A                      A                      A
 Frequencies --    563.9229               689.3174               721.8201
 Red. masses --      4.4865                 2.6917                 2.6009
 Frc consts  --      0.8406                 0.7535                 0.7984
 IR Inten    --      6.9095                 9.8503                12.3714

                     13                     14                     15
                      A                      A                      A
 Frequencies --    778.9945               805.4535               829.4877
 Red. masses --      2.4435                 2.6182                 2.3605
 Frc consts  --      0.8736                 1.0008                 0.9569
 IR Inten    --      5.9263                 1.1132                 1.3476

                     16                     17                     18
                      A                      A                      A
 Frequencies --    863.6966               875.7169               935.8734
 Red. masses --      3.0242                 2.3425                 1.7523
 Frc consts  --      1.3292                 1.0584                 0.9042
 IR Inten    --     22.3647                 6.1610                 5.7948

                     19                     20                     21
                      A                      A                      A
 Frequencies --    976.4297               994.4560              1025.6559
 Red. masses --      2.3727                 2.0874                 1.2746
 Frc consts  --      1.3329                 1.2163                 0.7900
 IR Inten    --     19.4826                24.2474                 1.0092

                     22                     23                     24
                      A                      A                      A
 Frequencies --   1067.8574              1094.7301              1117.6545
 Red. masses --      2.8176                 2.8182                 1.9169
 Frc consts  --      1.8930                 1.9899                 1.4108
 IR Inten    --     57.5663                50.5510                 1.6259

                     25                     26                     27
                      A                      A                      A
 Frequencies --   1176.8537              1231.8260              1233.9798
 Red. masses --      1.7749                 1.6445                 1.3770
 Frc consts  --      1.4483                 1.4702                 1.2353
 IR Inten    --     91.7500                72.1647                17.2265

                     28                     29                     30
                      A                      A                      A
 Frequencies --   1266.4806              1288.9379              1309.8174
 Red. masses --      1.2489                 1.1545                 1.1746
 Frc consts  --      1.1803                 1.1301                 1.1873
 IR Inten    --     25.7689                 9.4976                 3.1147

                     31                     32                     33
                      A                      A                      A
 Frequencies --   1352.3712              1382.4277              1398.4698
 Red. masses --      1.2850                 1.3329                 1.3742
 Frc consts  --      1.3847                 1.5008                 1.5835
 IR Inten    --      0.4837                14.5384                 4.3826

                     34                     35                     36
                      A                      A                      A
 Frequencies --   1403.3564              1424.1187              1481.1260
 Red. masses --      1.2937                 1.5419                 1.0763
 Frc consts  --      1.5012                 1.8424                 1.3911
 IR Inten    --      3.8047                12.9747                 0.8254

                     37                     38                     39
                      A                      A                      A
 Frequencies --   1489.2338              1494.7556              1502.9354
 Red. masses --      1.0842                 1.1066                 1.0999
 Frc consts  --      1.4167                 1.4567                 1.4638
 IR Inten    --      8.4218                 4.2787                 6.2171

                     40                     41                     42
                      A                      A                      A
 Frequencies --   1679.0344              1807.7886              3023.2670
 Red. masses --      6.7911                11.7832                 1.0606
 Frc consts  --     11.2800                22.6886                 5.7117
 IR Inten    --     12.4206               311.9825                23.8332

                     43                     44                     45
                      A                      A                      A
 Frequencies --   3032.5095              3039.9321              3051.8641
 Red. masses --      1.0619                 1.0622                 1.0655
 Frc consts  --      5.7537                 5.7833                 5.8471
 IR Inten    --     13.6823                43.9367                37.7527

                     46                     47                     48
                      A                      A                      A
 Frequencies --   3058.4760              3072.3245              3098.8108
 Red. masses --      1.0990                 1.1029                 1.1038
 Frc consts  --      6.0572                 6.1336                 6.2451
 IR Inten    --     24.9441                27.9254                32.8559

                     49                     50                     51
                      A                      A                      A
 Frequencies --   3111.3728              3140.5704              3188.8041
 Red. masses --      1.0950                 1.0876                 1.0925
 Frc consts  --      6.2455                 6.3203                 6.5451
 IR Inten    --      8.3720                16.2483                 9.4814

 - Thermochemistry -
 -------------------
 Temperature   298.150 Kelvin.  Pressure   1.00000 Atm.
 Atom     1 has atomic number  8 and mass  15.99491

 Molecular mass:   126.06808 amu.
 Principal axes and moments of inertia in atomic units:
                           1         2         3
     Eigenvalues --   745.993371072.864231538.86217
           X            0.99994  -0.01062   0.00203
           Y            0.01061   0.99994   0.00374
           Z           -0.00207  -0.00372   0.99999
 This molecule is an asymmetric top.
 Rotational symmetry number  1.
 Warning -- assumption of classical behavior for rotation
           may cause significant error
 Rotational temperatures (Kelvin)      0.11611     0.08073     0.05628
 Rotational constants (GHZ):           2.41925     1.68217     1.17278
 Zero-point vibrational energy     423218.7 (Joules/Mol)
                                  101.15169 (Kcal/Mol)
 Warning -- explicit consideration of  10 degrees of freedom as
           vibrations may cause significant error
 Vibrational temperatures:     83.00   242.25   318.17   372.16   431.56
          (Kelvin)            464.50   485.88   687.66   762.29   811.36
                              991.77  1038.54  1120.80  1158.87  1193.45
                             1242.67  1259.96  1346.51  1404.86  1430.80
                             1475.69  1536.41  1575.07  1608.05  1693.23
                             1772.32  1775.42  1822.18  1854.49  1884.53
                             1945.76  1989.00  2012.08  2019.11  2048.99
                             2131.01  2142.67  2150.62  2162.39  2415.75
                             2601.00  4349.80  4363.10  4373.78  4390.95
                             4400.46  4420.38  4458.49  4476.57  4518.57
                             4587.97

 Zero-point correction=                           0.161195 (Hartree/Particle)
 Thermal correction to Energy=                    0.169229
 Thermal correction to Enthalpy=                  0.170174
 Thermal correction to Gibbs Free Energy=         0.128432
 Sum of electronic and zero-point Energies=           -423.060284
 Sum of electronic and thermal Energies=              -423.052250
 Sum of electronic and thermal Enthalpies=            -423.051305
 Sum of electronic and thermal Free Energies=         -423.093047

                     E (Thermal)             CV                S
                      KCal/Mol        Cal/Mol-Kelvin    Cal/Mol-Kelvin
 Total                  106.193             30.944             87.852
 Electronic               0.000              0.000              0.000
 Translational            0.889              2.981             40.409
 Rotational               0.889              2.981             28.601
 Vibrational            104.416             24.982             18.843
 Vibration     1          0.596              1.974              4.535
 Vibration     2          0.625              1.881              2.454
 Vibration     3          0.648              1.809              1.950
 Vibration     4          0.667              1.748              1.671
 Vibration     5          0.692              1.674              1.417
 Vibration     6          0.708              1.630              1.296
 Vibration     7          0.718              1.600              1.223
 Vibration     8          0.834              1.299              0.716
 Vibration     9          0.885              1.184              0.588
 Vibration    10          0.920              1.109              0.516

 Optimization completed.
    -- Stationary point found.
 Normal termination of Gaussian 09 at Mon Jan 27 13:58:38 2020.
