 Gaussian 09, Revision D.01,
 Gaussian 09:  ES64L-G09RevD.01 24-Apr-2013

 -----------------------------
 # b3lyp 6-31G(2df,p) opt Freq
 -----------------------------

 -----
 titel
 -----
 Symbolic Z-matrix:
 Charge =  0 Multiplicity = 1

 SCF Done:  E(RB3LYP) =  -423.144177818     A.U. after   12 cycles
 Optimization completed.
    -- Stationary point found.
 Normal termination of Gaussian 09 at Tue Jan 28 00:04:48 2020.

 ----------------------------------------------------------------------
 #N Geom=AllCheck Guess=TCheck SCRF=Check GenChk RB3LYP/6-31G(2df,p) Fr
 eq
 ----------------------------------------------------------------------

 Structure from the checkpoint file:  "/scratch/puck/g09_47426636-4644-4ec3-a853-7bd3b1ca26f5/Gau-3107.chk"
 -----
 titel
 -----
 Charge =  0 Multiplicity = 1

                         Standard orientation:
 ---------------------------------------------------------------------
 Center     Atomic      Atomic             Coordinates (Angstroms)
 Number     Number       Type             X           Y           Z
 ---------------------------------------------------------------------
      1          8           0       -2.638805   -1.109801    0.109269
      2          6           0       -1.519148   -0.332630    0.422495
      3          6           0       -1.116923    0.756386   -0.545020
      4          8           0       -0.321834    1.818971   -0.087600
      5          6           0        0.844655    1.278929    0.539738
      6          6           0        1.018159   -0.147034    0.004426
      7          6           0        2.262060   -0.565584   -0.736013
      8          6           0        1.981309   -1.105540    0.648575
      9          6           0       -0.341380   -0.534699   -0.507507
     10          1           0       -3.424914   -0.582706    0.289473
     11          1           0       -1.325759   -0.188626    1.486385
     12          1           0       -1.783553    1.037687   -1.352322
     13          1           0        1.689967    1.935761    0.309572
     14          1           0        0.709262    1.270082    1.631422
     15          1           0        2.154527   -1.239400   -1.579958
     16          1           0        3.058030    0.163773   -0.848223
     17          1           0        1.681652   -2.143539    0.744663
     18          1           0        2.591341   -0.741972    1.470282
     19          1           0       -0.437832   -1.283391   -1.284813
 ---------------------------------------------------------------------

 SCF Done:  E(RB3LYP) =  -423.144177818     A.U. after    1 cycles

 The electronic state is 1-A.
 Alpha  occ. eigenvalues --  -19.14504 -19.14103 -10.23069 -10.22927 -10.22899
 Alpha  occ. eigenvalues --  -10.20263 -10.18769 -10.18721 -10.18696  -1.04488
 Alpha  occ. eigenvalues --   -1.02523  -0.86791  -0.82670  -0.70955  -0.62395
 Alpha  occ. eigenvalues --   -0.60333  -0.58741  -0.55716  -0.53084  -0.48822
 Alpha  occ. eigenvalues --   -0.48183  -0.45851  -0.45367  -0.41865  -0.39044
 Alpha  occ. eigenvalues --   -0.38898  -0.36689  -0.34985  -0.34108  -0.31067
 Alpha  occ. eigenvalues --   -0.29494  -0.29012  -0.25411  -0.21986
 Alpha virt. eigenvalues --    0.07301   0.09104   0.09907   0.10423   0.11301
 Alpha virt. eigenvalues --    0.13250   0.14310   0.16008   0.16750   0.17498
 Alpha virt. eigenvalues --    0.18678   0.19001   0.20235   0.22558   0.22985

 Mulliken charges:
               1
     1  O   -0.423335
     2  C    0.015164
     3  C    0.051629
     4  O   -0.259731
     5  C   -0.166354
     6  C    0.354116
     7  C   -0.317756
     8  C   -0.316783
     9  C   -0.189108
    10  H    0.288755
    11  H    0.090450
    12  H    0.104506
    13  H    0.110536
    14  H    0.099646
    15  H    0.115123
    16  H    0.112625
    17  H    0.119430
    18  H    0.110742
    19  H    0.100345
 Sum of Mulliken charges =   0.00000

 Dipole moment (field-independent basis, Debye):
    X=              0.2269    Y=             -0.0681    Z=              0.4042  Tot=              0.4685
 Quadrupole moment (field-independent basis, Debye-Ang):
   XX=            -47.2011   YY=            -58.6644   ZZ=            -51.4269
   XY=             -1.4676   XZ=             -0.0553   YZ=              1.0250

  Exact polarizability:  88.869  -0.410  69.683   0.629   0.837  66.436
 Approx polarizability: 115.790  -0.470 105.284   0.344   0.170 101.123

                      1                      2                      3
                      A                      A                      A
 Frequencies --     99.9016               163.0143               227.5309
 Red. masses --      3.1485                 2.7342                 3.3240
 Frc consts  --      0.0185                 0.0428                 0.1014
 IR Inten    --      0.2013                 1.7376                 3.3595

                      4                      5                      6
                      A                      A                      A
 Frequencies --    277.4782               290.7257               322.4445
 Red. masses --      2.5239                 2.1308                 1.4535
 Frc consts  --      0.1145                 0.1061                 0.0890
 IR Inten    --     39.3438                 6.4033                47.1546

                      7                      8                      9
                      A                      A                      A
 Frequencies --    359.4096               415.5462               467.9260
 Red. masses --      2.3796                 3.4110                 4.7175
 Frc consts  --      0.1811                 0.3470                 0.6086
 IR Inten    --     16.1973                13.7301                 2.6063

                     10                     11                     12
                      A                      A                      A
 Frequencies --    523.8725               710.4816               779.2896
 Red. masses --      3.9203                 5.0434                 1.0457
 Frc consts  --      0.6339                 1.5000                 0.3742
 IR Inten    --      0.9898                 8.3124                 0.1158

                     13                     14                     15
                      A                      A                      A
 Frequencies --    818.5243               849.1092               886.4522
 Red. masses --      2.6885                 1.7420                 2.6831
 Frc consts  --      1.0613                 0.7400                 1.2422
 IR Inten    --      3.1914                 1.7230                19.8565

                     16                     17                     18
                      A                      A                      A
 Frequencies --    909.9585               927.1172               947.8679
 Red. masses --      2.3811                 2.5059                 2.0394
 Frc consts  --      1.1616                 1.2691                 1.0796
 IR Inten    --     13.8017                11.2885                 9.6912

                     19                     20                     21
                      A                      A                      A
 Frequencies --    962.2129               976.7479               994.9025
 Red. masses --      1.7795                 2.6388                 2.2544
 Frc consts  --      0.9707                 1.4833                 1.3148
 IR Inten    --      5.0825                21.4370                 0.7703

                     22                     23                     24
                      A                      A                      A
 Frequencies --   1042.1984              1058.4884              1071.1218
 Red. masses --      1.4202                 1.4631                 1.5180
 Frc consts  --      0.9089                 0.9658                 1.0261
 IR Inten    --      6.3255                 1.5049                 3.3143

                     25                     26                     27
                      A                      A                      A
 Frequencies --   1076.6200              1096.0602              1117.9114
 Red. masses --      1.4765                 1.8964                 2.9115
 Frc consts  --      1.0083                 1.3423                 2.1438
 IR Inten    --      1.6016                16.3690               160.5687

                     28                     29                     30
                      A                      A                      A
 Frequencies --   1163.4784              1185.4848              1188.2643
 Red. masses --      2.6375                 2.0100                 1.3742
 Frc consts  --      2.1036                 1.6644                 1.1432
 IR Inten    --      5.1809                19.8802                 4.0627

                     31                     32                     33
                      A                      A                      A
 Frequencies --   1222.7607              1245.6379              1283.3094
 Red. masses --      1.1391                 1.6298                 1.8513
 Frc consts  --      1.0034                 1.4899                 1.7964
 IR Inten    --      4.7280                 2.9020                11.3514

                     34                     35                     36
                      A                      A                      A
 Frequencies --   1300.5106              1310.1769              1354.0231
 Red. masses --      1.5816                 1.5223                 1.5163
 Frc consts  --      1.5761                 1.5396                 1.6379
 IR Inten    --     46.6149                 2.0671                 4.0420

                     37                     38                     39
                      A                      A                      A
 Frequencies --   1410.4820              1449.2024              1466.3086
 Red. masses --      1.8593                 2.2140                 1.0873
 Frc consts  --      2.1794                 2.7396                 1.3774
 IR Inten    --      3.7304                10.9353                 1.5319

                     40                     41                     42
                      A                      A                      A
 Frequencies --   1503.9315              1523.5636              2987.7440
 Red. masses --      1.4392                 1.1077                 1.0691
 Frc consts  --      1.9179                 1.5149                 5.6229
 IR Inten    --      0.8331                 0.1695                48.5213

                     43                     44                     45
                      A                      A                      A
 Frequencies --   3063.7813              3090.2545              3121.6944
 Red. masses --      1.0950                 1.0880                 1.0505
 Frc consts  --      6.0559                 6.1215                 6.0317
 IR Inten    --     34.9087                29.2369                20.2618

                     46                     47                     48
                      A                      A                      A
 Frequencies --   3125.5223              3177.7039              3186.9636
 Red. masses --      1.0587                 1.0895                 1.0935
 Frc consts  --      6.0937                 6.4821                 6.5435
 IR Inten    --     12.0206                11.2397                 9.2190

                     49                     50                     51
                      A                      A                      A
 Frequencies --   3201.1505              3216.0048              3797.1048
 Red. masses --      1.1176                 1.1154                 1.0662
 Frc consts  --      6.7477                 6.7967                 9.0571
 IR Inten    --      0.2195                17.2967                21.8139

 - Thermochemistry -
 -------------------
 Temperature   298.150 Kelvin.  Pressure   1.00000 Atm.
 Atom     1 has atomic number  8 and mass  15.99491

 Molecular mass:   126.06808 amu.
 Principal axes and moments of inertia in atomic units:
                           1         2         3
     Eigenvalues --   630.606071318.629931672.85022
           X            0.99990  -0.01358   0.00254
           Y            0.01353   0.99978   0.01580
           Z           -0.00276  -0.01576   0.99987
 This molecule is an asymmetric top.
 Rotational symmetry number  1.
 Warning -- assumption of classical behavior for rotation
           may cause significant error
 Rotational temperatures (Kelvin)      0.13735     0.06568     0.05178
 Rotational constants (GHZ):           2.86192     1.36865     1.07884
 Zero-point vibrational energy     418381.8 (Joules/Mol)
                                   99.99564 (Kcal/Mol)
 Warning -- explicit consideration of  10 degrees of freedom as
           vibrations may cause significant error
 Vibrational temperatures:    143.74   234.54   327.37   399.23   418.29
          (Kelvin)            463.93   517.11   597.88   673.24   753.73
                             1022.22  1121.22  1177.67  1221.68  1275.41
                             1309.23  1333.91  1363.77  1384.41  1405.32
                             1431.44  1499.49  1522.93  1541.10  1549.01
                             1576.98  1608.42  1673.98  1705.65  1709.65
                             1759.28  1792.19  1846.39  1871.14  1885.05
                             1948.13  2029.37  2085.08  2109.69  2163.82
                             2192.07  4298.69  4408.09  4446.18  4491.42
                             4496.92  4572.00  4585.32  4605.74  4627.11
                             5463.18

 Zero-point correction=                           0.159353 (Hartree/Particle)
 Thermal correction to Energy=                    0.167410
 Thermal correction to Enthalpy=                  0.168354
 Thermal correction to Gibbs Free Energy=         0.126924
 Sum of electronic and zero-point Energies=           -422.984825
 Sum of electronic and thermal Energies=              -422.976768
 Sum of electronic and thermal Enthalpies=            -422.975824
 Sum of electronic and thermal Free Energies=         -423.017253

                     E (Thermal)             CV                S
                      KCal/Mol        Cal/Mol-Kelvin    Cal/Mol-Kelvin
 Total                  105.051             31.768             87.196
 Electronic               0.000              0.000              0.000
 Translational            0.889              2.981             40.409
 Rotational               0.889              2.981             28.722
 Vibrational            103.274             25.807             18.066
 Vibration     1          0.604              1.949              3.456
 Vibration     2          0.623              1.888              2.515
 Vibration     3          0.651              1.799              1.898
 Vibration     4          0.678              1.715              1.549
 Vibration     5          0.687              1.691              1.470
 Vibration     6          0.707              1.630              1.298
 Vibration     7          0.734              1.556              1.125
 Vibration     8          0.779              1.436              0.907
 Vibration     9          0.825              1.321              0.743
 Vibration    10          0.879              1.197              0.601

 Optimization completed.
    -- Stationary point found.
 Normal termination of Gaussian 09 at Tue Jan 28 00:51:07 2020.
