 Gaussian 09, Revision D.01,
 Gaussian 09:  ES64L-G09RevD.01 24-Apr-2013

 -----------------------------
 # b3lyp 6-31G(2df,p) opt Freq
 -----------------------------

 -----
 titel
 -----
 Symbolic Z-matrix:
 Charge =  0 Multiplicity = 1

 SCF Done:  E(RB3LYP) =  -423.117743227     A.U. after   13 cycles
 Optimization completed.
    -- Stationary point found.
 Normal termination of Gaussian 09 at Tue Jan 28 02:36:26 2020.

 ----------------------------------------------------------------------
 #N Geom=AllCheck Guess=TCheck SCRF=Check GenChk RB3LYP/6-31G(2df,p) Fr
 eq
 ----------------------------------------------------------------------

 Structure from the checkpoint file:  "/scratch/puck/g09_64b4f3eb-dcca-4dba-95fd-29d212ac7dc5/Gau-87459.chk"
 -----
 titel
 -----
 Charge =  0 Multiplicity = 1

                         Standard orientation:
 ---------------------------------------------------------------------
 Center     Atomic      Atomic             Coordinates (Angstroms)
 Number     Number       Type             X           Y           Z
 ---------------------------------------------------------------------
      1          8           0       -3.202803   -0.369749   -0.113827
      2          6           0       -1.915279   -0.131053    0.388465
      3          6           0       -0.715510   -0.992691   -0.109577
      4          6           0        0.115863    0.293198   -0.097602
      5          6           0       -1.148345    1.158393   -0.038154
      6          6           0        1.412749    0.673443   -0.764927
      7          6           0        2.398276   -0.484552   -0.633707
      8          8           0        2.177691   -0.568737    0.802236
      9          6           0        1.315609    0.569911    0.745837
     10          1           0       -3.155405   -0.356971   -1.075795
     11          1           0       -2.008986   -0.185028    1.476197
     12          1           0       -0.376277   -1.816932    0.520873
     13          1           0       -0.893414   -1.367333   -1.125556
     14          1           0       -1.165029    2.013729    0.642998
     15          1           0       -1.467577    1.495825   -1.032182
     16          1           0        1.518353    1.533616   -1.413448
     17          1           0        2.154881   -1.421941   -1.147971
     18          1           0        3.436863   -0.205040   -0.842365
     19          1           0        1.377314    1.298077    1.547973
 ---------------------------------------------------------------------

 SCF Done:  E(RB3LYP) =  -423.117743227     A.U. after    1 cycles

 The electronic state is 1-A.
 Alpha  occ. eigenvalues --  -19.13810 -19.13791 -10.23803 -10.23603 -10.23425
 Alpha  occ. eigenvalues --  -10.19998 -10.19527 -10.18621 -10.18015  -1.05075
 Alpha  occ. eigenvalues --   -1.02170  -0.86148  -0.78640  -0.69815  -0.66922
 Alpha  occ. eigenvalues --   -0.61916  -0.55358  -0.54824  -0.50961  -0.49938
 Alpha  occ. eigenvalues --   -0.47517  -0.46208  -0.44100  -0.40603  -0.39272
 Alpha  occ. eigenvalues --   -0.39083  -0.38320  -0.34285  -0.32930  -0.32410
 Alpha  occ. eigenvalues --   -0.31063  -0.26177  -0.25994  -0.23267
 Alpha virt. eigenvalues --    0.07400   0.07633   0.08944   0.10767   0.11645
 Alpha virt. eigenvalues --    0.12103   0.13335   0.15126   0.16332   0.16725
 Alpha virt. eigenvalues --    0.17172   0.19019   0.20279   0.20686   0.21533

 Mulliken charges:
               1
     1  O   -0.431702
     2  C    0.175063
     3  C   -0.351580
     4  C    0.352722
     5  C   -0.363111
     6  C   -0.232497
     7  C   -0.089677
     8  O   -0.285030
     9  C    0.028156
    10  H    0.276137
    11  H    0.099989
    12  H    0.118955
    13  H    0.089242
    14  H    0.105271
    15  H    0.092723
    16  H    0.096574
    17  H    0.106265
    18  H    0.109973
    19  H    0.102525
 Sum of Mulliken charges =   0.00000

 Dipole moment (field-independent basis, Debye):
    X=              0.5251    Y=              1.2059    Z=             -1.9700  Tot=              2.3687
 Quadrupole moment (field-independent basis, Debye-Ang):
   XX=            -60.4261   YY=            -52.6576   ZZ=            -50.1329
   XY=              0.7739   XZ=             -0.0648   YZ=              2.1536

  Exact polarizability:  89.926  -1.518  69.155  -1.408   2.307  68.281
 Approx polarizability: 115.587  -2.357 101.556   0.499   1.563 110.517

                      1                      2                      3
                      A                      A                      A
 Frequencies --     76.0682               146.9497               196.4293
 Red. masses --      3.8972                 4.1810                 2.5679
 Frc consts  --      0.0133                 0.0532                 0.0584
 IR Inten    --      0.7012                 0.6373                 1.0479

                      4                      5                      6
                      A                      A                      A
 Frequencies --    267.1641               306.5115               359.4309
 Red. masses --      2.9727                 1.2419                 2.6441
 Frc consts  --      0.1250                 0.0687                 0.2013
 IR Inten    --      5.3495                53.9253                32.4476

                      7                      8                      9
                      A                      A                      A
 Frequencies --    416.2037               450.9481               472.6152
 Red. masses --      3.2561                 2.1795                 2.2333
 Frc consts  --      0.3323                 0.2611                 0.2939
 IR Inten    --     13.7810                 1.5473                 2.9443

                     10                     11                     12
                      A                      A                      A
 Frequencies --    574.1237               710.4985               764.0698
 Red. masses --      3.5287                 2.8661                 2.7233
 Frc consts  --      0.6853                 0.8525                 0.9367
 IR Inten    --      3.5521                 1.1197                13.8124

                     13                     14                     15
                      A                      A                      A
 Frequencies --    823.5100               829.3136               874.1383
 Red. masses --      1.5124                 1.4805                 2.3716
 Frc consts  --      0.6043                 0.5999                 1.0677
 IR Inten    --      3.4490                 1.3855                 2.8949

                     16                     17                     18
                      A                      A                      A
 Frequencies --    922.2664               945.3843               955.0456
 Red. masses --      3.0802                 3.2201                 2.0578
 Frc consts  --      1.5436                 1.6956                 1.1059
 IR Inten    --      3.3218                30.1447                 0.8821

                     19                     20                     21
                      A                      A                      A
 Frequencies --    977.3180              1000.1402              1020.0898
 Red. masses --      2.1907                 2.8509                 2.2908
 Frc consts  --      1.2329                 1.6802                 1.4045
 IR Inten    --      5.3738                57.3045                23.9260

                     22                     23                     24
                      A                      A                      A
 Frequencies --   1053.2566              1062.3187              1069.4829
 Red. masses --      1.2981                 1.7634                 3.5030
 Frc consts  --      0.8484                 1.1725                 2.3607
 IR Inten    --      9.6395                 2.3314                 9.8591

                     25                     26                     27
                      A                      A                      A
 Frequencies --   1085.5796              1110.1803              1154.6360
 Red. masses --      2.1724                 1.8575                 1.3595
 Frc consts  --      1.5084                 1.3489                 1.0679
 IR Inten    --     20.4026               106.8567                15.7805

                     28                     29                     30
                      A                      A                      A
 Frequencies --   1167.9258              1192.8189              1208.8946
 Red. masses --      2.3103                 1.7362                 1.3742
 Frc consts  --      1.8567                 1.4555                 1.1832
 IR Inten    --     33.6947                 2.9705                 0.2238

                     31                     32                     33
                      A                      A                      A
 Frequencies --   1227.2300              1239.7696              1270.7183
 Red. masses --      1.7401                 1.3255                 1.4385
 Frc consts  --      1.5441                 1.2003                 1.3685
 IR Inten    --     16.5484                 5.3990                 9.5718

                     34                     35                     36
                      A                      A                      A
 Frequencies --   1282.8326              1329.5573              1337.3608
 Red. masses --      1.5422                 1.6355                 1.4927
 Frc consts  --      1.4953                 1.7034                 1.5729
 IR Inten    --      3.0200                 1.5981                 2.9586

                     37                     38                     39
                      A                      A                      A
 Frequencies --   1427.1277              1444.7060              1468.7601
 Red. masses --      1.6560                 2.1744                 1.0927
 Frc consts  --      1.9872                 2.6740                 1.3889
 IR Inten    --     26.9499                62.1991                 1.6231

                     40                     41                     42
                      A                      A                      A
 Frequencies --   1492.2408              1513.5770              3023.2905
 Red. masses --      1.1597                 1.1081                 1.0551
 Frc consts  --      1.5215                 1.4957                 5.6821
 IR Inten    --      6.8253                 0.8810                61.5236

                     43                     44                     45
                      A                      A                      A
 Frequencies --   3026.1769              3031.5938              3073.1193
 Red. masses --      1.0621                 1.0651                 1.1113
 Frc consts  --      5.7308                 5.7672                 6.1835
 IR Inten    --     46.2012                33.6910                37.7988

                     46                     47                     48
                      A                      A                      A
 Frequencies --   3077.0166              3094.9551              3114.0225
 Red. masses --      1.0890                 1.0999                 1.0993
 Frc consts  --      6.0749                 6.2073                 6.2807
 IR Inten    --      6.2344                37.5639                21.7202

                     49                     50                     51
                      A                      A                      A
 Frequencies --   3164.9142              3194.2734              3805.0435
 Red. masses --      1.0911                 1.0958                 1.0657
 Frc consts  --      6.4394                 6.5876                 9.0912
 IR Inten    --     21.1197                10.8259                13.3456

 - Thermochemistry -
 -------------------
 Temperature   298.150 Kelvin.  Pressure   1.00000 Atm.
 Atom     1 has atomic number  8 and mass  15.99491

 Molecular mass:   126.06808 amu.
 Principal axes and moments of inertia in atomic units:
                           1         2         3
     Eigenvalues --   394.403211796.131371878.29900
           X            0.99997  -0.00124  -0.00815
           Y            0.00197   0.99591   0.09034
           Z            0.00801  -0.09035   0.99588
 This molecule is an asymmetric top.
 Rotational symmetry number  1.
 Rotational temperatures (Kelvin)      0.21961     0.04822     0.04611
 Rotational constants (GHZ):           4.57588     1.00479     0.96084
 Zero-point vibrational energy     417685.7 (Joules/Mol)
                                   99.82928 (Kcal/Mol)
 Warning -- explicit consideration of  10 degrees of freedom as
           vibrations may cause significant error
 Vibrational temperatures:    109.45   211.43   282.62   384.39   441.00
          (Kelvin)            517.14   598.82   648.81   679.99   826.03
                             1022.25  1099.32  1184.85  1193.20  1257.69
                             1326.93  1360.20  1374.10  1406.14  1438.98
                             1467.68  1515.40  1528.44  1538.75  1561.90
                             1597.30  1661.26  1680.38  1716.20  1739.33
                             1765.71  1783.75  1828.28  1845.71  1912.93
                             1924.16  2053.32  2078.61  2113.22  2147.00
                             2177.70  4349.84  4353.99  4361.78  4421.53
                             4427.14  4452.94  4480.38  4553.60  4595.84
                             5474.60

 Zero-point correction=                           0.159088 (Hartree/Particle)
 Thermal correction to Energy=                    0.167081
 Thermal correction to Enthalpy=                  0.168025
 Thermal correction to Gibbs Free Energy=         0.126466
 Sum of electronic and zero-point Energies=           -422.958655
 Sum of electronic and thermal Energies=              -422.950662
 Sum of electronic and thermal Enthalpies=            -422.949718
 Sum of electronic and thermal Free Energies=         -422.991277

                     E (Thermal)             CV                S
                      KCal/Mol        Cal/Mol-Kelvin    Cal/Mol-Kelvin
 Total                  104.845             31.322             87.469
 Electronic               0.000              0.000              0.000
 Translational            0.889              2.981             40.409
 Rotational               0.889              2.981             28.677
 Vibrational            103.067             25.360             18.383
 Vibration     1          0.599              1.965              3.990
 Vibration     2          0.617              1.906              2.711
 Vibration     3          0.636              1.845              2.166
 Vibration     4          0.672              1.733              1.614
 Vibration     5          0.697              1.661              1.381
 Vibration     6          0.734              1.556              1.125
 Vibration     7          0.779              1.435              0.905
 Vibration     8          0.810              1.359              0.793
 Vibration     9          0.829              1.311              0.730
 Vibration    10          0.930              1.087              0.496

 Optimization completed.
    -- Stationary point found.
 Normal termination of Gaussian 09 at Tue Jan 28 03:18:24 2020.
