 Gaussian 09, Revision D.01,
 Gaussian 09:  ES64L-G09RevD.01 24-Apr-2013

 -----------------------------
 # b3lyp 6-31G(2df,p) opt Freq
 -----------------------------

 -----
 titel
 -----
 Symbolic Z-matrix:
 Charge =  0 Multiplicity = 1

 SCF Done:  E(RB3LYP) =  -423.223839780     A.U. after   13 cycles
 Optimization completed.
    -- Stationary point found.
 Normal termination of Gaussian 09 at Mon Jan 27 14:07:28 2020.

 ----------------------------------------------------------------------
 #N Geom=AllCheck Guess=TCheck SCRF=Check GenChk RB3LYP/6-31G(2df,p) Fr
 eq
 ----------------------------------------------------------------------

 Structure from the checkpoint file:  "/scratch/puck/g09_65675ba5-d9d8-4a85-8c16-8a74b9567a5b/Gau-171889.chk"
 -----
 titel
 -----
 Charge =  0 Multiplicity = 1

                         Standard orientation:
 ---------------------------------------------------------------------
 Center     Atomic      Atomic             Coordinates (Angstroms)
 Number     Number       Type             X           Y           Z
 ---------------------------------------------------------------------
      1          6           0       -2.859601   -0.781249   -0.891079
      2          6           0       -1.914198    0.133866   -0.140096
      3          8           0       -2.191583    1.287465    0.113414
      4          6           0       -0.609103   -0.466817    0.279036
      5          6           0        0.000012   -0.000120    1.571985
      6          6           0        0.609093    0.466766    0.279087
      7          6           0        1.914173   -0.133859   -0.140169
      8          6           0        2.859594    0.781386   -0.890971
      9          8           0        2.191604   -1.287466    0.113253
     10          1           0       -3.092953   -1.663590   -0.284004
     11          1           0       -3.777884   -0.248640   -1.139768
     12          1           0       -2.381111   -1.147044   -1.807023
     13          1           0       -0.400717   -1.489195   -0.014554
     14          1           0       -0.565869    0.732582    2.135026
     15          1           0        0.565911   -0.732910    2.134894
     16          1           0        0.400699    1.489188   -0.014347
     17          1           0        3.777888    0.248824   -1.139719
     18          1           0        2.381130    1.147332   -1.806866
     19          1           0        3.092925    1.663627   -0.283740
 ---------------------------------------------------------------------

 SCF Done:  E(RB3LYP) =  -423.223839780     A.U. after    1 cycles

 The electronic state is 1-A.
 Alpha  occ. eigenvalues --  -19.12927 -19.12927 -10.27461 -10.27461 -10.20967
 Alpha  occ. eigenvalues --  -10.20944 -10.20654 -10.19277 -10.19277  -1.04216
 Alpha  occ. eigenvalues --   -1.03984  -0.87755  -0.75877  -0.75065  -0.65562
 Alpha  occ. eigenvalues --   -0.63346  -0.54512  -0.54185  -0.49228  -0.47932
 Alpha  occ. eigenvalues --   -0.44850  -0.44545  -0.44129  -0.42920  -0.41504
 Alpha  occ. eigenvalues --   -0.41104  -0.38705  -0.38702  -0.36834  -0.35887
 Alpha  occ. eigenvalues --   -0.31597  -0.30128  -0.25386  -0.24943
 Alpha virt. eigenvalues --   -0.03389   0.00027   0.09353   0.10046   0.11480
 Alpha virt. eigenvalues --    0.12838   0.12966   0.15027   0.15124   0.15621
 Alpha virt. eigenvalues --    0.18178   0.18312   0.20259   0.21882   0.22034

 Mulliken charges:
               1
     1  C   -0.484851
     2  C    0.378030
     3  O   -0.323753
     4  C   -0.114444
     5  C   -0.276337
     6  C   -0.114441
     7  C    0.378030
     8  C   -0.484851
     9  O   -0.323754
    10  H    0.144823
    11  H    0.142785
    12  H    0.143344
    13  H    0.111443
    14  H    0.140789
    15  H    0.140790
    16  H    0.111444
    17  H    0.142785
    18  H    0.143341
    19  H    0.144827
 Sum of Mulliken charges =   0.00000

 Dipole moment (field-independent basis, Debye):
    X=              0.0000    Y=              0.0000    Z=             -0.8324  Tot=              0.8324
 Quadrupole moment (field-independent basis, Debye-Ang):
   XX=            -55.0840   YY=            -57.4429   ZZ=            -50.1252
   XY=             11.4931   XZ=              0.0007   YZ=             -0.0004

  Exact polarizability:  95.533   1.132  73.722   0.000   0.000  67.239
 Approx polarizability: 119.121  -7.154 125.770   0.000   0.001  98.964

                      1                      2                      3
                      A                      A                      A
 Frequencies --     45.3626                64.2854               119.0316
 Red. masses --      3.5147                 4.0904                 3.4040
 Frc consts  --      0.0043                 0.0100                 0.0284
 IR Inten    --      5.6658                 5.1274                 4.9028

                      4                      5                      6
                      A                      A                      A
 Frequencies --    142.0089               153.0867               171.3451
 Red. masses --      1.2290                 1.1547                 2.2096
 Frc consts  --      0.0146                 0.0159                 0.0382
 IR Inten    --      2.2557                 0.0495                 4.5331

                      7                      8                      9
                      A                      A                      A
 Frequencies --    247.6673               310.9725               332.2015
 Red. masses --      7.1798                 2.9998                 3.0356
 Frc consts  --      0.2595                 0.1709                 0.1974
 IR Inten    --      0.9658                 1.2772                 1.3617

                     10                     11                     12
                      A                      A                      A
 Frequencies --    396.7132               586.5671               591.7761
 Red. masses --      2.9225                 2.5453                 4.1617
 Frc consts  --      0.2710                 0.5160                 0.8587
 IR Inten    --     11.3897                 0.0635                18.5284

                     13                     14                     15
                      A                      A                      A
 Frequencies --    596.5769               610.6653               780.4019
 Red. masses --      3.4281                 2.2121                 2.4448
 Frc consts  --      0.7189                 0.4860                 0.8773
 IR Inten    --      4.4032                 0.1029                 0.2781

                     16                     17                     18
                      A                      A                      A
 Frequencies --    802.2446               848.2977               912.7253
 Red. masses --      1.8609                 5.3462                 4.5863
 Frc consts  --      0.7057                 2.2667                 2.2511
 IR Inten    --      0.9418                 3.2471                23.2918

                     19                     20                     21
                      A                      A                      A
 Frequencies --    929.4140               951.6737               969.4741
 Red. masses --      1.4658                 1.7256                 1.7161
 Frc consts  --      0.7460                 0.9208                 0.9503
 IR Inten    --     10.2286                 8.7663                76.5169

                     22                     23                     24
                      A                      A                      A
 Frequencies --   1048.6925              1055.1557              1069.9216
 Red. masses --      2.0273                 1.8129                 1.6104
 Frc consts  --      1.3136                 1.1892                 1.0861
 IR Inten    --      0.9642                 6.5581                 5.9571

                     25                     26                     27
                      A                      A                      A
 Frequencies --   1096.2498              1133.1182              1143.7185
 Red. masses --      1.3532                 1.0464                 1.4007
 Frc consts  --      0.9582                 0.7916                 1.0796
 IR Inten    --      5.2916                 1.1587                 1.7583

                     28                     29                     30
                      A                      A                      A
 Frequencies --   1188.0578              1188.8381              1226.0512
 Red. masses --      1.9118                 2.4854                 1.8648
 Frc consts  --      1.5899                 2.0697                 1.6516
 IR Inten    --    157.9186                23.6012                 8.1366

                     31                     32                     33
                      A                      A                      A
 Frequencies --   1342.0024              1377.7687              1383.2363
 Red. masses --      1.6273                 1.2688                 1.4100
 Frc consts  --      1.7268                 1.4191                 1.5895
 IR Inten    --    136.9488                 6.4441                93.4904

                     34                     35                     36
                      A                      A                      A
 Frequencies --   1422.4816              1454.3166              1462.8847
 Red. masses --      1.6699                 1.4391                 1.0549
 Frc consts  --      1.9908                 1.7933                 1.3301
 IR Inten    --     32.9743                 0.5150                19.9229

                     37                     38                     39
                      A                      A                      A
 Frequencies --   1464.8354              1473.7263              1474.2477
 Red. masses --      1.1429                 1.0487                 1.0575
 Frc consts  --      1.4448                 1.3420                 1.3541
 IR Inten    --      4.7376                 3.9165                 8.6906

                     40                     41                     42
                      A                      A                      A
 Frequencies --   1787.0782              1799.5008              3034.0962
 Red. masses --     10.8353                 9.8692                 1.0371
 Frc consts  --     20.3882                18.8295                 5.6251
 IR Inten    --    258.6084                 6.3113                 0.5226

                     43                     44                     45
                      A                      A                      A
 Frequencies --   3034.1204              3093.7534              3093.8244
 Red. masses --      1.0371                 1.0981                 1.0980
 Frc consts  --      5.6252                 6.1922                 6.1924
 IR Inten    --      3.4003                 3.2231                 9.5628

                     46                     47                     48
                      A                      A                      A
 Frequencies --   3144.9895              3155.0477              3155.1503
 Red. masses --      1.0520                 1.1018                 1.1017
 Frc consts  --      6.1304                 6.4617                 6.4618
 IR Inten    --      6.2096                20.4626                 1.3542

                     49                     50                     51
                      A                      A                      A
 Frequencies --   3184.5799              3186.9804              3248.4188
 Red. masses --      1.0907                 1.0876                 1.1190
 Frc consts  --      6.5172                 6.5086                 6.9568
 IR Inten    --      0.6113                 5.3409                 0.4670

 - Thermochemistry -
 -------------------
 Temperature   298.150 Kelvin.  Pressure   1.00000 Atm.
 Atom     1 has atomic number  6 and mass  12.00000

 Molecular mass:   126.06808 amu.
 Principal axes and moments of inertia in atomic units:
                           1         2         3
     Eigenvalues --   558.725102063.794172122.78119
           X            0.99910   0.04234   0.00000
           Y           -0.04234   0.99910  -0.00002
           Z            0.00000   0.00002   1.00000
 This molecule is an asymmetric top.
 Rotational symmetry number  1.
 Warning -- assumption of classical behavior for rotation
           may cause significant error
 Rotational temperatures (Kelvin)      0.15502     0.04197     0.04080
 Rotational constants (GHZ):           3.23011     0.87448     0.85018
 Zero-point vibrational energy     409633.3 (Joules/Mol)
                                   97.90470 (Kcal/Mol)
 Warning -- explicit consideration of  14 degrees of freedom as
           vibrations may cause significant error
 Vibrational temperatures:     65.27    92.49   171.26   204.32   220.26
          (Kelvin)            246.53   356.34   447.42   477.96   570.78
                              843.94   851.43   858.34   878.61  1122.82
                             1154.25  1220.51  1313.21  1337.22  1369.24
                             1394.86  1508.83  1518.13  1539.38  1577.26
                             1630.30  1645.55  1709.35  1710.47  1764.01
                             1930.84  1982.30  1990.17  2046.63  2092.43
                             2104.76  2107.57  2120.36  2121.11  2571.20
                             2589.08  4365.38  4365.42  4451.22  4451.32
                             4524.93  4539.40  4539.55  4581.89  4585.35
                             4673.74

 Zero-point correction=                           0.156021 (Hartree/Particle)
 Thermal correction to Energy=                    0.166026
 Thermal correction to Enthalpy=                  0.166971
 Thermal correction to Gibbs Free Energy=         0.119995
 Sum of electronic and zero-point Energies=           -423.067819
 Sum of electronic and thermal Energies=              -423.057813
 Sum of electronic and thermal Enthalpies=            -423.056869
 Sum of electronic and thermal Free Energies=         -423.103845

                     E (Thermal)             CV                S
                      KCal/Mol        Cal/Mol-Kelvin    Cal/Mol-Kelvin
 Total                  104.183             35.170             98.869
 Electronic               0.000              0.000              0.000
 Translational            0.889              2.981             40.409
 Rotational               0.889              2.981             29.283
 Vibrational            102.406             29.209             29.177
 Vibration     1          0.595              1.979              5.010
 Vibration     2          0.597              1.971              4.321
 Vibration     3          0.609              1.933              3.116
 Vibration     4          0.615              1.911              2.777
 Vibration     5          0.619              1.899              2.634
 Vibration     6          0.626              1.878              2.421
 Vibration     7          0.661              1.767              1.747
 Vibration     8          0.700              1.653              1.357
 Vibration     9          0.714              1.611              1.249
 Vibration    10          0.763              1.477              0.975
 Vibration    11          0.944              1.060              0.473
 Vibration    12          0.949              1.049              0.464
 Vibration    13          0.954              1.039              0.456
 Vibration    14          0.970              1.009              0.432

 Optimization completed.
    -- Stationary point found.
 Normal termination of Gaussian 09 at Mon Jan 27 14:44:41 2020.
