 Gaussian 09, Revision D.01,
 Gaussian 09:  ES64L-G09RevD.01 24-Apr-2013

 -----------------------------
 # b3lyp 6-31G(2df,p) opt Freq
 -----------------------------

 -----
 titel
 -----
 Symbolic Z-matrix:
 Charge =  0 Multiplicity = 1

 SCF Done:  E(RB3LYP) =  -423.141925995     A.U. after   14 cycles
 Optimization completed.
    -- Stationary point found.
 Normal termination of Gaussian 09 at Tue Jan 28 08:18:01 2020.

 ----------------------------------------------------------------------
 #N Geom=AllCheck Guess=TCheck SCRF=Check GenChk RB3LYP/6-31G(2df,p) Fr
 eq
 ----------------------------------------------------------------------

 Structure from the checkpoint file:  "/scratch/puck/g09_a35b1a87-d13e-4ecd-95bf-cf887276f393/Gau-74478.chk"
 -----
 titel
 -----
 Charge =  0 Multiplicity = 1

                         Standard orientation:
 ---------------------------------------------------------------------
 Center     Atomic      Atomic             Coordinates (Angstroms)
 Number     Number       Type             X           Y           Z
 ---------------------------------------------------------------------
      1          6           0        2.204176    1.865481   -0.000167
      2          8           0        1.065419    1.113360   -0.368387
      3          6           0        0.916501   -0.101283    0.346062
      4          6           0       -0.464622   -0.671194   -0.008232
      5          6           0       -1.607902    0.281340    0.374408
      6          6           0       -2.961160   -0.361141    0.168613
      7          8           0       -3.859605    0.107714   -0.480009
      8          6           0        1.983460   -1.064055    0.037862
      9          6           0        2.849674   -1.856098   -0.221526
     10          1           0        3.134925    1.319988   -0.204023
     11          1           0        2.185148    2.779987   -0.596659
     12          1           0        2.181066    2.133801    1.067395
     13          1           0        0.944830    0.108402    1.430912
     14          1           0       -0.484686   -0.874155   -1.083838
     15          1           0       -0.578313   -1.632738    0.504880
     16          1           0       -1.526998    0.526536    1.444649
     17          1           0       -1.558712    1.212038   -0.192684
     18          1           0       -3.081201   -1.345429    0.682648
     19          1           0        3.616670   -2.555317   -0.448228
 ---------------------------------------------------------------------

 SCF Done:  E(RB3LYP) =  -423.141925995     A.U. after    1 cycles

 The electronic state is 1-A.
 Alpha  occ. eigenvalues --  -19.15376 -19.13910 -10.27150 -10.26774 -10.22967
 Alpha  occ. eigenvalues --  -10.20436 -10.19624 -10.19042 -10.18650  -1.04718
 Alpha  occ. eigenvalues --   -1.04584  -0.81952  -0.76753  -0.72432  -0.67300
 Alpha  occ. eigenvalues --   -0.62673  -0.57706  -0.54278  -0.51174  -0.50079
 Alpha  occ. eigenvalues --   -0.47432  -0.46855  -0.43703  -0.43288  -0.42493
 Alpha  occ. eigenvalues --   -0.39476  -0.37819  -0.36669  -0.35273  -0.33546
 Alpha  occ. eigenvalues --   -0.28633  -0.27706  -0.27286  -0.24994
 Alpha virt. eigenvalues --   -0.02257   0.02967   0.04557   0.09234   0.11016
 Alpha virt. eigenvalues --    0.11815   0.12892   0.12950   0.13624   0.15249
 Alpha virt. eigenvalues --    0.15991   0.16925   0.17460   0.18442   0.21900

 Mulliken charges:
               1
     1  C   -0.239058
     2  O   -0.231862
     3  C   -0.071946
     4  C   -0.212849
     5  C   -0.279503
     6  C    0.157388
     7  O   -0.234665
     8  C    0.331727
     9  C   -0.446678
    10  H    0.123165
    11  H    0.132626
    12  H    0.105305
    13  H    0.090681
    14  H    0.133209
    15  H    0.115221
    16  H    0.114900
    17  H    0.142444
    18  H    0.067793
    19  H    0.202100
 Sum of Mulliken charges =   0.00000

 Dipole moment (field-independent basis, Debye):
    X=              2.9480    Y=             -0.6754    Z=              1.8606  Tot=              3.5509
 Quadrupole moment (field-independent basis, Debye-Ang):
   XX=            -62.0145   YY=            -49.6339   ZZ=            -53.3230
   XY=              1.6353   XZ=             -4.6149   YZ=              1.3733

  Exact polarizability:  99.065  -8.808  81.442  -1.064   0.084  59.427
 Approx polarizability: 130.336 -23.092 117.939   1.043  -0.447  94.965

                      1                      2                      3
                      A                      A                      A
 Frequencies --     50.3857                58.8994                94.6979
 Red. masses --      4.7398                 3.8363                 2.5205
 Frc consts  --      0.0071                 0.0078                 0.0133
 IR Inten    --      4.1143                 1.6085                 2.6808

                      4                      5                      6
                      A                      A                      A
 Frequencies --    105.3797               131.1910               169.4138
 Red. masses --      2.5653                 2.8785                 1.5874
 Frc consts  --      0.0168                 0.0292                 0.0268
 IR Inten    --      2.7365                 0.7121                 0.1693

                      7                      8                      9
                      A                      A                      A
 Frequencies --    228.0710               270.4069               281.6786
 Red. masses --      2.0529                 2.9495                 3.1648
 Frc consts  --      0.0629                 0.1271                 0.1479
 IR Inten    --      4.4660                 4.9848                 4.0404

                     10                     11                     12
                      A                      A                      A
 Frequencies --    310.7004               434.1684               521.2211
 Red. masses --      3.9510                 4.9519                 2.4540
 Frc consts  --      0.2247                 0.5500                 0.3928
 IR Inten    --      0.7009                 0.4301                14.7980

                     13                     14                     15
                      A                      A                      A
 Frequencies --    563.9313               582.5098               633.2542
 Red. masses --      3.3750                 5.2762                 1.2209
 Frc consts  --      0.6324                 1.0548                 0.2885
 IR Inten    --      4.2368                11.0884                42.5320

                     16                     17                     18
                      A                      A                      A
 Frequencies --    677.0117               761.9552               824.2968
 Red. masses --      1.2540                 1.3646                 2.2176
 Frc consts  --      0.3386                 0.4668                 0.8878
 IR Inten    --     34.0574                 0.6069                 4.9427

                     19                     20                     21
                      A                      A                      A
 Frequencies --    904.9655               977.1563              1001.8699
 Red. masses --      1.9484                 3.5528                 3.3359
 Frc consts  --      0.9401                 1.9987                 1.9728
 IR Inten    --     10.0172                26.7234                21.0389

                     22                     23                     24
                      A                      A                      A
 Frequencies --   1051.0543              1094.3017              1123.6083
 Red. masses --      2.4590                 3.1449                 2.2849
 Frc consts  --      1.6005                 2.2188                 1.6996
 IR Inten    --      9.3016                26.8204                14.9610

                     25                     26                     27
                      A                      A                      A
 Frequencies --   1147.3505              1184.3926              1186.9255
 Red. masses --      6.3764                 1.2841                 1.3734
 Frc consts  --      4.9456                 1.0613                 1.1400
 IR Inten    --    167.9825                 1.9409                 1.6369

                     28                     29                     30
                      A                      A                      A
 Frequencies --   1236.1277              1253.3102              1306.9790
 Red. masses --      1.5144                 1.3428                 1.2021
 Frc consts  --      1.3634                 1.2427                 1.2098
 IR Inten    --      9.6909                 2.1068                10.3921

                     31                     32                     33
                      A                      A                      A
 Frequencies --   1335.0704              1365.1469              1386.0625
 Red. masses --      1.3049                 1.1860                 1.5519
 Frc consts  --      1.3704                 1.3023                 1.7567
 IR Inten    --     16.4932                26.4311                 2.1932

                     34                     35                     36
                      A                      A                      A
 Frequencies --   1429.2097              1464.1125              1478.1447
 Red. masses --      1.1918                 1.0793                 1.1405
 Frc consts  --      1.4343                 1.3631                 1.4682
 IR Inten    --      7.3169                 1.0004                 1.9768

                     37                     38                     39
                      A                      A                      A
 Frequencies --   1482.8709              1484.9435              1510.0538
 Red. masses --      1.1021                 1.0480                 1.0548
 Frc consts  --      1.4278                 1.3615                 1.4171
 IR Inten    --      4.4915                 3.9640                 8.0100

                     40                     41                     42
                      A                      A                      A
 Frequencies --   1838.5846              2230.5772              2841.2276
 Red. masses --     10.2326                 5.8856                 1.0811
 Frc consts  --     20.3799                17.2534                 5.1422
 IR Inten    --    205.1840                 2.3474               118.9387

                     43                     44                     45
                      A                      A                      A
 Frequencies --   2936.8745              2984.9308              3003.2640
 Red. masses --      1.0799                 1.0412                 1.0687
 Frc consts  --      5.4876                 5.4656                 5.6794
 IR Inten    --     33.3515                57.2997                12.2395

                     46                     47                     48
                      A                      A                      A
 Frequencies --   3046.7737              3048.6398              3093.1641
 Red. masses --      1.0604                 1.0963                 1.1015
 Frc consts  --      5.7995                 6.0034                 6.2091
 IR Inten    --     13.4245                40.5180                12.0785

                     49                     50                     51
                      A                      A                      A
 Frequencies --   3124.9851              3132.1287              3501.1300
 Red. masses --      1.0984                 1.0931                 1.1628
 Frc consts  --      6.3197                 6.3179                 8.3982
 IR Inten    --     22.0321                 8.9727                64.6059

 - Thermochemistry -
 -------------------
 Temperature   298.150 Kelvin.  Pressure   1.00000 Atm.
 Atom     1 has atomic number  6 and mass  12.00000

 Molecular mass:   126.06808 amu.
 Principal axes and moments of inertia in atomic units:
                           1         2         3
     Eigenvalues --   607.301782408.754092889.61411
           X            0.99984   0.01702  -0.00538
           Y           -0.01696   0.99981   0.01007
           Z            0.00555  -0.00997   0.99993
 This molecule is an asymmetric top.
 Rotational symmetry number  1.
 Warning -- assumption of classical behavior for rotation
           may cause significant error
 Rotational temperatures (Kelvin)      0.14262     0.03596     0.02997
 Rotational constants (GHZ):           2.97174     0.74924     0.62456
 Zero-point vibrational energy     406043.1 (Joules/Mol)
                                   97.04664 (Kcal/Mol)
 Warning -- explicit consideration of  14 degrees of freedom as
           vibrations may cause significant error
 Vibrational temperatures:     72.49    84.74   136.25   151.62   188.75
          (Kelvin)            243.75   328.14   389.05   405.27   447.03
                              624.67   749.92   811.37   838.10   911.11
                              974.07  1096.28  1185.98  1302.04  1405.91
                             1441.47  1512.23  1574.45  1616.62  1650.78
                             1704.07  1707.72  1778.51  1803.23  1880.45
                             1920.87  1964.14  1994.23  2056.31  2106.53
                             2126.72  2133.52  2136.50  2172.63  2645.31
                             3209.30  4087.89  4225.50  4294.64  4321.02
                             4383.62  4386.31  4450.37  4496.15  4506.43
                             5037.34

 Zero-point correction=                           0.154654 (Hartree/Particle)
 Thermal correction to Energy=                    0.165347
 Thermal correction to Enthalpy=                  0.166292
 Thermal correction to Gibbs Free Energy=         0.117495
 Sum of electronic and zero-point Energies=           -422.987272
 Sum of electronic and thermal Energies=              -422.976579
 Sum of electronic and thermal Enthalpies=            -422.975634
 Sum of electronic and thermal Free Energies=         -423.024431

                     E (Thermal)             CV                S
                      KCal/Mol        Cal/Mol-Kelvin    Cal/Mol-Kelvin
 Total                  103.757             36.635            102.701
 Electronic               0.000              0.000              0.000
 Translational            0.889              2.981             40.409
 Rotational               0.889              2.981             29.826
 Vibrational            101.980             30.673             32.467
 Vibration     1          0.595              1.977              4.802
 Vibration     2          0.596              1.974              4.494
 Vibration     3          0.603              1.953              3.561
 Vibration     4          0.605              1.945              3.352
 Vibration     5          0.612              1.922              2.929
 Vibration     6          0.625              1.880              2.442
 Vibration     7          0.651              1.798              1.894
 Vibration     8          0.674              1.728              1.594
 Vibration     9          0.681              1.708              1.523
 Vibration    10          0.700              1.653              1.359
 Vibration    11          0.795              1.396              0.845
 Vibration    12          0.876              1.203              0.607
 Vibration    13          0.920              1.109              0.516
 Vibration    14          0.939              1.069              0.481

 Optimization completed.
    -- Stationary point found.
 Normal termination of Gaussian 09 at Tue Jan 28 08:56:29 2020.
