 Gaussian 09, Revision D.01,
 Gaussian 09:  ES64L-G09RevD.01 24-Apr-2013

 -----------------------------
 # b3lyp 6-31G(2df,p) opt Freq
 -----------------------------

 -----
 titel
 -----
 Symbolic Z-matrix:
 Charge =  0 Multiplicity = 1

 SCF Done:  E(RB3LYP) =  -423.134964657     A.U. after   13 cycles
 Optimization completed.
    -- Stationary point found.
 Normal termination of Gaussian 09 at Tue Jan 28 11:36:46 2020.

 ----------------------------------------------------------------------
 #N Geom=AllCheck Guess=TCheck SCRF=Check GenChk RB3LYP/6-31G(2df,p) Fr
 eq
 ----------------------------------------------------------------------

 Structure from the checkpoint file:  "/scratch/puck/g09_3037a0f0-48f6-43da-87cb-48fb819c804d/Gau-195628.chk"
 -----
 titel
 -----
 Charge =  0 Multiplicity = 1

                         Standard orientation:
 ---------------------------------------------------------------------
 Center     Atomic      Atomic             Coordinates (Angstroms)
 Number     Number       Type             X           Y           Z
 ---------------------------------------------------------------------
      1          6           0       -2.901977    0.010277    0.232533
      2          8           0       -1.612840   -0.538249    0.361210
      3          6           0       -0.709602   -0.123178   -0.644743
      4          6           0       -0.116101    1.309121   -0.431618
      5          6           0        1.307746    1.032822    0.032171
      6          8           0        1.224936    0.277080    1.286396
      7          6           0        1.452341   -0.920827    0.549691
      8          6           0        1.789000   -0.226763   -0.730281
      9          6           0        0.509138   -1.034280   -0.634492
     10          1           0       -3.353301   -0.234051   -0.743165
     11          1           0       -3.518680   -0.422411    1.024230
     12          1           0       -2.908365    1.105426    0.345169
     13          1           0       -1.215182   -0.182301   -1.621883
     14          1           0       -0.111738    1.879733   -1.367310
     15          1           0       -0.681814    1.870952    0.316189
     16          1           0        1.976569    1.890137    0.125533
     17          1           0        1.885945   -1.766524    1.069629
     18          1           0        2.588476   -0.331868   -1.449829
     19          1           0        0.458048   -2.002778   -1.118974
 ---------------------------------------------------------------------

 SCF Done:  E(RB3LYP) =  -423.134964657     A.U. after    1 cycles

 The electronic state is 1-A.
 Alpha  occ. eigenvalues --  -19.13283 -19.12881 -10.23710 -10.23706 -10.23328
 Alpha  occ. eigenvalues --  -10.21954 -10.19105 -10.18955 -10.18049  -1.05065
 Alpha  occ. eigenvalues --   -1.02509  -0.84492  -0.76599  -0.71220  -0.65439
 Alpha  occ. eigenvalues --   -0.60848  -0.56549  -0.53829  -0.52858  -0.49365
 Alpha  occ. eigenvalues --   -0.47810  -0.44512  -0.43397  -0.42426  -0.40399
 Alpha  occ. eigenvalues --   -0.38247  -0.36819  -0.35537  -0.34187  -0.31214
 Alpha  occ. eigenvalues --   -0.30681  -0.27522  -0.24898  -0.22114
 Alpha virt. eigenvalues --    0.08480   0.08929   0.11291   0.11808   0.12296
 Alpha virt. eigenvalues --    0.13138   0.15241   0.15755   0.16201   0.16798
 Alpha virt. eigenvalues --    0.17096   0.18859   0.19236   0.20137   0.21304

 Mulliken charges:
               1
     1  C   -0.232786
     2  O   -0.239874
     3  C    0.139280
     4  C   -0.245361
     5  C    0.085364
     6  O   -0.302637
     7  C    0.120194
     8  C   -0.167935
     9  C   -0.126430
    10  H    0.099019
    11  H    0.126929
    12  H    0.102678
    13  H    0.059929
    14  H    0.095427
    15  H    0.116279
    16  H    0.079337
    17  H    0.103932
    18  H    0.096766
    19  H    0.089890
 Sum of Mulliken charges =   0.00000

 Dipole moment (field-independent basis, Debye):
    X=             -0.0429    Y=              0.3630    Z=             -2.2726  Tot=              2.3019
 Quadrupole moment (field-independent basis, Debye-Ang):
   XX=            -48.8723   YY=            -50.3146   ZZ=            -55.3758
   XY=             -2.0816   XZ=             -1.5933   YZ=             -0.3509

  Exact polarizability:  84.383  -0.530  72.608  -0.715  -0.669  65.826
 Approx polarizability: 107.771   1.285 107.479  -0.414  -2.070 106.731

                      1                      2                      3
                      A                      A                      A
 Frequencies --     94.3951               125.9820               191.5620
 Red. masses --      3.6893                 2.2845                 1.3839
 Frc consts  --      0.0194                 0.0214                 0.0299
 IR Inten    --      1.2574                 1.8492                 1.3949

                      4                      5                      6
                      A                      A                      A
 Frequencies --    252.5266               345.6342               429.0207
 Red. masses --      2.4476                 2.7315                 3.1010
 Frc consts  --      0.0920                 0.1923                 0.3363
 IR Inten    --      2.9295                 0.4946                 4.5136

                      7                      8                      9
                      A                      A                      A
 Frequencies --    448.9844               508.6467               673.6390
 Red. masses --      3.9250                 3.7857                 5.5661
 Frc consts  --      0.4662                 0.5771                 1.4882
 IR Inten    --      7.2328                 0.4281                 3.5486

                     10                     11                     12
                      A                      A                      A
 Frequencies --    741.4431               791.0167               797.3447
 Red. masses --      2.4678                 2.6732                 1.8732
 Frc consts  --      0.7993                 0.9855                 0.7017
 IR Inten    --     10.0003                 4.6320                10.7198

                     13                     14                     15
                      A                      A                      A
 Frequencies --    819.7474               848.3602               867.6926
 Red. masses --      2.5119                 2.6787                 2.7988
 Frc consts  --      0.9945                 1.1359                 1.2415
 IR Inten    --      2.7356                 7.0729                 7.9759

                     16                     17                     18
                      A                      A                      A
 Frequencies --    910.7106               962.2848               981.6911
 Red. masses --      2.0831                 2.7261                 2.1920
 Frc consts  --      1.0179                 1.4873                 1.2447
 IR Inten    --      9.1249                 4.2806                15.1786

                     19                     20                     21
                      A                      A                      A
 Frequencies --    995.6617              1025.9550              1036.1034
 Red. masses --      1.7340                 3.5015                 1.7702
 Frc consts  --      1.0128                 2.1715                 1.1197
 IR Inten    --     20.4467                40.6995                 1.0641

                     22                     23                     24
                      A                      A                      A
 Frequencies --   1042.2515              1065.8040              1085.3916
 Red. masses --      1.9658                 2.5040                 1.7804
 Frc consts  --      1.2581                 1.6759                 1.2358
 IR Inten    --     18.7721                12.0648                 7.6825

                     25                     26                     27
                      A                      A                      A
 Frequencies --   1120.2502              1136.8609              1182.6526
 Red. masses --      1.9373                 3.0152                 1.2967
 Frc consts  --      1.4324                 2.2961                 1.0685
 IR Inten    --     12.8150               103.7228                 2.4924

                     28                     29                     30
                      A                      A                      A
 Frequencies --   1186.1793              1222.6844              1229.6542
 Red. masses --      1.3832                 1.4256                 1.7364
 Frc consts  --      1.1467                 1.2556                 1.5469
 IR Inten    --     41.2231                21.7828                33.6822

                     31                     32                     33
                      A                      A                      A
 Frequencies --   1256.1874              1266.0113              1300.5749
 Red. masses --      1.7468                 1.5070                 1.6676
 Frc consts  --      1.6241                 1.4231                 1.6619
 IR Inten    --      8.7955                10.1655                 6.4893

                     34                     35                     36
                      A                      A                      A
 Frequencies --   1338.2846              1346.8805              1394.4895
 Red. masses --      1.5978                 1.4053                 1.3447
 Frc consts  --      1.6861                 1.5020                 1.5407
 IR Inten    --     11.5357                 1.9627                31.3042

                     37                     38                     39
                      A                      A                      A
 Frequencies --   1408.1999              1461.0848              1478.8953
 Red. masses --      2.4068                 1.1064                 1.1224
 Frc consts  --      2.8120                 1.3916                 1.4463
 IR Inten    --     15.5457                 2.1614                 2.2103

                     40                     41                     42
                      A                      A                      A
 Frequencies --   1488.8722              1509.7810              2962.3099
 Red. masses --      1.0769                 1.0610                 1.0622
 Frc consts  --      1.4065                 1.4250                 5.4917
 IR Inten    --      3.0558                 5.8016                22.7964

                     43                     44                     45
                      A                      A                      A
 Frequencies --   2969.8869              3012.5911              3044.0342
 Red. masses --      1.0598                 1.1000                 1.0637
 Frc consts  --      5.5074                 5.8822                 5.8075
 IR Inten    --     93.5907                52.3616                29.0685

                     46                     47                     48
                      A                      A                      A
 Frequencies --   3099.4585              3107.0973              3111.7117
 Red. masses --      1.0909                 1.0997                 1.0953
 Frc consts  --      6.1745                 6.2551                 6.2488
 IR Inten    --     49.7471                17.4002                28.4564

                     49                     50                     51
                      A                      A                      A
 Frequencies --   3179.6542              3188.6404              3212.8617
 Red. masses --      1.0895                 1.0912                 1.1000
 Frc consts  --      6.4898                 6.5366                 6.6901
 IR Inten    --      5.9732                24.5563                13.6923

 - Thermochemistry -
 -------------------
 Temperature   298.150 Kelvin.  Pressure   1.00000 Atm.
 Atom     1 has atomic number  6 and mass  12.00000

 Molecular mass:   126.06808 amu.
 Principal axes and moments of inertia in atomic units:
                           1         2         3
     Eigenvalues --   516.210501324.847261397.55987
           X            0.99984  -0.01618  -0.00797
           Y            0.01598   0.99957  -0.02473
           Z            0.00836   0.02459   0.99966
 This molecule is an asymmetric top.
 Rotational symmetry number  1.
 Warning -- assumption of classical behavior for rotation
           may cause significant error
 Rotational temperatures (Kelvin)      0.16779     0.06538     0.06198
 Rotational constants (GHZ):           3.49613     1.36223     1.29135
 Zero-point vibrational energy     420234.0 (Joules/Mol)
                                  100.43834 (Kcal/Mol)
 Warning -- explicit consideration of   8 degrees of freedom as
           vibrations may cause significant error
 Vibrational temperatures:    135.81   181.26   275.61   363.33   497.29
          (Kelvin)            617.26   645.99   731.83   969.22  1066.77
                             1138.10  1147.20  1179.43  1220.60  1248.41
                             1310.31  1384.51  1412.43  1432.53  1476.12
                             1490.72  1499.57  1533.45  1561.63  1611.79
                             1635.69  1701.57  1706.65  1759.17  1769.20
                             1807.37  1821.51  1871.23  1925.49  1937.86
                             2006.36  2026.08  2102.17  2127.80  2142.15
                             2172.24  4262.10  4273.00  4334.44  4379.68
                             4459.42  4470.41  4477.05  4574.81  4587.74
                             4622.59

 Zero-point correction=                           0.160059 (Hartree/Particle)
 Thermal correction to Energy=                    0.167616
 Thermal correction to Enthalpy=                  0.168561
 Thermal correction to Gibbs Free Energy=         0.127888
 Sum of electronic and zero-point Energies=           -422.974906
 Sum of electronic and thermal Energies=              -422.967348
 Sum of electronic and thermal Enthalpies=            -422.966404
 Sum of electronic and thermal Free Energies=         -423.007077

                     E (Thermal)             CV                S
                      KCal/Mol        Cal/Mol-Kelvin    Cal/Mol-Kelvin
 Total                  105.181             29.631             85.603
 Electronic               0.000              0.000              0.000
 Translational            0.889              2.981             40.409
 Rotational               0.889              2.981             28.349
 Vibrational            103.403             23.669             16.845
 Vibration     1          0.603              1.953              3.567
 Vibration     2          0.611              1.927              3.006
 Vibration     3          0.634              1.852              2.213
 Vibration     4          0.664              1.759              1.713
 Vibration     5          0.724              1.584              1.186
 Vibration     6          0.790              1.407              0.862
 Vibration     7          0.808              1.363              0.799
 Vibration     8          0.864              1.231              0.637

 Normal termination of Gaussian 09 at Tue Jan 28 12:17:53 2020.
 Normal termination of Gaussian 09 at Tue Jan 28 12:05:54 2020.
