 Gaussian 09, Revision D.01,
 Gaussian 09:  ES64L-G09RevD.01 24-Apr-2013

 -----------------------------
 # b3lyp 6-31G(2df,p) opt Freq
 -----------------------------

 -----
 titel
 -----
 Symbolic Z-matrix:
 Charge =  0 Multiplicity = 1

 SCF Done:  E(RB3LYP) =  -423.088737508     A.U. after   14 cycles
 Optimization completed.
    -- Stationary point found.
 Normal termination of Gaussian 09 at Tue Jan 28 10:09:19 2020.

 ----------------------------------------------------------------------
 #N Geom=AllCheck Guess=TCheck SCRF=Check GenChk RB3LYP/6-31G(2df,p) Fr
 eq
 ----------------------------------------------------------------------

 Structure from the checkpoint file:  "/scratch/puck/g09_807e234d-3a84-492e-b8e4-9647706e8d5b/Gau-64761.chk"
 -----
 titel
 -----
 Charge =  0 Multiplicity = 1

                         Standard orientation:
 ---------------------------------------------------------------------
 Center     Atomic      Atomic             Coordinates (Angstroms)
 Number     Number       Type             X           Y           Z
 ---------------------------------------------------------------------
      1          6           0       -2.949129   -0.582924   -0.185224
      2          6           0       -1.458758   -0.756641    0.068639
      3          6           0       -0.731363    0.258880    0.984307
      4          6           0       -0.580249    1.301604   -0.171424
      5          8           0        0.855029    1.487811    0.013104
      6          6           0        0.626134    0.052488    0.239964
      7          6           0        1.841833   -0.770090    0.533668
      8          8           0        2.776839   -0.679517   -0.525321
      9          6           0       -0.450267   -0.076389   -0.888648
     10          1           0       -3.203970    0.459064   -0.406273
     11          1           0       -3.276622   -1.192557   -1.034340
     12          1           0       -3.535912   -0.890992    0.687015
     13          1           0       -1.222569   -1.803729    0.290925
     14          1           0       -0.865708    0.475517    2.044834
     15          1           0       -1.182325    2.174644   -0.417314
     16          1           0        2.276556   -0.437568    1.490047
     17          1           0        1.567538   -1.825230    0.639092
     18          1           0        2.858414    0.258603   -0.735589
     19          1           0       -0.259554   -0.245666   -1.948348
 ---------------------------------------------------------------------

 SCF Done:  E(RB3LYP) =  -423.088737508     A.U. after    1 cycles

 The electronic state is 1-A.
 Alpha  occ. eigenvalues --  -19.13491 -19.13133 -10.25069 -10.25005 -10.23367
 Alpha  occ. eigenvalues --  -10.20345 -10.20054 -10.20012 -10.18052  -1.06385
 Alpha  occ. eigenvalues --   -1.01610  -0.87286  -0.73719  -0.72116  -0.64798
 Alpha  occ. eigenvalues --   -0.62854  -0.59836  -0.52700  -0.50893  -0.48757
 Alpha  occ. eigenvalues --   -0.46935  -0.45654  -0.43487  -0.41741  -0.39709
 Alpha  occ. eigenvalues --   -0.38860  -0.37972  -0.35155  -0.31430  -0.31168
 Alpha  occ. eigenvalues --   -0.30559  -0.29943  -0.26695  -0.23692
 Alpha virt. eigenvalues --    0.06752   0.09521   0.09852   0.10731   0.11996
 Alpha virt. eigenvalues --    0.13211   0.13914   0.14433   0.15254   0.16274
 Alpha virt. eigenvalues --    0.16640   0.18146   0.18496   0.19523   0.20548

 Mulliken charges:
               1
     1  C   -0.418710
     2  C   -0.018462
     3  C   -0.164918
     4  C    0.078997
     5  O   -0.379736
     6  C    0.457725
     7  C   -0.205622
     8  O   -0.415070
     9  C   -0.140154
    10  H    0.114652
    11  H    0.120144
    12  H    0.118911
    13  H    0.072218
    14  H    0.080913
    15  H    0.097953
    16  H    0.100531
    17  H    0.117903
    18  H    0.296313
    19  H    0.086412
 Sum of Mulliken charges =   0.00000

 Dipole moment (field-independent basis, Debye):
    X=             -2.1126    Y=             -0.2366    Z=              0.5386  Tot=              2.1930
 Quadrupole moment (field-independent basis, Debye-Ang):
   XX=            -56.1201   YY=            -54.5130   ZZ=            -51.8393
   XY=              0.9252   XZ=              1.4801   YZ=             -1.9715

  Exact polarizability:  86.437   0.614  70.882   0.429  -1.152  68.095
 Approx polarizability: 113.165   1.222 111.211  -1.618  -1.447 106.276

                      1                      2                      3
                      A                      A                      A
 Frequencies --     82.6755               141.3603               187.2450
 Red. masses --      4.4640                 3.3258                 2.5895
 Frc consts  --      0.0180                 0.0392                 0.0535
 IR Inten    --      4.4722                 0.7354                 1.7315

                      4                      5                      6
                      A                      A                      A
 Frequencies --    213.8262               272.0114               301.9248
 Red. masses --      1.0664                 2.5925                 2.5626
 Frc consts  --      0.0287                 0.1130                 0.1376
 IR Inten    --      0.3466                 2.9248                 5.9074

                      7                      8                      9
                      A                      A                      A
 Frequencies --    363.6330               418.4050               539.8608
 Red. masses --      1.8331                 1.7816                 3.7050
 Frc consts  --      0.1428                 0.1838                 0.6362
 IR Inten    --     45.1468                83.4165                 4.1592

                     10                     11                     12
                      A                      A                      A
 Frequencies --    582.4953               670.9572               733.8820
 Red. masses --      3.5909                 3.7664                 2.9479
 Frc consts  --      0.7179                 0.9990                 0.9354
 IR Inten    --      3.0253                13.5452                 0.8036

                     13                     14                     15
                      A                      A                      A
 Frequencies --    766.8150               786.5663               827.5710
 Red. masses --      3.4548                 3.3606                 1.8827
 Frc consts  --      1.1969                 1.2250                 0.7597
 IR Inten    --      9.9627                14.0551                 2.5509

                     16                     17                     18
                      A                      A                      A
 Frequencies --    842.5561               881.4534               926.9025
 Red. masses --      2.1226                 2.6264                 2.1057
 Frc consts  --      0.8878                 1.2023                 1.0659
 IR Inten    --      0.1308                23.5806                 2.1420

                     19                     20                     21
                      A                      A                      A
 Frequencies --    948.3504              1020.1024              1043.9178
 Red. masses --      2.2087                 1.5840                 2.0528
 Frc consts  --      1.1704                 0.9712                 1.3180
 IR Inten    --     45.6500                13.6919                 7.5940

                     22                     23                     24
                      A                      A                      A
 Frequencies --   1058.3896              1063.6598              1080.6098
 Red. masses --      1.7991                 2.2935                 2.5637
 Frc consts  --      1.1874                 1.5288                 1.7638
 IR Inten    --     39.4421                20.2357                 7.7551

                     25                     26                     27
                      A                      A                      A
 Frequencies --   1090.2744              1126.7618              1135.1540
 Red. masses --      2.1184                 2.1726                 1.6787
 Frc consts  --      1.4836                 1.6252                 1.2745
 IR Inten    --     16.9479                 0.7115                 0.3354

                     28                     29                     30
                      A                      A                      A
 Frequencies --   1166.4981              1167.4452              1216.0395
 Red. masses --      1.6272                 1.9933                 1.2526
 Frc consts  --      1.3046                 1.6006                 1.0913
 IR Inten    --      0.2651                11.4373                 9.8467

                     31                     32                     33
                      A                      A                      A
 Frequencies --   1242.6662              1262.8046              1281.2696
 Red. masses --      1.7239                 1.7175                 1.9632
 Frc consts  --      1.5684                 1.6137                 1.8989
 IR Inten    --      2.3611                22.9129                21.9786

                     34                     35                     36
                      A                      A                      A
 Frequencies --   1361.7084              1376.7603              1398.2920
 Red. masses --      1.5592                 1.7779                 1.4623
 Frc consts  --      1.7035                 1.9855                 1.6846
 IR Inten    --      7.9474                20.0140                 7.8202

                     37                     38                     39
                      A                      A                      A
 Frequencies --   1415.8681              1444.2949              1491.4677
 Red. masses --      1.3049                 1.5658                 1.0920
 Frc consts  --      1.5413                 1.9244                 1.4312
 IR Inten    --      3.0378                51.7619                 1.1245

                     40                     41                     42
                      A                      A                      A
 Frequencies --   1492.7768              1500.5243              2979.5437
 Red. masses --      1.0473                 1.0508                 1.0696
 Frc consts  --      1.3750                 1.3940                 5.5946
 IR Inten    --      2.8016                 5.0233                49.4780

                     43                     44                     45
                      A                      A                      A
 Frequencies --   3028.9771              3037.0372              3074.7030
 Red. masses --      1.0355                 1.0837                 1.0919
 Frc consts  --      5.5977                 5.8892                 6.0818
 IR Inten    --     26.7161                26.7642                20.3541

                     46                     47                     48
                      A                      A                      A
 Frequencies --   3093.7781              3098.7706              3111.8817
 Red. masses --      1.1010                 1.1006                 1.0903
 Frc consts  --      6.2090                 6.2270                 6.2205
 IR Inten    --     21.2977                31.1224                41.2437

                     49                     50                     51
                      A                      A                      A
 Frequencies --   3120.9659              3137.1470              3791.3665
 Red. masses --      1.0896                 1.0974                 1.0659
 Frc consts  --      6.2533                 6.3633                 9.0272
 IR Inten    --     39.5581                31.7227                28.2087

 - Thermochemistry -
 -------------------
 Temperature   298.150 Kelvin.  Pressure   1.00000 Atm.
 Atom     1 has atomic number  6 and mass  12.00000

 Molecular mass:   126.06808 amu.
 Principal axes and moments of inertia in atomic units:
                           1         2         3
     Eigenvalues --   500.068961499.638071688.43238
           X            0.99993   0.00713   0.00993
           Y           -0.00684   0.99955  -0.02907
           Z           -0.01013   0.02900   0.99953
 This molecule is an asymmetric top.
 Rotational symmetry number  1.
 Warning -- assumption of classical behavior for rotation
           may cause significant error
 Rotational temperatures (Kelvin)      0.17320     0.05776     0.05130
 Rotational constants (GHZ):           3.60898     1.20345     1.06889
 Zero-point vibrational energy     415103.9 (Joules/Mol)
                                   99.21220 (Kcal/Mol)
 Warning -- explicit consideration of  10 degrees of freedom as
           vibrations may cause significant error
 Vibrational temperatures:    118.95   203.39   269.40   307.65   391.36
          (Kelvin)            434.40   523.19   601.99   776.74   838.08
                              965.36  1055.89  1103.27  1131.69  1190.69
                             1212.25  1268.21  1333.60  1364.46  1467.70
                             1501.96  1522.78  1530.37  1554.75  1568.66
                             1621.16  1633.23  1678.33  1679.69  1749.61
                             1787.92  1816.89  1843.46  1959.19  1980.85
                             2011.83  2037.12  2078.02  2145.89  2147.77
                             2158.92  4286.89  4358.02  4369.61  4423.81
                             4451.25  4458.43  4477.30  4490.37  4513.65
                             5454.92

 Zero-point correction=                           0.158105 (Hartree/Particle)
 Thermal correction to Energy=                    0.166414
 Thermal correction to Enthalpy=                  0.167358
 Thermal correction to Gibbs Free Energy=         0.125223
 Sum of electronic and zero-point Energies=           -422.930633
 Sum of electronic and thermal Energies=              -422.922324
 Sum of electronic and thermal Enthalpies=            -422.921379
 Sum of electronic and thermal Free Energies=         -422.963515

                     E (Thermal)             CV                S
                      KCal/Mol        Cal/Mol-Kelvin    Cal/Mol-Kelvin
 Total                  104.426             32.091             88.681
 Electronic               0.000              0.000              0.000
 Translational            0.889              2.981             40.409
 Rotational               0.889              2.981             28.628
 Vibrational            102.649             26.130             19.644
 Vibration     1          0.600              1.961              3.826
 Vibration     2          0.615              1.912              2.785
 Vibration     3          0.632              1.857              2.255
 Vibration     4          0.644              1.820              2.011
 Vibration     5          0.675              1.725              1.583
 Vibration     6          0.694              1.670              1.406
 Vibration     7          0.737              1.547              1.107
 Vibration     8          0.781              1.430              0.897
 Vibration     9          0.895              1.162              0.566
 Vibration    10          0.939              1.069              0.481

 Optimization completed.
    -- Stationary point found.
 Normal termination of Gaussian 09 at Tue Jan 28 12:00:38 2020.
