 Gaussian 09, Revision D.01,
 Gaussian 09:  ES64L-G09RevD.01 24-Apr-2013

 -----------------------------
 # b3lyp 6-31G(2df,p) opt Freq
 -----------------------------

 -----
 titel
 -----
 Symbolic Z-matrix:
 Charge =  0 Multiplicity = 1

 SCF Done:  E(RB3LYP) =  -423.152747970     A.U. after   13 cycles
 Optimization completed.
    -- Stationary point found.
 Normal termination of Gaussian 09 at Tue Jan 28 11:59:12 2020.

 ----------------------------------------------------------------------
 #N Geom=AllCheck Guess=TCheck SCRF=Check GenChk RB3LYP/6-31G(2df,p) Fr
 eq
 ----------------------------------------------------------------------

 Structure from the checkpoint file:  "/scratch/puck/g09_2b8b4134-1515-4c77-afc5-9a700acc2966/Gau-138575.chk"
 -----
 titel
 -----
 Charge =  0 Multiplicity = 1

                         Standard orientation:
 ---------------------------------------------------------------------
 Center     Atomic      Atomic             Coordinates (Angstroms)
 Number     Number       Type             X           Y           Z
 ---------------------------------------------------------------------
      1          6           0       -2.583159   -1.251364   -0.001197
      2          8           0       -1.367132   -0.847688    0.604914
      3          6           0       -0.436952   -0.324543   -0.305716
      4          8           0       -0.862520    0.895805   -0.868146
      5          6           0       -0.403234    1.948934   -0.020890
      6          6           0        1.013485    1.521313    0.367369
      7          6           0        0.863708   -0.019410    0.503317
      8          6           0        2.024504   -0.772646    0.057446
      9          6           0        2.984878   -1.388757   -0.320947
     10          1           0       -2.410979   -2.037338   -0.751800
     11          1           0       -3.217678   -1.651087    0.792603
     12          1           0       -3.089823   -0.408646   -0.485214
     13          1           0       -0.287574   -1.020565   -1.140842
     14          1           0       -0.446088    2.879219   -0.591465
     15          1           0       -1.049824    2.045381    0.862817
     16          1           0        1.713905    1.757257   -0.437281
     17          1           0        1.372213    1.986514    1.287812
     18          1           0        0.640220   -0.281056    1.542432
     19          1           0        3.833458   -1.935775   -0.649504
 ---------------------------------------------------------------------

 SCF Done:  E(RB3LYP) =  -423.152747970     A.U. after    1 cycles

 The electronic state is 1-A.
 Alpha  occ. eigenvalues --  -19.14511 -19.14493 -10.27804 -10.23124 -10.22252
 Alpha  occ. eigenvalues --  -10.21331 -10.19285 -10.18096 -10.17099  -1.07206
 Alpha  occ. eigenvalues --   -1.01087  -0.81205  -0.75099  -0.72651  -0.67821
 Alpha  occ. eigenvalues --   -0.61742  -0.58896  -0.54144  -0.51002  -0.50188
 Alpha  occ. eigenvalues --   -0.48860  -0.45792  -0.44454  -0.42427  -0.40854
 Alpha  occ. eigenvalues --   -0.38328  -0.36363  -0.36017  -0.34931  -0.32079
 Alpha  occ. eigenvalues --   -0.27728  -0.26670  -0.26373  -0.25861
 Alpha virt. eigenvalues --    0.05232   0.05388   0.09566   0.11054   0.11863
 Alpha virt. eigenvalues --    0.13013   0.13701   0.14119   0.15170   0.16404
 Alpha virt. eigenvalues --    0.16646   0.17329   0.18103   0.19982   0.20510

 Mulliken charges:
               1
     1  C   -0.244068
     2  O   -0.245960
     3  C    0.207571
     4  O   -0.248811
     5  C   -0.098122
     6  C   -0.231878
     7  C   -0.204184
     8  C    0.309442
     9  C   -0.464213
    10  H    0.108712
    11  H    0.126702
    12  H    0.126473
    13  H    0.086205
    14  H    0.112703
    15  H    0.103575
    16  H    0.122456
    17  H    0.112880
    18  H    0.124597
    19  H    0.195921
 Sum of Mulliken charges =   0.00000

 Dipole moment (field-independent basis, Debye):
    X=             -0.0821    Y=              0.5105    Z=              0.2058  Tot=              0.5565
 Quadrupole moment (field-independent basis, Debye-Ang):
   XX=            -49.4838   YY=            -49.6503   ZZ=            -54.5685
   XY=              0.7325   XZ=             -1.1364   YZ=              2.9818

  Exact polarizability:  93.721  -7.897  79.991  -5.334   4.636  60.192
 Approx polarizability: 125.483 -17.525 109.926 -11.219   7.669  96.213

                      1                      2                      3
                      A                      A                      A
 Frequencies --     42.3560               107.4646               156.2786
 Red. masses --      3.6371                 2.6737                 1.8209
 Frc consts  --      0.0038                 0.0182                 0.0262
 IR Inten    --      0.8569                 1.8967                 0.6482

                      4                      5                      6
                      A                      A                      A
 Frequencies --    166.7833               189.0803               235.6870
 Red. masses --      2.0721                 2.3642                 2.2022
 Frc consts  --      0.0340                 0.0498                 0.0721
 IR Inten    --      1.4532                 6.0705                 2.3555

                      7                      8                      9
                      A                      A                      A
 Frequencies --    287.8101               398.8892               448.2626
 Red. masses --      3.4466                 4.8387                 7.2696
 Frc consts  --      0.1682                 0.4536                 0.8607
 IR Inten    --      2.7812                 1.1338                 4.8155

                     10                     11                     12
                      A                      A                      A
 Frequencies --    527.1820               580.3513               603.6593
 Red. masses --      5.1144                 2.2677                 4.3505
 Frc consts  --      0.8375                 0.4500                 0.9341
 IR Inten    --      3.9307                 1.4514                 2.9979

                     13                     14                     15
                      A                      A                      A
 Frequencies --    623.6145               632.6348               706.4738
 Red. masses --      1.2623                 1.2300                 4.0878
 Frc consts  --      0.2892                 0.2900                 1.2021
 IR Inten    --     41.4671                40.7259                11.8093

                     16                     17                     18
                      A                      A                      A
 Frequencies --    877.6156               898.5286               953.6357
 Red. masses --      1.9573                 2.4993                 2.6132
 Frc consts  --      0.8882                 1.1889                 1.4002
 IR Inten    --     12.9108                 4.6280                13.8639

                     19                     20                     21
                      A                      A                      A
 Frequencies --    970.6086               981.9142              1022.3313
 Red. masses --      3.0429                 3.4777                 3.5675
 Frc consts  --      1.6890                 1.9755                 2.1968
 IR Inten    --     34.1171                28.7841                54.1824

                     22                     23                     24
                      A                      A                      A
 Frequencies --   1059.7703              1090.7100              1114.2898
 Red. masses --      3.0081                 4.3818                 2.2351
 Frc consts  --      1.9905                 3.0713                 1.6351
 IR Inten    --     41.1549               156.8743                 2.2865

                     25                     26                     27
                      A                      A                      A
 Frequencies --   1132.3794              1181.0729              1199.3291
 Red. masses --      6.8713                 1.2837                 1.3857
 Frc consts  --      5.1913                 1.0551                 1.1744
 IR Inten    --    146.8816                 1.8505                 1.9426

                     28                     29                     30
                      A                      A                      A
 Frequencies --   1214.6690              1242.2035              1273.7739
 Red. masses --      1.3885                 1.2747                 1.3098
 Frc consts  --      1.2070                 1.1589                 1.2521
 IR Inten    --     29.8119                 8.8371                10.9858

                     31                     32                     33
                      A                      A                      A
 Frequencies --   1306.2868              1319.5220              1366.1353
 Red. masses --      1.2730                 1.3626                 1.3272
 Frc consts  --      1.2798                 1.3978                 1.4594
 IR Inten    --      3.1291                15.8316                 1.0115

                     34                     35                     36
                      A                      A                      A
 Frequencies --   1387.8053              1400.6747              1476.2705
 Red. masses --      1.4098                 1.2216                 1.1645
 Frc consts  --      1.5998                 1.4121                 1.4953
 IR Inten    --     27.1793                 9.4866                 2.0188

                     37                     38                     39
                      A                      A                      A
 Frequencies --   1483.4228              1489.4021              1513.5058
 Red. masses --      1.0473                 1.0939                 1.0537
 Frc consts  --      1.3578                 1.4297                 1.4221
 IR Inten    --      3.5021                 3.4993                 5.7974

                     40                     41                     42
                      A                      A                      A
 Frequencies --   1519.0805              2238.9138              2993.2672
 Red. masses --      1.0988                 5.9587                 1.0425
 Frc consts  --      1.4939                17.5985                 5.5034
 IR Inten    --      0.3517                 5.1116                51.9121

                     43                     44                     45
                      A                      A                      A
 Frequencies --   3007.3097              3032.6547              3059.5904
 Red. masses --      1.0693                 1.0859                 1.0829
 Frc consts  --      5.6975                 5.8842                 5.9724
 IR Inten    --     52.5162                38.7915                 3.9049

                     46                     47                     48
                      A                      A                      A
 Frequencies --   3067.1244              3073.2199              3106.3754
 Red. masses --      1.0932                 1.0603                 1.0948
 Frc consts  --      6.0593                 5.9003                 6.2246
 IR Inten    --     34.9999                14.4516                29.0250

                     49                     50                     51
                      A                      A                      A
 Frequencies --   3126.3344              3127.9579              3504.3593
 Red. masses --      1.1009                 1.1069                 1.1617
 Frc consts  --      6.3397                 6.3807                 8.4055
 IR Inten    --     23.2090                22.3339                72.6359

 - Thermochemistry -
 -------------------
 Temperature   298.150 Kelvin.  Pressure   1.00000 Atm.
 Atom     1 has atomic number  6 and mass  12.00000

 Molecular mass:   126.06808 amu.
 Principal axes and moments of inertia in atomic units:
                           1         2         3
     Eigenvalues --   760.530611372.841221894.91117
           X            0.99930   0.03738   0.00043
           Y           -0.03738   0.99888   0.02889
           Z            0.00065  -0.02888   0.99958
 This molecule is an asymmetric top.
 Rotational symmetry number  1.
 Warning -- assumption of classical behavior for rotation
           may cause significant error
 Rotational temperatures (Kelvin)      0.11389     0.06309     0.04571
 Rotational constants (GHZ):           2.37300     1.31460     0.95241
 Zero-point vibrational energy     415813.4 (Joules/Mol)
                                   99.38179 (Kcal/Mol)
 Warning -- explicit consideration of  12 degrees of freedom as
           vibrations may cause significant error
 Vibrational temperatures:     60.94   154.62   224.85   239.96   272.04
          (Kelvin)            339.10   414.09   573.91   644.95   758.50
                              835.00   868.53   897.24   910.22  1016.46
                             1262.69  1292.78  1372.07  1396.49  1412.75
                             1470.90  1524.77  1569.29  1603.21  1629.24
                             1699.30  1725.56  1747.64  1787.25  1832.67
                             1879.45  1898.50  1965.56  1996.74  2015.26
                             2124.02  2134.31  2142.91  2177.59  2185.62
                             3221.29  4306.64  4326.84  4363.31  4402.06
                             4412.90  4421.67  4469.38  4498.09  4500.43
                             5041.99

 Zero-point correction=                           0.158375 (Hartree/Particle)
 Thermal correction to Energy=                    0.167576
 Thermal correction to Enthalpy=                  0.168520
 Thermal correction to Gibbs Free Energy=         0.123730
 Sum of electronic and zero-point Energies=           -422.994373
 Sum of electronic and thermal Energies=              -422.985172
 Sum of electronic and thermal Enthalpies=            -422.984227
 Sum of electronic and thermal Free Energies=         -423.029018

                     E (Thermal)             CV                S
                      KCal/Mol        Cal/Mol-Kelvin    Cal/Mol-Kelvin
 Total                  105.156             33.603             94.269
 Electronic               0.000              0.000              0.000
 Translational            0.889              2.981             40.409
 Rotational               0.889              2.981             29.072
 Vibrational            103.378             27.642             24.789
 Vibration     1          0.595              1.980              5.146
 Vibration     2          0.606              1.943              3.314
 Vibration     3          0.620              1.896              2.594
 Vibration     4          0.624              1.883              2.471
 Vibration     5          0.633              1.855              2.237
 Vibration     6          0.655              1.786              1.835
 Vibration     7          0.685              1.696              1.487
 Vibration     8          0.765              1.473              0.967
 Vibration     9          0.807              1.365              0.801
 Vibration    10          0.882              1.190              0.594
 Vibration    11          0.937              1.074              0.485
 Vibration    12          0.962              1.024              0.443

 Optimization completed.
    -- Stationary point found.
 Normal termination of Gaussian 09 at Tue Jan 28 12:38:57 2020.
