 Gaussian 09, Revision D.01,
 Gaussian 09:  ES64L-G09RevD.01 24-Apr-2013

 -----------------------------
 # b3lyp 6-31G(2df,p) opt Freq
 -----------------------------

 -----
 titel
 -----
 Symbolic Z-matrix:
 Charge =  0 Multiplicity = 1

 SCF Done:  E(RB3LYP) =  -423.172144210     A.U. after   14 cycles
 Optimization completed.
    -- Stationary point found.
 Normal termination of Gaussian 09 at Tue Jan 28 12:12:30 2020.

 ----------------------------------------------------------------------
 #N Geom=AllCheck Guess=TCheck SCRF=Check GenChk RB3LYP/6-31G(2df,p) Fr
 eq
 ----------------------------------------------------------------------

 Structure from the checkpoint file:  "/scratch/puck/g09_9c269004-99d7-4804-bccc-bd4b5ec67bf3/Gau-54393.chk"
 -----
 titel
 -----
 Charge =  0 Multiplicity = 1

                         Standard orientation:
 ---------------------------------------------------------------------
 Center     Atomic      Atomic             Coordinates (Angstroms)
 Number     Number       Type             X           Y           Z
 ---------------------------------------------------------------------
      1          8           0        2.431976   -0.687583   -0.504616
      2          6           0        1.801617    0.488849   -0.028590
      3          6           0        0.319939    0.297362    0.266498
      4          8           0       -0.233167    1.543367    0.785134
      5          6           0       -1.296471    1.519326   -0.191028
      6          6           0       -0.731820    0.261225   -0.884091
      7          6           0       -1.528798   -1.047452   -0.740586
      8          6           0       -1.027264   -1.613205    0.571225
      9          6           0       -0.030417   -0.905790    1.102354
     10          1           0        2.007312   -0.938694   -1.331168
     11          1           0        2.312236    0.755922    0.903303
     12          1           0        1.923414    1.335790   -0.720536
     13          1           0       -2.281044    1.381325    0.275366
     14          1           0       -1.312290    2.436729   -0.790737
     15          1           0       -0.354107    0.439071   -1.893008
     16          1           0       -2.612768   -0.873284   -0.728138
     17          1           0       -1.344036   -1.740774   -1.571759
     18          1           0       -1.453190   -2.510395    1.008605
     19          1           0        0.483269   -1.133846    2.029240
 ---------------------------------------------------------------------

 SCF Done:  E(RB3LYP) =  -423.172144210     A.U. after    1 cycles

 The electronic state is 1-A.
 Alpha  occ. eigenvalues --  -19.13816 -19.12843 -10.23456 -10.22948 -10.22441
 Alpha  occ. eigenvalues --  -10.19432 -10.19369 -10.18937 -10.17944  -1.03579
 Alpha  occ. eigenvalues --   -1.01672  -0.83435  -0.74547  -0.71928  -0.66926
 Alpha  occ. eigenvalues --   -0.63769  -0.55929  -0.52630  -0.52077  -0.48640
 Alpha  occ. eigenvalues --   -0.47633  -0.45116  -0.43534  -0.41689  -0.40936
 Alpha  occ. eigenvalues --   -0.38698  -0.37135  -0.35270  -0.34638  -0.31147
 Alpha  occ. eigenvalues --   -0.29616  -0.27805  -0.25528  -0.24119
 Alpha virt. eigenvalues --    0.00932   0.06445   0.08808   0.10758   0.11567
 Alpha virt. eigenvalues --    0.12882   0.13370   0.15271   0.15705   0.17300
 Alpha virt. eigenvalues --    0.18249   0.18564   0.19591   0.21370   0.22466

 Mulliken charges:
               1
     1  O   -0.410580
     2  C   -0.138124
     3  C    0.370265
     4  O   -0.327000
     5  C   -0.083695
     6  C   -0.139139
     7  C   -0.282900
     8  C   -0.074216
     9  C   -0.098029
    10  H    0.284063
    11  H    0.120139
    12  H    0.090754
    13  H    0.099575
    14  H    0.102717
    15  H    0.070566
    16  H    0.109456
    17  H    0.105707
    18  H    0.099294
    19  H    0.101148
 Sum of Mulliken charges =   0.00000

 Dipole moment (field-independent basis, Debye):
    X=             -1.6185    Y=             -0.7192    Z=             -1.9009  Tot=              2.5981
 Quadrupole moment (field-independent basis, Debye-Ang):
   XX=            -55.7841   YY=            -54.1646   ZZ=            -50.5845
   XY=              2.1461   XZ=              0.4048   YZ=             -1.9789

  Exact polarizability:  79.472   5.234  77.914   6.481  -1.814  68.261
 Approx polarizability: 115.324  10.248 113.561  13.855   3.665 105.821

                      1                      2                      3
                      A                      A                      A
 Frequencies --     76.7085               103.3353               167.0437
 Red. masses --      3.0161                 2.7316                 3.0697
 Frc consts  --      0.0105                 0.0172                 0.0505
 IR Inten    --      2.2186                 0.3124                 0.6046

                      4                      5                      6
                      A                      A                      A
 Frequencies --    245.4346               294.2688               309.6830
 Red. masses --      1.7739                 2.3962                 1.8417
 Frc consts  --      0.0630                 0.1223                 0.1041
 IR Inten    --     21.9304                82.5968                25.3930

                      7                      8                      9
                      A                      A                      A
 Frequencies --    396.8346               419.9441               497.6227
 Red. masses --      2.2916                 3.5471                 2.7728
 Frc consts  --      0.2126                 0.3686                 0.4045
 IR Inten    --      4.7083                 0.1658                 8.7113

                     10                     11                     12
                      A                      A                      A
 Frequencies --    604.3223               700.2872               746.3528
 Red. masses --      3.9133                 3.6749                 3.7121
 Frc consts  --      0.8420                 1.0618                 1.2183
 IR Inten    --      3.6327                14.0413                 0.4593

                     13                     14                     15
                      A                      A                      A
 Frequencies --    765.1464               823.9935               885.8826
 Red. masses --      1.5367                 2.7192                 2.8315
 Frc consts  --      0.5301                 1.0878                 1.3092
 IR Inten    --     17.1963                 3.5566                 8.6746

                     16                     17                     18
                      A                      A                      A
 Frequencies --    922.8247               925.7435               944.7796
 Red. masses --      1.6132                 1.6627                 2.1515
 Frc consts  --      0.8094                 0.8395                 1.1315
 IR Inten    --     12.8494                 6.9171                 2.7066

                     19                     20                     21
                      A                      A                      A
 Frequencies --    981.4894              1010.8476              1028.7541
 Red. masses --      1.2874                 9.5379                 4.2846
 Frc consts  --      0.7307                 5.7422                 2.6717
 IR Inten    --      0.1422                88.9137                28.3071

                     22                     23                     24
                      A                      A                      A
 Frequencies --   1051.7076              1076.8376              1082.3378
 Red. masses --      2.4012                 2.4933                 2.0104
 Frc consts  --      1.5648                 1.7035                 1.3876
 IR Inten    --     60.8961                21.1827                25.5205

                     25                     26                     27
                      A                      A                      A
 Frequencies --   1106.8068              1140.5784              1163.0638
 Red. masses --      1.3724                 1.4979                 1.1353
 Frc consts  --      0.9905                 1.1481                 0.9048
 IR Inten    --      5.8685                12.5832                 0.3947

                     28                     29                     30
                      A                      A                      A
 Frequencies --   1163.5412              1202.3196              1260.4423
 Red. masses --      1.6847                 1.2606                 1.7076
 Frc consts  --      1.3438                 1.0737                 1.5984
 IR Inten    --      8.0120                 1.1790                10.4285

                     31                     32                     33
                      A                      A                      A
 Frequencies --   1267.5419              1313.7371              1320.7307
 Red. masses --      2.2804                 1.6635                 1.4661
 Frc consts  --      2.1586                 1.6916                 1.5067
 IR Inten    --      0.6767                 1.4003                 0.3114

                     34                     35                     36
                      A                      A                      A
 Frequencies --   1352.6728              1367.0545              1390.0733
 Red. masses --      1.4717                 1.3622                 1.7691
 Frc consts  --      1.5865                 1.4999                 2.0141
 IR Inten    --      1.5942                 4.7067                11.1104

                     37                     38                     39
                      A                      A                      A
 Frequencies --   1409.0523              1486.0067              1498.5596
 Red. masses --      1.2739                 1.0935                 1.0839
 Frc consts  --      1.4902                 1.4226                 1.4342
 IR Inten    --     38.1957                 2.9931                 0.7210

                     40                     41                     42
                      A                      A                      A
 Frequencies --   1522.7820              1677.8936              2993.2165
 Red. masses --      1.1009                 6.4674                 1.0679
 Frc consts  --      1.5041                10.7277                 5.6372
 IR Inten    --      0.5598                 3.4290                49.9673

                     43                     44                     45
                      A                      A                      A
 Frequencies --   3009.3214              3015.0786              3039.9866
 Red. masses --      1.0575                 1.0602                 1.1012
 Frc consts  --      5.6426                 5.6787                 5.9962
 IR Inten    --     61.7328                46.1590                24.5909

                     46                     47                     48
                      A                      A                      A
 Frequencies --   3055.1906              3072.8168              3087.8473
 Red. masses --      1.1069                 1.0949                 1.0892
 Frc consts  --      6.0875                 6.0914                 6.1186
 IR Inten    --     29.1617                19.2804                45.8335

                     49                     50                     51
                      A                      A                      A
 Frequencies --   3180.9813              3209.4494              3814.9619
 Red. masses --      1.0858                 1.1025                 1.0661
 Frc consts  --      6.4733                 6.6912                 9.1420
 IR Inten    --      9.2786                14.1981                10.6984

 - Thermochemistry -
 -------------------
 Temperature   298.150 Kelvin.  Pressure   1.00000 Atm.
 Atom     1 has atomic number  8 and mass  15.99491

 Molecular mass:   126.06808 amu.
 Principal axes and moments of inertia in atomic units:
                           1         2         3
     Eigenvalues --   786.504261069.982011391.16626
           X            0.99879   0.04677   0.01512
           Y           -0.04629   0.99846  -0.03069
           Z           -0.01653   0.02996   0.99941
 This molecule is an asymmetric top.
 Rotational symmetry number  1.
 Warning -- assumption of classical behavior for rotation
           may cause significant error
 Rotational temperatures (Kelvin)      0.11013     0.08095     0.06226
 Rotational constants (GHZ):           2.29464     1.68670     1.29729
 Zero-point vibrational energy     419792.9 (Joules/Mol)
                                  100.33291 (Kcal/Mol)
 Warning -- explicit consideration of  10 degrees of freedom as
           vibrations may cause significant error
 Vibrational temperatures:    110.37   148.68   240.34   353.13   423.39
          (Kelvin)            445.56   570.96   604.21   715.97   869.48
                             1007.56  1073.83  1100.87  1185.54  1274.59
                             1327.74  1331.94  1359.33  1412.14  1454.38
                             1480.15  1513.17  1549.33  1557.24  1592.45
                             1641.04  1673.39  1674.07  1729.87  1813.49
                             1823.71  1890.17  1900.23  1946.19  1966.88
                             2000.00  2027.31  2138.03  2156.09  2190.94
                             2414.11  4306.57  4329.74  4338.02  4373.86
                             4395.73  4421.09  4442.72  4576.72  4617.68
                             5488.87

 Zero-point correction=                           0.159891 (Hartree/Particle)
 Thermal correction to Energy=                    0.168120
 Thermal correction to Enthalpy=                  0.169064
 Thermal correction to Gibbs Free Energy=         0.126865
 Sum of electronic and zero-point Energies=           -423.012254
 Sum of electronic and thermal Energies=              -423.004025
 Sum of electronic and thermal Enthalpies=            -423.003080
 Sum of electronic and thermal Free Energies=         -423.045279

                     E (Thermal)             CV                S
                      KCal/Mol        Cal/Mol-Kelvin    Cal/Mol-Kelvin
 Total                  105.497             31.385             88.815
 Electronic               0.000              0.000              0.000
 Translational            0.889              2.981             40.409
 Rotational               0.889              2.981             28.550
 Vibrational            103.719             25.423             19.856
 Vibration     1          0.599              1.965              3.973
 Vibration     2          0.605              1.947              3.390
 Vibration     3          0.624              1.883              2.468
 Vibration     4          0.660              1.770              1.763
 Vibration     5          0.689              1.684              1.449
 Vibration     6          0.699              1.655              1.364
 Vibration     7          0.763              1.477              0.974
 Vibration     8          0.783              1.427              0.892
 Vibration     9          0.853              1.255              0.664
 Vibration    10          0.963              1.023              0.442

 Optimization completed.
    -- Stationary point found.
 Normal termination of Gaussian 09 at Tue Jan 28 13:01:42 2020.
