 Gaussian 09, Revision D.01,
 Gaussian 09:  ES64L-G09RevD.01 24-Apr-2013

 -----------------------------
 # b3lyp 6-31G(2df,p) opt Freq
 -----------------------------

 -----
 titel
 -----
 Symbolic Z-matrix:
 Charge =  0 Multiplicity = 1

 SCF Done:  E(RB3LYP) =  -423.111361536     A.U. after   13 cycles
 Optimization completed.
    -- Stationary point found.
 Normal termination of Gaussian 09 at Tue Jan 28 02:54:31 2020.

 ----------------------------------------------------------------------
 #N Geom=AllCheck Guess=TCheck SCRF=Check GenChk RB3LYP/6-31G(2df,p) Fr
 eq
 ----------------------------------------------------------------------

 Structure from the checkpoint file:  "/scratch/puck/g09_2be94cf9-1156-4b52-a88c-a5c95df4a8dd/Gau-40755.chk"
 -----
 titel
 -----
 Charge =  0 Multiplicity = 1

                         Standard orientation:
 ---------------------------------------------------------------------
 Center     Atomic      Atomic             Coordinates (Angstroms)
 Number     Number       Type             X           Y           Z
 ---------------------------------------------------------------------
      1          8           0       -2.274068    0.998072   -0.154157
      2          6           0       -1.524377    0.003418    0.513613
      3          6           0       -1.252707   -1.273138   -0.377358
      4          6           0        0.099735   -0.635557   -0.855387
      5          6           0        1.518999   -0.786154   -0.275714
      6          6           0        0.929531   -0.704103    1.134633
      7          6           0       -0.029554    0.305095    0.390947
      8          6           0        0.937306    1.421555    0.062771
      9          8           0        2.014159    0.576819   -0.466492
     10          1           0       -3.175646    0.675323   -0.254111
     11          1           0       -1.908030   -0.174059    1.528674
     12          1           0       -1.182757   -2.210416    0.177796
     13          1           0       -1.978416   -1.398727   -1.184253
     14          1           0        0.049139   -0.203557   -1.855327
     15          1           0        2.300091   -1.472098   -0.604713
     16          1           0        0.433021   -1.607966    1.483240
     17          1           0        1.575108   -0.294237    1.913932
     18          1           0        0.577881    2.100865   -0.714833
     19          1           0        1.315284    1.999053    0.913760
 ---------------------------------------------------------------------

 SCF Done:  E(RB3LYP) =  -423.111361536     A.U. after    1 cycles

 The electronic state is 1-A.
 Alpha  occ. eigenvalues --  -19.14304 -19.12657 -10.24309 -10.23432 -10.22187
 Alpha  occ. eigenvalues --  -10.19640 -10.19163 -10.18312 -10.18126  -1.03011
 Alpha  occ. eigenvalues --   -1.02219  -0.86286  -0.74256  -0.71556  -0.65820
 Alpha  occ. eigenvalues --   -0.62823  -0.56415  -0.52752  -0.51103  -0.49597
 Alpha  occ. eigenvalues --   -0.48016  -0.45431  -0.44149  -0.39675  -0.38830
 Alpha  occ. eigenvalues --   -0.38037  -0.36167  -0.35397  -0.32677  -0.30816
 Alpha  occ. eigenvalues --   -0.30129  -0.28508  -0.25220  -0.23551
 Alpha virt. eigenvalues --    0.06553   0.08768   0.10058   0.10522   0.12381
 Alpha virt. eigenvalues --    0.13617   0.14391   0.14841   0.16116   0.16926
 Alpha virt. eigenvalues --    0.17935   0.19370   0.20147   0.20940   0.21955

 Mulliken charges:
               1
     1  O   -0.436449
     2  C   -0.000363
     3  C   -0.324486
     4  C   -0.008527
     5  C    0.072943
     6  C   -0.279588
     7  C    0.308791
     8  C   -0.170576
     9  O   -0.296170
    10  H    0.285446
    11  H    0.063991
    12  H    0.108698
    13  H    0.101354
    14  H    0.086553
    15  H    0.071738
    16  H    0.102908
    17  H    0.101186
    18  H    0.115366
    19  H    0.097184
 Sum of Mulliken charges =   0.00000

 Dipole moment (field-independent basis, Debye):
    X=             -2.2663    Y=             -1.5702    Z=              0.8694  Tot=              2.8909
 Quadrupole moment (field-independent basis, Debye-Ang):
   XX=            -51.7466   YY=            -53.3900   ZZ=            -52.6685
   XY=              0.4780   XZ=              1.8939   YZ=              0.4453

  Exact polarizability:  82.721   1.617  73.850   2.591  -0.171  67.843
 Approx polarizability: 116.287   1.962 111.119   1.716  -0.391 105.461

                      1                      2                      3
                      A                      A                      A
 Frequencies --    142.7496               229.4218               289.3398
 Red. masses --      3.8768                 3.3719                 1.1553
 Frc consts  --      0.0465                 0.1046                 0.0570
 IR Inten    --      0.1709                 3.3504               100.5954

                      4                      5                      6
                      A                      A                      A
 Frequencies --    360.7095               391.0578               421.9416
 Red. masses --      3.3558                 2.6668                 4.1632
 Frc consts  --      0.2573                 0.2403                 0.4367
 IR Inten    --      7.8731                 5.3094                 4.0633

                      7                      8                      9
                      A                      A                      A
 Frequencies --    446.6680               498.7008               573.1661
 Red. masses --      2.0078                 2.1360                 4.0568
 Frc consts  --      0.2360                 0.3130                 0.7852
 IR Inten    --      2.6244                 0.6395                 7.6463

                     10                     11                     12
                      A                      A                      A
 Frequencies --    679.7838               754.5666               797.4827
 Red. masses --      3.0207                 2.2771                 2.8217
 Frc consts  --      0.8224                 0.7639                 1.0573
 IR Inten    --      5.7719                 2.3380                 2.9264

                     13                     14                     15
                      A                      A                      A
 Frequencies --    827.6525               843.2470               862.4982
 Red. masses --      3.0467                 3.7449                 4.2673
 Frc consts  --      1.2296                 1.5689                 1.8704
 IR Inten    --     15.4269                 5.5815                25.6280

                     16                     17                     18
                      A                      A                      A
 Frequencies --    883.8860               918.2604               948.4997
 Red. masses --      3.0013                 3.7621                 2.5266
 Frc consts  --      1.3815                 1.8690                 1.3393
 IR Inten    --      5.1184                26.4775                19.8914

                     19                     20                     21
                      A                      A                      A
 Frequencies --    974.3724               996.3475              1022.2865
 Red. masses --      1.8074                 1.9659                 1.9640
 Frc consts  --      1.0110                 1.1498                 1.2093
 IR Inten    --      8.2094                15.2696                 8.4282

                     22                     23                     24
                      A                      A                      A
 Frequencies --   1055.1479              1075.5607              1100.5306
 Red. masses --      1.5999                 1.8952                 1.8020
 Frc consts  --      1.0495                 1.2917                 1.2859
 IR Inten    --     15.2454                 3.4795                31.0690

                     25                     26                     27
                      A                      A                      A
 Frequencies --   1126.0004              1152.5661              1164.6681
 Red. masses --      2.1833                 1.5840                 1.1835
 Frc consts  --      1.6310                 1.2397                 0.9458
 IR Inten    --      8.4815                 5.8808                39.5452

                     28                     29                     30
                      A                      A                      A
 Frequencies --   1182.9623              1215.6522              1225.2491
 Red. masses --      1.9129                 1.4416                 1.5268
 Frc consts  --      1.5772                 1.2552                 1.3505
 IR Inten    --     14.6761                11.2572                16.1209

                     31                     32                     33
                      A                      A                      A
 Frequencies --   1233.5875              1247.9021              1257.7393
 Red. masses --      1.4657                 1.4235                 1.7261
 Frc consts  --      1.3142                 1.3060                 1.6088
 IR Inten    --     26.8457                 9.3943                 3.3865

                     34                     35                     36
                      A                      A                      A
 Frequencies --   1270.5771              1311.7858              1339.4530
 Red. masses --      1.4586                 1.3329                 1.5037
 Frc consts  --      1.3874                 1.3513                 1.5896
 IR Inten    --     10.0802                10.9213                12.5579

                     37                     38                     39
                      A                      A                      A
 Frequencies --   1360.9840              1426.3872              1460.7878
 Red. masses --      1.6605                 1.6062                 1.1851
 Frc consts  --      1.8121                 1.9254                 1.4899
 IR Inten    --      1.6947                10.5508                 2.6495

                     40                     41                     42
                      A                      A                      A
 Frequencies --   1499.8470              1530.4337              2991.6202
 Red. masses --      1.1103                 1.1045                 1.0855
 Frc consts  --      1.4716                 1.5242                 5.7240
 IR Inten    --      3.6522                 0.8306                76.6906

                     43                     44                     45
                      A                      A                      A
 Frequencies --   3034.2972              3068.6149              3082.9715
 Red. masses --      1.0598                 1.0589                 1.0610
 Frc consts  --      5.7489                 5.8748                 5.9417
 IR Inten    --     69.3988                31.6278                20.9224

                     46                     47                     48
                      A                      A                      A
 Frequencies --   3091.7695              3103.0425              3116.8159
 Red. masses --      1.1060                 1.0877                 1.0932
 Frc consts  --      6.2290                 6.1706                 6.2569
 IR Inten    --     26.7347                15.5336                63.3720

                     49                     50                     51
                      A                      A                      A
 Frequencies --   3126.4077              3156.0459              3812.0194
 Red. masses --      1.1056                 1.1056                 1.0661
 Frc consts  --      6.3668                 6.4881                 9.1274
 IR Inten    --     30.3633                21.3668                21.0280

 - Thermochemistry -
 -------------------
 Temperature   298.150 Kelvin.  Pressure   1.00000 Atm.
 Atom     1 has atomic number  8 and mass  15.99491

 Molecular mass:   126.06808 amu.
 Principal axes and moments of inertia in atomic units:
                           1         2         3
     Eigenvalues --   555.789281153.686341347.60380
           X            0.99976   0.01730   0.01313
           Y           -0.01718   0.99981  -0.00953
           Z           -0.01329   0.00931   0.99987
 This molecule is an asymmetric top.
 Rotational symmetry number  1.
 Warning -- assumption of classical behavior for rotation
           may cause significant error
 Rotational temperatures (Kelvin)      0.15584     0.07508     0.06427
 Rotational constants (GHZ):           3.24717     1.56433     1.33922
 Zero-point vibrational energy     422784.6 (Joules/Mol)
                                  101.04794 (Kcal/Mol)
 Warning -- explicit consideration of   9 degrees of freedom as
           vibrations may cause significant error
 Vibrational temperatures:    205.38   330.09   416.29   518.98   562.64
          (Kelvin)            607.08   642.65   717.52   824.66   978.06
                             1085.65  1147.40  1190.81  1213.24  1240.94
                             1271.71  1321.17  1364.68  1401.90  1433.52
                             1470.84  1518.12  1547.49  1583.42  1620.06
                             1658.28  1675.70  1702.02  1749.05  1762.86
                             1774.86  1795.45  1809.60  1828.07  1887.36
                             1927.17  1958.15  2052.25  2101.75  2157.94
                             2201.95  4304.27  4365.67  4415.05  4435.70
                             4448.36  4464.58  4484.40  4498.20  4540.84
                             5484.64

 Zero-point correction=                           0.161030 (Hartree/Particle)
 Thermal correction to Energy=                    0.168147
 Thermal correction to Enthalpy=                  0.169091
 Thermal correction to Gibbs Free Energy=         0.129904
 Sum of electronic and zero-point Energies=           -422.950331
 Sum of electronic and thermal Energies=              -422.943215
 Sum of electronic and thermal Enthalpies=            -422.942270
 Sum of electronic and thermal Free Energies=         -422.981458

                     E (Thermal)             CV                S
                      KCal/Mol        Cal/Mol-Kelvin    Cal/Mol-Kelvin
 Total                  105.514             29.746             82.476
 Electronic               0.000              0.000              0.000
 Translational            0.889              2.981             40.409
 Rotational               0.889              2.981             28.248
 Vibrational            103.736             23.784             13.819
 Vibration     1          0.616              1.910              2.767
 Vibration     2          0.652              1.796              1.883
 Vibration     3          0.686              1.694              1.478
 Vibration     4          0.735              1.553              1.119
 Vibration     5          0.759              1.489              0.996
 Vibration     6          0.784              1.423              0.885
 Vibration     7          0.806              1.368              0.806
 Vibration     8          0.854              1.253              0.661
 Vibration     9          0.929              1.089              0.498

 Optimization completed.
    -- Stationary point found.
 Normal termination of Gaussian 09 at Tue Jan 28 03:44:24 2020.
