 Gaussian 09, Revision D.01,
 Gaussian 09:  ES64L-G09RevD.01 24-Apr-2013

 -----------------------------
 # b3lyp 6-31G(2df,p) opt Freq
 -----------------------------

 -----
 titel
 -----
 Symbolic Z-matrix:
 Charge =  0 Multiplicity = 1

 SCF Done:  E(RB3LYP) =  -423.145008975     A.U. after   14 cycles
 Optimization completed.
    -- Stationary point found.
 Normal termination of Gaussian 09 at Mon Jan 27 13:55:23 2020.

 ----------------------------------------------------------------------
 #N Geom=AllCheck Guess=TCheck SCRF=Check GenChk RB3LYP/6-31G(2df,p) Fr
 eq
 ----------------------------------------------------------------------

 Structure from the checkpoint file:  "/scratch/puck/g09_71c3779b-23fe-4874-b93c-87a2f738ad5b/Gau-49709.chk"
 -----
 titel
 -----
 Charge =  0 Multiplicity = 1

                         Standard orientation:
 ---------------------------------------------------------------------
 Center     Atomic      Atomic             Coordinates (Angstroms)
 Number     Number       Type             X           Y           Z
 ---------------------------------------------------------------------
      1          8           0       -4.024497    0.116747   -0.074258
      2          6           0       -2.921153   -0.319345   -0.266894
      3          6           0       -1.669736    0.232332    0.393625
      4          8           0       -0.562835   -0.467011   -0.114897
      5          6           0        0.664575   -0.101752    0.476158
      6          6           0        1.277171    1.228672   -0.088987
      7          6           0        2.424146    0.411636   -0.697916
      8          6           0        3.123087   -0.367024    0.379265
      9          6           0        1.814472   -0.881564   -0.154130
     10          1           0       -2.722563   -1.175440   -0.948745
     11          1           0       -1.613930    1.315294    0.197472
     12          1           0       -1.765230    0.109073    1.486541
     13          1           0        0.580263   -0.168298    1.573053
     14          1           0        0.610183    1.649102   -0.845262
     15          1           0        1.555152    2.010301    0.625969
     16          1           0        2.883935    0.596054   -1.660867
     17          1           0        3.998328   -0.925450    0.063701
     18          1           0        3.191026    0.028195    1.391168
     19          1           0        1.706125   -1.854450   -0.616512
 ---------------------------------------------------------------------

 SCF Done:  E(RB3LYP) =  -423.145008975     A.U. after    1 cycles

 The electronic state is 1-A.
 Alpha  occ. eigenvalues --  -19.15593 -19.14411 -10.27512 -10.24377 -10.24360
 Alpha  occ. eigenvalues --  -10.19831 -10.19537 -10.19336 -10.18950  -1.05775
 Alpha  occ. eigenvalues --   -1.04659  -0.89880  -0.75616  -0.71208  -0.64701
 Alpha  occ. eigenvalues --   -0.59905  -0.58330  -0.54207  -0.52567  -0.50106
 Alpha  occ. eigenvalues --   -0.48033  -0.46048  -0.44995  -0.43535  -0.42874
 Alpha  occ. eigenvalues --   -0.38922  -0.38082  -0.36841  -0.34452  -0.31920
 Alpha  occ. eigenvalues --   -0.29909  -0.28160  -0.25671  -0.25422
 Alpha virt. eigenvalues --   -0.02753   0.08201   0.09148   0.10773   0.11579
 Alpha virt. eigenvalues --    0.12918   0.13735   0.14246   0.15084   0.15529
 Alpha virt. eigenvalues --    0.16876   0.17535   0.19251   0.21383   0.21790

 Mulliken charges:
               1
     1  O   -0.238328
     2  C    0.139678
     3  C   -0.155980
     4  O   -0.265667
     5  C    0.159327
     6  C   -0.267721
     7  C   -0.036280
     8  C   -0.281526
     9  C   -0.074077
    10  H    0.096902
    11  H    0.124331
    12  H    0.122201
    13  H    0.063435
    14  H    0.112920
    15  H    0.094453
    16  H    0.088748
    17  H    0.116292
    18  H    0.105825
    19  H    0.095466
 Sum of Mulliken charges =   0.00000

 Dipole moment (field-independent basis, Debye):
    X=              2.8626    Y=              0.0825    Z=              0.3369  Tot=              2.8836
 Quadrupole moment (field-independent basis, Debye-Ang):
   XX=            -65.5164   YY=            -52.4202   ZZ=            -51.5079
   XY=              0.6453   XZ=             -0.7145   YZ=              0.2444

  Exact polarizability:  98.137  -2.914  68.284  -0.130   2.559  64.795
 Approx polarizability: 123.269  -4.705 104.437  -0.749   3.348  99.430

                      1                      2                      3
                      A                      A                      A
 Frequencies --     46.4687                60.0535               100.2633
 Red. masses --      5.7062                 2.1584                 4.1275
 Frc consts  --      0.0073                 0.0046                 0.0244
 IR Inten    --      3.6069                 6.3752                 0.9141

                      4                      5                      6
                      A                      A                      A
 Frequencies --    116.9648               208.5465               299.3646
 Red. masses --      2.4915                 3.1806                 4.2359
 Frc consts  --      0.0201                 0.0815                 0.2237
 IR Inten    --      5.0608                 1.8992                 3.7018

                      7                      8                      9
                      A                      A                      A
 Frequencies --    330.2173               411.5446               501.6254
 Red. masses --      4.5491                 2.0257                 3.0238
 Frc consts  --      0.2923                 0.2021                 0.4483
 IR Inten    --      5.2573                 0.6846                14.2946

                     10                     11                     12
                      A                      A                      A
 Frequencies --    568.5881               710.2500               742.2533
 Red. masses --      5.0742                 2.3508                 1.2714
 Frc consts  --      0.9665                 0.6987                 0.4127
 IR Inten    --      3.3997                 1.7144                 0.4154

                     13                     14                     15
                      A                      A                      A
 Frequencies --    778.6369               815.5812               869.5827
 Red. masses --      1.7264                 2.1673                 2.1133
 Frc consts  --      0.6167                 0.8494                 0.9415
 IR Inten    --      5.2333                 7.2860                 8.8992

                     16                     17                     18
                      A                      A                      A
 Frequencies --    931.0467               935.0798               965.0089
 Red. masses --      1.8022                 2.1221                 1.8938
 Frc consts  --      0.9204                 1.0932                 1.0391
 IR Inten    --      2.5129                16.6862                17.4669

                     19                     20                     21
                      A                      A                      A
 Frequencies --   1000.0226              1024.3150              1046.5700
 Red. masses --      1.5694                 2.5601                 2.9522
 Frc consts  --      0.9247                 1.5826                 1.9052
 IR Inten    --      1.4114                16.2274                26.4943

                     22                     23                     24
                      A                      A                      A
 Frequencies --   1062.7317              1076.0535              1088.1890
 Red. masses --      1.1890                 1.5388                 1.4594
 Frc consts  --      0.7912                 1.0498                 1.0182
 IR Inten    --      0.5773                 2.0250                 2.6217

                     25                     26                     27
                      A                      A                      A
 Frequencies --   1112.1144              1123.2318              1150.6091
 Red. masses --      2.0749                 2.7790                 1.7625
 Frc consts  --      1.5120                 2.0657                 1.3748
 IR Inten    --     11.5329                32.6950                34.7971

                     28                     29                     30
                      A                      A                      A
 Frequencies --   1191.6634              1216.0101              1233.6127
 Red. masses --      3.0265                 1.7756                 1.2264
 Frc consts  --      2.5322                 1.5469                 1.0996
 IR Inten    --    147.7170                 1.3835                 0.4016

                     31                     32                     33
                      A                      A                      A
 Frequencies --   1245.7373              1255.0138              1309.1612
 Red. masses --      1.4542                 1.3752                 1.7042
 Frc consts  --      1.3296                 1.2761                 1.7209
 IR Inten    --      6.9052                 0.2720                 3.6164

                     34                     35                     36
                      A                      A                      A
 Frequencies --   1336.6037              1356.0797              1392.4110
 Red. masses --      1.3393                 1.8458                 1.3199
 Frc consts  --      1.4097                 1.9999                 1.5078
 IR Inten    --     42.8957                 3.7567                37.1905

                     37                     38                     39
                      A                      A                      A
 Frequencies --   1417.0762              1470.3890              1483.2942
 Red. masses --      1.3848                 1.1165                 1.1052
 Frc consts  --      1.6384                 1.4222                 1.4326
 IR Inten    --     13.6211                 2.4403                11.5995

                     40                     41                     42
                      A                      A                      A
 Frequencies --   1495.6313              1845.0037              2899.5307
 Red. masses --      1.2149                10.6773                 1.0845
 Frc consts  --      1.6011                21.4143                 5.3720
 IR Inten    --      1.2675               173.5341                79.6994

                     43                     44                     45
                      A                      A                      A
 Frequencies --   2959.6767              2966.2558              2997.2797
 Red. masses --      1.0632                 1.0790                 1.0983
 Frc consts  --      5.4875                 5.5938                 5.8132
 IR Inten    --     17.6524                86.2750                19.1918

                     46                     47                     48
                      A                      A                      A
 Frequencies --   3044.9095              3102.7510              3110.7967
 Red. masses --      1.0617                 1.0589                 1.1035
 Frc consts  --      5.7997                 6.0059                 6.2918
 IR Inten    --     42.1972                19.6298                24.0024

                     49                     50                     51
                      A                      A                      A
 Frequencies --   3183.5668              3193.0322              3204.6555
 Red. masses --      1.0914                 1.1026                 1.1036
 Frc consts  --      6.5172                 6.6231                 6.6778
 IR Inten    --     17.3533                 2.4415                19.9863

 - Thermochemistry -
 -------------------
 Temperature   298.150 Kelvin.  Pressure   1.00000 Atm.
 Atom     1 has atomic number  8 and mass  15.99491

 Molecular mass:   126.06808 amu.
 Principal axes and moments of inertia in atomic units:
                           1         2         3
     Eigenvalues --   275.061792610.320422703.18525
           X            1.00000  -0.00004  -0.00008
           Y            0.00005   0.99879   0.04914
           Z            0.00008  -0.04914   0.99879
 This molecule is an asymmetric top.
 Rotational symmetry number  1.
 Rotational temperatures (Kelvin)      0.31489     0.03318     0.03204
 Rotational constants (GHZ):           6.56122     0.69139     0.66764
 Zero-point vibrational energy     412622.3 (Joules/Mol)
                                   98.61909 (Kcal/Mol)
 Warning -- explicit consideration of  10 degrees of freedom as
           vibrations may cause significant error
 Vibrational temperatures:     66.86    86.40   144.26   168.29   300.05
          (Kelvin)            430.72   475.11   592.12   721.73   818.07
                             1021.89  1067.94  1120.28  1173.44  1251.13
                             1339.57  1345.37  1388.43  1438.81  1473.76
                             1505.78  1529.03  1548.20  1565.66  1600.08
                             1616.08  1655.47  1714.54  1749.57  1774.89
                             1792.34  1805.68  1883.59  1923.07  1951.09
                             2003.37  2038.85  2115.56  2134.13  2151.88
                             2654.55  4171.77  4258.31  4267.78  4312.41
                             4380.94  4464.16  4475.74  4580.44  4594.06
                             4610.78

 Zero-point correction=                           0.157160 (Hartree/Particle)
 Thermal correction to Energy=                    0.166085
 Thermal correction to Enthalpy=                  0.167029
 Thermal correction to Gibbs Free Energy=         0.122015
 Sum of electronic and zero-point Energies=           -422.987849
 Sum of electronic and thermal Energies=              -422.978924
 Sum of electronic and thermal Enthalpies=            -422.977980
 Sum of electronic and thermal Free Energies=         -423.022994

                     E (Thermal)             CV                S
                      KCal/Mol        Cal/Mol-Kelvin    Cal/Mol-Kelvin
 Total                  104.220             31.989             94.742
 Electronic               0.000              0.000              0.000
 Translational            0.889              2.981             40.409
 Rotational               0.889              2.981             29.053
 Vibrational            102.443             26.027             25.281
 Vibration     1          0.595              1.979              4.962
 Vibration     2          0.597              1.973              4.455
 Vibration     3          0.604              1.949              3.449
 Vibration     4          0.608              1.935              3.150
 Vibration     5          0.642              1.828              2.056
 Vibration     6          0.692              1.675              1.420
 Vibration     7          0.713              1.615              1.259
 Vibration     8          0.776              1.445              0.921
 Vibration     9          0.857              1.246              0.654
 Vibration    10          0.925              1.099              0.507

 Optimization completed.
    -- Stationary point found.
 Normal termination of Gaussian 09 at Mon Jan 27 14:31:27 2020.
