 Gaussian 09, Revision D.01,
 Gaussian 09:  ES64L-G09RevD.01 24-Apr-2013

 -----------------------------
 # b3lyp 6-31G(2df,p) opt Freq
 -----------------------------

 -----
 titel
 -----
 Symbolic Z-matrix:
 Charge =  0 Multiplicity = 1

 SCF Done:  E(RB3LYP) =  -423.171233111     A.U. after   14 cycles
 Optimization completed.
    -- Stationary point found.
 Normal termination of Gaussian 09 at Tue Jan 28 03:56:03 2020.

 ----------------------------------------------------------------------
 #N Geom=AllCheck Guess=TCheck SCRF=Check GenChk RB3LYP/6-31G(2df,p) Fr
 eq
 ----------------------------------------------------------------------

 Structure from the checkpoint file:  "/scratch/puck/g09_602c0853-c016-4b53-bd21-9aa08552fa73/Gau-192783.chk"
 -----
 titel
 -----
 Charge =  0 Multiplicity = 1

                         Standard orientation:
 ---------------------------------------------------------------------
 Center     Atomic      Atomic             Coordinates (Angstroms)
 Number     Number       Type             X           Y           Z
 ---------------------------------------------------------------------
      1          8           0        2.589129   -0.248116   -0.011411
      2          6           0        1.257613    0.001971    0.424279
      3          6           0        0.786520    1.379268   -0.099596
      4          6           0       -0.652375    1.772024    0.149073
      5          6           0       -1.715832    0.973502    0.039780
      6          6           0       -1.621297   -0.493751   -0.271275
      7          6           0       -0.967991   -1.305161    0.878622
      8          6           0        0.308206   -1.147758    0.027261
      9          8           0       -0.492530   -0.805399   -1.135231
     10          1           0        2.584373   -0.246095   -0.975591
     11          1           0        1.329203    0.025679    1.518015
     12          1           0        1.456288    2.134893    0.321264
     13          1           0        0.959936    1.381441   -1.184194
     14          1           0       -0.817132    2.815420    0.406970
     15          1           0       -2.710129    1.368635    0.233673
     16          1           0       -2.555055   -0.883259   -0.687724
     17          1           0       -0.983053   -0.859227    1.873831
     18          1           0       -1.311312   -2.340538    0.921536
     19          1           0        0.905018   -2.049393   -0.143510
 ---------------------------------------------------------------------

 SCF Done:  E(RB3LYP) =  -423.171233111     A.U. after    1 cycles

 The electronic state is 1-A.
 Alpha  occ. eigenvalues --  -19.13469 -19.13199 -10.23842 -10.23228 -10.23149
 Alpha  occ. eigenvalues --  -10.18902 -10.18747 -10.18591 -10.18091  -1.04101
 Alpha  occ. eigenvalues --   -1.01534  -0.80213  -0.75342  -0.74494  -0.65951
 Alpha  occ. eigenvalues --   -0.64294  -0.56046  -0.52646  -0.51772  -0.48394
 Alpha  occ. eigenvalues --   -0.46386  -0.45318  -0.44470  -0.42873  -0.39630
 Alpha  occ. eigenvalues --   -0.37895  -0.35791  -0.35495  -0.34396  -0.32465
 Alpha  occ. eigenvalues --   -0.31065  -0.27200  -0.24684  -0.24382
 Alpha virt. eigenvalues --    0.00401   0.07914   0.08689   0.10552   0.11354
 Alpha virt. eigenvalues --    0.12512   0.13585   0.14452   0.16425   0.17253
 Alpha virt. eigenvalues --    0.18711   0.19725   0.20833   0.22941   0.23211

 Mulliken charges:
               1
     1  O   -0.434019
     2  C    0.109695
     3  C   -0.261814
     4  C   -0.079261
     5  C   -0.047194
     6  C    0.047834
     7  C   -0.268447
     8  C    0.063916
     9  O   -0.291252
    10  H    0.281035
    11  H    0.092901
    12  H    0.106510
    13  H    0.118665
    14  H    0.093980
    15  H    0.087230
    16  H    0.080098
    17  H    0.106670
    18  H    0.109660
    19  H    0.083791
 Sum of Mulliken charges =   0.00000

 Dipole moment (field-independent basis, Debye):
    X=             -1.1972    Y=              0.2801    Z=              0.6193  Tot=              1.3768
 Quadrupole moment (field-independent basis, Debye-Ang):
   XX=            -54.6559   YY=            -50.9874   ZZ=            -53.8821
   XY=              1.0261   XZ=             -3.8557   YZ=             -0.6873

  Exact polarizability:  86.667   3.234  79.810  -1.454   0.588  59.417
 Approx polarizability: 126.157   8.696 112.536  -0.776   3.052  96.884

                      1                      2                      3
                      A                      A                      A
 Frequencies --    107.0175               219.7295               288.6497
 Red. masses --      3.3850                 2.3592                 2.1708
 Frc consts  --      0.0228                 0.0671                 0.1066
 IR Inten    --      2.2275                 5.4286                 6.2354

                      4                      5                      6
                      A                      A                      A
 Frequencies --    309.5482               329.6225               364.7403
 Red. masses --      2.9607                 1.7308                 2.9623
 Frc consts  --      0.1672                 0.1108                 0.2322
 IR Inten    --     21.1855                22.9727                36.8562

                      7                      8                      9
                      A                      A                      A
 Frequencies --    398.6749               475.5100               513.3048
 Red. masses --      5.2430                 2.4578                 3.2864
 Frc consts  --      0.4910                 0.3274                 0.5102
 IR Inten    --      9.2896                 6.8939                 0.3896

                     10                     11                     12
                      A                      A                      A
 Frequencies --    609.9039               691.8248               726.8580
 Red. masses --      3.5330                 1.8121                 1.9706
 Frc consts  --      0.7743                 0.5110                 0.6134
 IR Inten    --      6.1086                 9.9845                19.1183

                     13                     14                     15
                      A                      A                      A
 Frequencies --    811.6787               838.9094               895.3381
 Red. masses --      2.6064                 2.5247                 5.6812
 Frc consts  --      1.0117                 1.0469                 2.6833
 IR Inten    --      7.7400                 1.9658                27.3066

                     16                     17                     18
                      A                      A                      A
 Frequencies --    906.6590               924.2016               962.7563
 Red. masses --      2.6297                 2.6591                 2.9703
 Frc consts  --      1.2736                 1.3382                 1.6221
 IR Inten    --     10.0097                 9.9186                13.2905

                     19                     20                     21
                      A                      A                      A
 Frequencies --    969.7677               991.6847              1016.5210
 Red. masses --      2.2944                 1.3105                 3.1368
 Frc consts  --      1.2713                 0.7594                 1.9097
 IR Inten    --      0.8595                 9.4436                96.4991

                     22                     23                     24
                      A                      A                      A
 Frequencies --   1038.7009              1076.2029              1092.4197
 Red. masses --      2.2937                 2.7478                 2.3124
 Frc consts  --      1.4580                 1.8751                 1.6259
 IR Inten    --     31.9367                30.2455                 2.3350

                     25                     26                     27
                      A                      A                      A
 Frequencies --   1102.1967              1145.0555              1197.5485
 Red. masses --      2.2736                 1.3996                 1.2579
 Frc consts  --      1.6273                 1.0812                 1.0629
 IR Inten    --     15.7039                13.4084                 2.0674

                     28                     29                     30
                      A                      A                      A
 Frequencies --   1216.7435              1235.2666              1255.4803
 Red. masses --      1.2250                 1.1725                 1.3804
 Frc consts  --      1.0685                 1.0541                 1.2820
 IR Inten    --      1.0779                 4.7402                10.3387

                     31                     32                     33
                      A                      A                      A
 Frequencies --   1274.4338              1319.0184              1321.4151
 Red. masses --      1.3475                 1.3323                 1.4504
 Frc consts  --      1.2895                 1.3657                 1.4922
 IR Inten    --      3.2978                 2.3668                 7.0591

                     34                     35                     36
                      A                      A                      A
 Frequencies --   1348.6272              1366.9381              1378.8422
 Red. masses --      1.3524                 1.4447                 1.4404
 Frc consts  --      1.4492                 1.5905                 1.6135
 IR Inten    --      0.3969                 9.8885                 3.4460

                     37                     38                     39
                      A                      A                      A
 Frequencies --   1415.2969              1429.2201              1464.8728
 Red. masses --      1.5414                 1.2348                 1.0885
 Frc consts  --      1.8191                 1.4861                 1.3762
 IR Inten    --      2.8159                50.0628                 3.5707

                     40                     41                     42
                      A                      A                      A
 Frequencies --   1487.1895              1712.0607              3019.0025
 Red. masses --      1.1199                 6.7282                 1.0674
 Frc consts  --      1.4594                11.6196                 5.7321
 IR Inten    --      4.2948                 3.3182                13.0458

                     43                     44                     45
                      A                      A                      A
 Frequencies --   3046.1533              3059.1297              3060.7291
 Red. masses --      1.0835                 1.0846                 1.0845
 Frc consts  --      5.9234                 5.9805                 5.9861
 IR Inten    --     23.5287                41.6325                42.7565

                     46                     47                     48
                      A                      A                      A
 Frequencies --   3079.1577              3084.3526              3139.0258
 Red. masses --      1.0648                 1.0936                 1.1093
 Frc consts  --      5.9483                 6.1299                 6.4399
 IR Inten    --     41.2156                17.9003                20.5449

                     49                     50                     51
                      A                      A                      A
 Frequencies --   3144.5119              3167.6635              3793.6988
 Red. masses --      1.0837                 1.0963                 1.0659
 Frc consts  --      6.3137                 6.4813                 9.0382
 IR Inten    --      7.6613                32.7325                16.1585

 - Thermochemistry -
 -------------------
 Temperature   298.150 Kelvin.  Pressure   1.00000 Atm.
 Atom     1 has atomic number  8 and mass  15.99491

 Molecular mass:   126.06808 amu.
 Principal axes and moments of inertia in atomic units:
                           1         2         3
     Eigenvalues --   690.099491052.875661435.09047
           X            0.99965   0.02009  -0.01722
           Y           -0.02042   0.99961  -0.01926
           Z            0.01683   0.01961   0.99967
 This molecule is an asymmetric top.
 Rotational symmetry number  1.
 Warning -- assumption of classical behavior for rotation
           may cause significant error
 Rotational temperatures (Kelvin)      0.12551     0.08226     0.06035
 Rotational constants (GHZ):           2.61519     1.71411     1.25758
 Zero-point vibrational energy     423620.7 (Joules/Mol)
                                  101.24778 (Kcal/Mol)
 Warning -- explicit consideration of  10 degrees of freedom as
           vibrations may cause significant error
 Vibrational temperatures:    153.97   316.14   415.30   445.37   474.25
          (Kelvin)            524.78   573.60   684.15   738.53   877.51
                              995.38  1045.79  1167.82  1207.00  1288.19
                             1304.48  1329.72  1385.19  1395.28  1426.81
                             1462.55  1494.46  1548.41  1571.75  1585.81
                             1647.48  1723.00  1750.62  1777.27  1806.35
                             1833.62  1897.77  1901.22  1940.37  1966.72
                             1983.84  2036.29  2056.33  2107.62  2139.73
                             2463.27  4343.67  4382.73  4401.40  4403.70
                             4430.22  4437.69  4516.35  4524.25  4557.56
                             5458.28

 Zero-point correction=                           0.161349 (Hartree/Particle)
 Thermal correction to Energy=                    0.168879
 Thermal correction to Enthalpy=                  0.169823
 Thermal correction to Gibbs Free Energy=         0.129656
 Sum of electronic and zero-point Energies=           -423.009884
 Sum of electronic and thermal Energies=              -423.002354
 Sum of electronic and thermal Enthalpies=            -423.001410
 Sum of electronic and thermal Free Energies=         -423.041578

                     E (Thermal)             CV                S
                      KCal/Mol        Cal/Mol-Kelvin    Cal/Mol-Kelvin
 Total                  105.973             30.515             84.540
 Electronic               0.000              0.000              0.000
 Translational            0.889              2.981             40.409
 Rotational               0.889              2.981             28.435
 Vibrational            104.196             24.554             15.696
 Vibration     1          0.606              1.944              3.322
 Vibration     2          0.647              1.811              1.961
 Vibration     3          0.685              1.695              1.482
 Vibration     4          0.699              1.656              1.365
 Vibration     5          0.712              1.616              1.262
 Vibration     6          0.738              1.545              1.102
 Vibration     7          0.765              1.473              0.968
 Vibration     8          0.832              1.304              0.722
 Vibration     9          0.868              1.221              0.626
 Vibration    10          0.969              1.011              0.433

 Normal termination of Gaussian 09 at Tue Jan 28 04:45:25 2020.
