 Gaussian 09, Revision D.01,
 Gaussian 09:  ES64L-G09RevD.01 24-Apr-2013

 -----------------------------
 # b3lyp 6-31G(2df,p) opt Freq
 -----------------------------

 -----
 titel
 -----
 Symbolic Z-matrix:
 Charge =  0 Multiplicity = 1

 SCF Done:  E(RB3LYP) =  -423.164852722     A.U. after   14 cycles
 Optimization completed.
    -- Stationary point found.
 Normal termination of Gaussian 09 at Mon Jan 27 17:13:33 2020.

 ----------------------------------------------------------------------
 #N Geom=AllCheck Guess=TCheck SCRF=Check GenChk RB3LYP/6-31G(2df,p) Fr
 eq
 ----------------------------------------------------------------------

 Structure from the checkpoint file:  "/scratch/puck/g09_a17815fd-517b-4250-9c63-bf9a960128c3/Gau-86402.chk"
 -----
 titel
 -----
 Charge =  0 Multiplicity = 1

                         Standard orientation:
 ---------------------------------------------------------------------
 Center     Atomic      Atomic             Coordinates (Angstroms)
 Number     Number       Type             X           Y           Z
 ---------------------------------------------------------------------
      1          6           0        2.296206   -0.668666   -1.029636
      2          6           0        1.257252   -0.430968    0.026418
      3          6           0        1.440068    0.555076    1.163618
      4          6           0        0.276082    0.718817    0.225638
      5          8           0        0.106660    1.831711   -0.577766
      6          6           0       -0.865723   -0.244686    0.606328
      7          6           0        0.162150   -1.426375    0.431696
      8          6           0       -1.953862   -0.290707   -0.433660
      9          8           0       -3.127274   -0.144535   -0.206998
     10          1           0        1.851280   -1.100043   -1.933368
     11          1           0        2.786194    0.267677   -1.313548
     12          1           0        3.071642   -1.358984   -0.677321
     13          1           0        1.301022    0.258096    2.201463
     14          1           0        2.232914    1.278939    0.999283
     15          1           0       -0.072321    2.595066   -0.016811
     16          1           0       -1.316746   -0.109727    1.593573
     17          1           0        0.346910   -2.018824    1.332598
     18          1           0       -0.122221   -2.101524   -0.381514
     19          1           0       -1.586795   -0.483035   -1.468651
 ---------------------------------------------------------------------

 SCF Done:  E(RB3LYP) =  -423.164852722     A.U. after    1 cycles

 The electronic state is 1-A.
 Alpha  occ. eigenvalues --  -19.15910 -19.13361 -10.26506 -10.25068 -10.20643
 Alpha  occ. eigenvalues --  -10.20007 -10.19779 -10.19288 -10.18559  -1.04613
 Alpha  occ. eigenvalues --   -1.03979  -0.90269  -0.76335  -0.72445  -0.66609
 Alpha  occ. eigenvalues --   -0.60971  -0.57698  -0.55259  -0.50463  -0.47814
 Alpha  occ. eigenvalues --   -0.46229  -0.44518  -0.43248  -0.41869  -0.40949
 Alpha  occ. eigenvalues --   -0.40265  -0.39057  -0.38004  -0.35482  -0.33365
 Alpha  occ. eigenvalues --   -0.32205  -0.27243  -0.25814  -0.24153
 Alpha virt. eigenvalues --   -0.01774   0.07109   0.09377   0.10840   0.11233
 Alpha virt. eigenvalues --    0.12295   0.12998   0.13371   0.15468   0.15893
 Alpha virt. eigenvalues --    0.18106   0.18132   0.18470   0.20392   0.23688

 Mulliken charges:
               1
     1  C   -0.498665
     2  C    0.307590
     3  C   -0.399039
     4  C    0.348142
     5  O   -0.458101
     6  C   -0.160070
     7  C   -0.308853
     8  C    0.172379
     9  O   -0.263273
    10  H    0.120570
    11  H    0.129302
    12  H    0.122431
    13  H    0.105519
    14  H    0.115849
    15  H    0.291627
    16  H    0.081897
    17  H    0.107055
    18  H    0.110158
    19  H    0.075482
 Sum of Mulliken charges =   0.00000

 Dipole moment (field-independent basis, Debye):
    X=              3.0131    Y=              0.1522    Z=              1.0276  Tot=              3.1871
 Quadrupole moment (field-independent basis, Debye-Ang):
   XX=            -64.3427   YY=            -48.2880   ZZ=            -52.8502
   XY=             -0.1519   XZ=             -0.3033   YZ=              2.7591

  Exact polarizability:  88.830  -1.768  71.836  -0.472   2.435  70.641
 Approx polarizability: 124.798  -5.263 106.987  -1.026   2.932 105.991

                      1                      2                      3
                      A                      A                      A
 Frequencies --     74.6625                92.0772               175.0825
 Red. masses --      5.4570                 3.8796                 2.6482
 Frc consts  --      0.0179                 0.0194                 0.0478
 IR Inten    --      4.8342                 1.6983                 3.3656

                      4                      5                      6
                      A                      A                      A
 Frequencies --    191.6628               233.4059               290.3431
 Red. masses --      1.1588                 2.8219                 1.1453
 Frc consts  --      0.0251                 0.0906                 0.0569
 IR Inten    --      2.6179                 4.3367                80.9751

                      7                      8                      9
                      A                      A                      A
 Frequencies --    331.9397               362.9179               396.1361
 Red. masses --      2.2562                 2.0869                 3.8003
 Frc consts  --      0.1465                 0.1619                 0.3514
 IR Inten    --      5.5285                 5.3387                 0.3732

                     10                     11                     12
                      A                      A                      A
 Frequencies --    447.9647               464.1840               521.0303
 Red. masses --      3.0113                 3.3095                 2.6784
 Frc consts  --      0.3560                 0.4201                 0.4284
 IR Inten    --      3.3277                13.0310                 6.6832

                     13                     14                     15
                      A                      A                      A
 Frequencies --    598.4913               717.6098               757.3312
 Red. masses --      3.7048                 3.5329                 3.1205
 Frc consts  --      0.7819                 1.0719                 1.0545
 IR Inten    --      5.4124                 0.5645                 0.4398

                     16                     17                     18
                      A                      A                      A
 Frequencies --    842.4269               861.1557               908.2979
 Red. masses --      3.1916                 1.9291                 1.8084
 Frc consts  --      1.3345                 0.8429                 0.8790
 IR Inten    --      8.4465                14.1184                 6.8820

                     19                     20                     21
                      A                      A                      A
 Frequencies --    949.6935               979.1563               998.8848
 Red. masses --      1.7053                 1.6858                 1.6722
 Frc consts  --      0.9062                 0.9522                 0.9830
 IR Inten    --     16.6974                 6.5286                 1.1507

                     22                     23                     24
                      A                      A                      A
 Frequencies --   1045.4476              1049.7929              1055.4239
 Red. masses --      1.4996                 1.8426                 1.3370
 Frc consts  --      0.9657                 1.1964                 0.8775
 IR Inten    --     16.0023                 7.3541                 3.9113

                     25                     26                     27
                      A                      A                      A
 Frequencies --   1118.6535              1171.0737              1177.5052
 Red. masses --      2.1447                 2.2604                 1.6651
 Frc consts  --      1.5813                 1.8264                 1.3602
 IR Inten    --      8.6715                37.4657                 3.4559

                     28                     29                     30
                      A                      A                      A
 Frequencies --   1223.6681              1236.5721              1249.7882
 Red. masses --      1.5347                 1.4846                 2.4196
 Frc consts  --      1.3540                 1.3375                 2.2267
 IR Inten    --     36.4004                 1.1241                45.6320

                     31                     32                     33
                      A                      A                      A
 Frequencies --   1276.6177              1306.3316              1332.6151
 Red. masses --      1.5777                 2.0172                 2.3491
 Frc consts  --      1.5150                 2.0281                 2.4579
 IR Inten    --     30.6054                38.8792                18.0367

                     34                     35                     36
                      A                      A                      A
 Frequencies --   1407.4055              1425.4550              1432.4302
 Red. masses --      1.3581                 1.5466                 1.2598
 Frc consts  --      1.5849                 1.8515                 1.5230
 IR Inten    --      2.0814                 3.9140                 2.9685

                     37                     38                     39
                      A                      A                      A
 Frequencies --   1478.4787              1487.3943              1496.2014
 Red. masses --      1.1515                 1.0613                 1.0594
 Frc consts  --      1.4830                 1.3834                 1.3973
 IR Inten    --      0.8263                 5.5756                 3.1868

                     40                     41                     42
                      A                      A                      A
 Frequencies --   1515.6671              1831.6574              2861.9536
 Red. masses --      1.6301                10.2262                 1.0820
 Frc consts  --      2.2064                20.2140                 5.2216
 IR Inten    --     12.8876               218.6736                80.4740

                     43                     44                     45
                      A                      A                      A
 Frequencies --   3025.0942              3045.9027              3071.1750
 Red. masses --      1.0363                 1.0576                 1.0871
 Frc consts  --      5.5875                 5.7808                 6.0411
 IR Inten    --     33.1836                38.2006                21.3960

                     46                     47                     48
                      A                      A                      A
 Frequencies --   3083.5040              3097.2198              3098.3729
 Red. masses --      1.1008                 1.0589                 1.1050
 Frc consts  --      6.1664                 5.9846                 6.2497
 IR Inten    --     20.1306                10.2407                32.8196

                     49                     50                     51
                      A                      A                      A
 Frequencies --   3105.2270              3194.8832              3787.6922
 Red. masses --      1.0995                 1.1131                 1.0662
 Frc consts  --      6.2462                 6.6940                 9.0124
 IR Inten    --     17.7859                 9.4903                26.9090

 - Thermochemistry -
 -------------------
 Temperature   298.150 Kelvin.  Pressure   1.00000 Atm.
 Atom     1 has atomic number  6 and mass  12.00000

 Molecular mass:   126.06808 amu.
 Principal axes and moments of inertia in atomic units:
                           1         2         3
     Eigenvalues --   646.459891478.564051676.29755
           X            0.99989  -0.00841  -0.01230
           Y            0.00910   0.99835   0.05666
           Z            0.01180  -0.05677   0.99832
 This molecule is an asymmetric top.
 Rotational symmetry number  1.
 Warning -- assumption of classical behavior for rotation
           may cause significant error
 Rotational temperatures (Kelvin)      0.13398     0.05858     0.05167
 Rotational constants (GHZ):           2.79173     1.22060     1.07662
 Zero-point vibrational energy     412015.8 (Joules/Mol)
                                   98.47413 (Kcal/Mol)
 Warning -- explicit consideration of  13 degrees of freedom as
           vibrations may cause significant error
 Vibrational temperatures:    107.42   132.48   251.90   275.76   335.82
          (Kelvin)            417.74   477.59   522.16   569.95   644.52
                              667.86   749.65   861.09  1032.48  1089.63
                             1212.06  1239.01  1306.84  1366.40  1408.79
                             1437.17  1504.16  1510.42  1518.52  1609.49
                             1684.91  1694.17  1760.58  1779.15  1798.16
                             1836.77  1879.52  1917.33  2024.94  2050.91
                             2060.95  2127.20  2140.03  2152.70  2180.70
                             2635.34  4117.71  4352.43  4382.37  4418.73
                             4436.47  4456.20  4457.86  4467.72  4596.72
                             5449.64

 Zero-point correction=                           0.156929 (Hartree/Particle)
 Thermal correction to Energy=                    0.166112
 Thermal correction to Enthalpy=                  0.167057
 Thermal correction to Gibbs Free Energy=         0.122982
 Sum of electronic and zero-point Energies=           -423.007924
 Sum of electronic and thermal Energies=              -422.998740
 Sum of electronic and thermal Enthalpies=            -422.997796
 Sum of electronic and thermal Free Energies=         -423.041871

                     E (Thermal)             CV                S
                      KCal/Mol        Cal/Mol-Kelvin    Cal/Mol-Kelvin
 Total                  104.237             34.316             92.763
 Electronic               0.000              0.000              0.000
 Translational            0.889              2.981             40.409
 Rotational               0.889              2.981             28.862
 Vibrational            102.460             28.355             23.492
 Vibration     1          0.599              1.966              4.027
 Vibration     2          0.602              1.955              3.615
 Vibration     3          0.627              1.873              2.380
 Vibration     4          0.634              1.851              2.212
 Vibration     5          0.654              1.790              1.853
 Vibration     6          0.686              1.692              1.472
 Vibration     7          0.714              1.612              1.251
 Vibration     8          0.737              1.549              1.110
 Vibration     9          0.763              1.478              0.977
 Vibration    10          0.807              1.365              0.802
 Vibration    11          0.822              1.330              0.754
 Vibration    12          0.876              1.203              0.608
 Vibration    13          0.956              1.035              0.452

 Normal termination of Gaussian 09 at Mon Jan 27 17:56:34 2020.
