 Gaussian 09, Revision D.01,
 Gaussian 09:  ES64L-G09RevD.01 24-Apr-2013

 -----------------------------
 # b3lyp 6-31G(2df,p) opt Freq
 -----------------------------

 -----
 titel
 -----
 Symbolic Z-matrix:
 Charge =  0 Multiplicity = 1

 SCF Done:  E(RB3LYP) =  -423.185672101     A.U. after   13 cycles
 Optimization completed.
    -- Stationary point found.
 Normal termination of Gaussian 09 at Tue Jan 28 12:09:21 2020.

 ----------------------------------------------------------------------
 #N Geom=AllCheck Guess=TCheck SCRF=Check GenChk RB3LYP/6-31G(2df,p) Fr
 eq
 ----------------------------------------------------------------------

 Structure from the checkpoint file:  "/scratch/puck/g09_293d5c29-af44-4ee3-bfd4-098df1d3fd2f/Gau-19196.chk"
 -----
 titel
 -----
 Charge =  0 Multiplicity = 1

                         Standard orientation:
 ---------------------------------------------------------------------
 Center     Atomic      Atomic             Coordinates (Angstroms)
 Number     Number       Type             X           Y           Z
 ---------------------------------------------------------------------
      1          8           0        2.645951   -0.394168   -0.291950
      2          6           0        1.830189    0.671113    0.154401
      3          6           0        0.374366    0.267881    0.208498
      4          6           0       -0.678779    1.360962    0.587264
      5          6           0       -1.955032    0.797875   -0.104671
      6          6           0       -1.389114   -0.516154   -0.736587
      7          8           0       -0.074611   -0.087700   -1.117813
      8          6           0       -1.091671   -1.472180    0.412514
      9          6           0        0.000970   -0.985860    0.999024
     10          1           0        2.198863   -0.764647   -1.062578
     11          1           0        2.179373    0.947965    1.155205
     12          1           0        1.928791    1.558080   -0.491785
     13          1           0       -0.784828    1.481209    1.667308
     14          1           0       -0.389519    2.324836    0.159839
     15          1           0       -2.779984    0.610676    0.586084
     16          1           0       -2.308644    1.469656   -0.890307
     17          1           0       -1.934198   -0.906315   -1.595225
     18          1           0       -1.721856   -2.294143    0.724147
     19          1           0        0.495715   -1.314204    1.902761
 ---------------------------------------------------------------------

 SCF Done:  E(RB3LYP) =  -423.185672101     A.U. after    1 cycles

 The electronic state is 1-A.
 Alpha  occ. eigenvalues --  -19.13952 -19.12773 -10.23770 -10.23758 -10.22500
 Alpha  occ. eigenvalues --  -10.18761 -10.18740 -10.18454 -10.18344  -1.05320
 Alpha  occ. eigenvalues --   -1.00874  -0.80522  -0.76020  -0.75183  -0.66543
 Alpha  occ. eigenvalues --   -0.59523  -0.56753  -0.55522  -0.52646  -0.48426
 Alpha  occ. eigenvalues --   -0.46973  -0.44969  -0.43834  -0.40249  -0.39795
 Alpha  occ. eigenvalues --   -0.38931  -0.36327  -0.35433  -0.34374  -0.32465
 Alpha  occ. eigenvalues --   -0.31456  -0.26548  -0.26253  -0.24891
 Alpha virt. eigenvalues --    0.00940   0.08662   0.10784   0.11964   0.12143
 Alpha virt. eigenvalues --    0.12802   0.14891   0.15233   0.15946   0.16821
 Alpha virt. eigenvalues --    0.17904   0.18254   0.20518   0.21282   0.22276

 Mulliken charges:
               1
     1  O   -0.421781
     2  C   -0.149685
     3  C    0.317838
     4  C   -0.258486
     5  C   -0.213435
     6  C    0.007720
     7  O   -0.291182
     8  C   -0.090030
     9  C   -0.103799
    10  H    0.291576
    11  H    0.107041
    12  H    0.092664
    13  H    0.103001
    14  H    0.105356
    15  H    0.102334
    16  H    0.107571
    17  H    0.079702
    18  H    0.104833
    19  H    0.108764
 Sum of Mulliken charges =   0.00000

 Dipole moment (field-independent basis, Debye):
    X=             -2.2431    Y=              0.4087    Z=              0.7517  Tot=              2.4007
 Quadrupole moment (field-independent basis, Debye-Ang):
   XX=            -56.8042   YY=            -51.4142   ZZ=            -51.6734
   XY=              2.7016   XZ=              0.7181   YZ=              0.5607

  Exact polarizability:  82.540   4.280  73.750   6.104  -0.490  66.520
 Approx polarizability: 119.629   8.393 107.328  12.303   1.689 106.525

                      1                      2                      3
                      A                      A                      A
 Frequencies --    105.9951               161.8904               235.5534
 Red. masses --      3.6022                 4.5178                 1.7528
 Frc consts  --      0.0238                 0.0698                 0.0573
 IR Inten    --      4.6806                 0.8769                 0.1373

                      4                      5                      6
                      A                      A                      A
 Frequencies --    320.8051               359.4344               415.2869
 Red. masses --      2.0800                 2.4729                 1.7506
 Frc consts  --      0.1261                 0.1882                 0.1779
 IR Inten    --      6.6271                 6.1204                53.0238

                      7                      8                      9
                      A                      A                      A
 Frequencies --    439.3042               484.0642               601.0784
 Red. masses --      1.8665                 2.9248                 3.8381
 Frc consts  --      0.2122                 0.4038                 0.8170
 IR Inten    --     70.1374                 1.2093                 6.7410

                     10                     11                     12
                      A                      A                      A
 Frequencies --    667.9674               718.6553               728.6379
 Red. masses --      3.8171                 4.2148                 1.5952
 Frc consts  --      1.0034                 1.2825                 0.4990
 IR Inten    --      8.6248                 5.7328                22.1414

                     13                     14                     15
                      A                      A                      A
 Frequencies --    798.7491               829.6038               848.0572
 Red. masses --      3.0238                 2.3707                 2.5241
 Frc consts  --      1.1366                 0.9613                 1.0696
 IR Inten    --      1.4915                 9.3769                 8.2695

                     16                     17                     18
                      A                      A                      A
 Frequencies --    865.3986               895.8225               920.8780
 Red. masses --      2.4148                 2.4137                 2.1343
 Frc consts  --      1.0655                 1.1412                 1.0664
 IR Inten    --      8.9334                21.3651                10.0164

                     19                     20                     21
                      A                      A                      A
 Frequencies --    941.3749               962.6765              1008.6431
 Red. masses --      1.3954                 3.1551                 2.5679
 Frc consts  --      0.7286                 1.7227                 1.5392
 IR Inten    --      1.5574                 8.2047                35.3921

                     22                     23                     24
                      A                      A                      A
 Frequencies --   1014.8806              1042.2428              1061.7140
 Red. masses --      2.3204                 2.6186                 2.9883
 Frc consts  --      1.4082                 1.6760                 1.9847
 IR Inten    --     13.4018                21.0885                87.6035

                     25                     26                     27
                      A                      A                      A
 Frequencies --   1096.2652              1105.6958              1171.4687
 Red. masses --      1.9911                 1.4046                 1.4386
 Frc consts  --      1.4099                 1.0117                 1.1632
 IR Inten    --     18.4384                 4.1547                 2.9564

                     28                     29                     30
                      A                      A                      A
 Frequencies --   1187.6891              1224.2600              1243.4461
 Red. masses --      1.3707                 1.1594                 1.4729
 Frc consts  --      1.1392                 1.0238                 1.3418
 IR Inten    --     16.5633                 6.4458                 1.6845

                     31                     32                     33
                      A                      A                      A
 Frequencies --   1265.0897              1292.4241              1318.4367
 Red. masses --      1.3349                 1.5083                 1.5046
 Frc consts  --      1.2588                 1.4844                 1.5410
 IR Inten    --      4.7884                 0.5321                 3.4791

                     34                     35                     36
                      A                      A                      A
 Frequencies --   1336.5038              1354.3692              1380.2025
 Red. masses --      1.6890                 2.2101                 1.2857
 Frc consts  --      1.7775                 2.3886                 1.4431
 IR Inten    --      9.6997                30.1982                 3.7240

                     37                     38                     39
                      A                      A                      A
 Frequencies --   1444.4572              1480.8717              1496.8845
 Red. masses --      1.3732                 1.0830                 1.0958
 Frc consts  --      1.6880                 1.3993                 1.4466
 IR Inten    --     61.3450                 0.1509                 0.9642

                     40                     41                     42
                      A                      A                      A
 Frequencies --   1502.2528              1646.1750              2980.3863
 Red. masses --      1.0963                 6.4225                 1.0697
 Frc consts  --      1.4577                10.2543                 5.5983
 IR Inten    --      0.7379                 1.0489                52.3766

                     43                     44                     45
                      A                      A                      A
 Frequencies --   3061.1300              3070.1078              3072.6564
 Red. masses --      1.0594                 1.0916                 1.0607
 Frc consts  --      5.8490                 6.0623                 5.9002
 IR Inten    --     24.2145                25.5063                32.8118

                     46                     47                     48
                      A                      A                      A
 Frequencies --   3107.7660              3123.9886              3129.9167
 Red. masses --      1.1058                 1.1055                 1.0917
 Frc consts  --      6.2922                 6.3567                 6.3009
 IR Inten    --      1.9603                29.9598                42.3921

                     49                     50                     51
                      A                      A                      A
 Frequencies --   3216.1336              3242.1195              3790.7895
 Red. masses --      1.0863                 1.1086                 1.0656
 Frc consts  --      6.6202                 6.8657                 9.0218
 IR Inten    --      3.4440                 7.0387                25.1966

 - Thermochemistry -
 -------------------
 Temperature   298.150 Kelvin.  Pressure   1.00000 Atm.
 Atom     1 has atomic number  8 and mass  15.99491

 Molecular mass:   126.06808 amu.
 Principal axes and moments of inertia in atomic units:
                           1         2         3
     Eigenvalues --   578.175651205.013791352.13968
           X            0.99997   0.00674   0.00469
           Y           -0.00678   0.99994   0.00903
           Z           -0.00463  -0.00907   0.99995
 This molecule is an asymmetric top.
 Rotational symmetry number  1.
 Warning -- assumption of classical behavior for rotation
           may cause significant error
 Rotational temperatures (Kelvin)      0.14981     0.07188     0.06406
 Rotational constants (GHZ):           3.12144     1.49769     1.33473
 Zero-point vibrational energy     423299.8 (Joules/Mol)
                                  101.17108 (Kcal/Mol)
 Warning -- explicit consideration of   9 degrees of freedom as
           vibrations may cause significant error
 Vibrational temperatures:    152.50   232.92   338.91   461.57   517.15
          (Kelvin)            597.50   632.06   696.46   864.82   961.05
                             1033.98  1048.35  1149.22  1193.61  1220.16
                             1245.11  1288.89  1324.94  1354.43  1385.08
                             1451.21  1460.19  1499.55  1527.57  1577.28
                             1590.85  1685.48  1708.82  1761.43  1789.04
                             1820.18  1859.51  1896.93  1922.93  1948.63
                             1985.80  2078.25  2130.64  2153.68  2161.40
                             2368.48  4288.11  4404.28  4417.19  4420.86
                             4471.38  4494.72  4503.25  4627.29  4664.68
                             5454.09

 Zero-point correction=                           0.161226 (Hartree/Particle)
 Thermal correction to Energy=                    0.168756
 Thermal correction to Enthalpy=                  0.169700
 Thermal correction to Gibbs Free Energy=         0.129450
 Sum of electronic and zero-point Energies=           -423.024446
 Sum of electronic and thermal Energies=              -423.016916
 Sum of electronic and thermal Enthalpies=            -423.015972
 Sum of electronic and thermal Free Energies=         -423.056222

                     E (Thermal)             CV                S
                      KCal/Mol        Cal/Mol-Kelvin    Cal/Mol-Kelvin
 Total                  105.896             30.524             84.713
 Electronic               0.000              0.000              0.000
 Translational            0.889              2.981             40.409
 Rotational               0.889              2.981             28.334
 Vibrational            104.118             24.562             15.970
 Vibration     1          0.605              1.944              3.341
 Vibration     2          0.622              1.889              2.528
 Vibration     3          0.655              1.786              1.836
 Vibration     4          0.706              1.634              1.306
 Vibration     5          0.734              1.556              1.125
 Vibration     6          0.779              1.437              0.908
 Vibration     7          0.799              1.384              0.829
 Vibration     8          0.840              1.285              0.699
 Vibration     9          0.959              1.030              0.448

 Normal termination of Gaussian 09 at Tue Jan 28 12:58:54 2020.
