 Gaussian 09, Revision D.01,
 Gaussian 09:  ES64L-G09RevD.01 24-Apr-2013

 -----------------------------
 # b3lyp 6-31G(2df,p) opt Freq
 -----------------------------

 -----
 titel
 -----
 Symbolic Z-matrix:
 Charge =  0 Multiplicity = 1

 SCF Done:  E(RB3LYP) =  -423.149196754     A.U. after   15 cycles
 Optimization completed.
    -- Stationary point found.
 Normal termination of Gaussian 09 at Tue Jan 28 12:11:05 2020.

 ----------------------------------------------------------------------
 #N Geom=AllCheck Guess=TCheck SCRF=Check GenChk RB3LYP/6-31G(2df,p) Fr
 eq
 ----------------------------------------------------------------------

 Structure from the checkpoint file:  "/scratch/puck/g09_15ba1e5c-b8a9-4c9f-bc13-35dffd39eaac/Gau-92502.chk"
 -----
 titel
 -----
 Charge =  0 Multiplicity = 1

                         Standard orientation:
 ---------------------------------------------------------------------
 Center     Atomic      Atomic             Coordinates (Angstroms)
 Number     Number       Type             X           Y           Z
 ---------------------------------------------------------------------
      1          6           0       -2.959758    0.612117    0.052563
      2          8           0       -1.735157    0.086674    0.507180
      3          6           0       -1.038782   -0.634491   -0.483405
      4          6           0        0.292561   -1.087884    0.111417
      5          6           0        1.124320   -1.876144   -0.915881
      6          6           0        1.098157    0.096113    0.642555
      7          8           0        1.590796    0.110143    1.747892
      8          6           0        1.298714    1.209033   -0.278744
      9          6           0        1.480819    2.126154   -1.037334
     10          1           0       -3.649145   -0.183363   -0.271908
     11          1           0       -3.412341    1.153114    0.886673
     12          1           0       -2.817128    1.307721   -0.789181
     13          1           0       -1.618119   -1.513938   -0.811859
     14          1           0       -0.865533   -0.004863   -1.372013
     15          1           0        0.093615   -1.713870    0.986595
     16          1           0        0.558637   -2.738067   -1.282771
     17          1           0        1.388533   -1.251617   -1.775176
     18          1           0        2.049524   -2.244722   -0.465135
     19          1           0        1.650657    2.945688   -1.692833
 ---------------------------------------------------------------------

 SCF Done:  E(RB3LYP) =  -423.149196754     A.U. after    1 cycles

 The electronic state is 1-A.
 Alpha  occ. eigenvalues --  -19.14646 -19.13653 -10.28706 -10.23591 -10.22806
 Alpha  occ. eigenvalues --  -10.20512 -10.20101 -10.19882 -10.19129  -1.04798
 Alpha  occ. eigenvalues --   -1.03924  -0.81588  -0.76771  -0.71558  -0.66653
 Alpha  occ. eigenvalues --   -0.64335  -0.60326  -0.53351  -0.49579  -0.49260
 Alpha  occ. eigenvalues --   -0.47914  -0.45043  -0.44577  -0.41796  -0.41375
 Alpha  occ. eigenvalues --   -0.39487  -0.38390  -0.35660  -0.34940  -0.32446
 Alpha  occ. eigenvalues --   -0.29526  -0.29434  -0.26338  -0.25543
 Alpha virt. eigenvalues --   -0.05346   0.03553   0.08660   0.09310   0.10717
 Alpha virt. eigenvalues --    0.11040   0.12841   0.13213   0.15469   0.16282
 Alpha virt. eigenvalues --    0.16629   0.17600   0.18116   0.19466   0.21302

 Mulliken charges:
               1
     1  C   -0.228789
     2  O   -0.234390
     3  C   -0.064968
     4  C   -0.110028
     5  C   -0.423061
     6  C    0.274871
     7  O   -0.289880
     8  C    0.299168
     9  C   -0.472497
    10  H    0.104675
    11  H    0.132447
    12  H    0.106625
    13  H    0.089542
    14  H    0.096503
    15  H    0.110624
    16  H    0.125270
    17  H    0.131996
    18  H    0.136873
    19  H    0.215019
 Sum of Mulliken charges =   0.00000

 Dipole moment (field-independent basis, Debye):
    X=             -1.5457    Y=             -0.1312    Z=             -3.5401  Tot=              3.8650
 Quadrupole moment (field-independent basis, Debye-Ang):
   XX=            -51.8480   YY=            -47.2710   ZZ=            -56.8233
   XY=             -0.1089   XZ=             -4.0063   YZ=             -3.1058

  Exact polarizability:  76.297   2.206  85.194  -0.806  -9.241  75.120
 Approx polarizability:  96.420   5.520 124.348   2.958 -26.285 131.927

                      1                      2                      3
                      A                      A                      A
 Frequencies --     37.1852                71.6253               102.1947
 Red. masses --      4.7846                 4.1042                 2.2696
 Frc consts  --      0.0039                 0.0124                 0.0140
 IR Inten    --      1.2876                 0.9568                 3.6247

                      4                      5                      6
                      A                      A                      A
 Frequencies --    143.9540               158.0363               202.0649
 Red. masses --      3.8738                 2.3825                 2.7274
 Frc consts  --      0.0473                 0.0351                 0.0656
 IR Inten    --      1.4749                 0.1891                 0.8007

                      7                      8                      9
                      A                      A                      A
 Frequencies --    221.2391               234.0702               282.6098
 Red. masses --      1.0543                 1.5054                 3.6829
 Frc consts  --      0.0304                 0.0486                 0.1733
 IR Inten    --      0.2359                 3.8516                 1.0457

                     10                     11                     12
                      A                      A                      A
 Frequencies --    317.7999               361.8422               436.9119
 Red. masses --      3.2688                 3.6865                 4.4470
 Frc consts  --      0.1945                 0.2844                 0.5002
 IR Inten    --      1.6379                 3.2375                 4.8266

                     13                     14                     15
                      A                      A                      A
 Frequencies --    534.3109               626.1941               650.5769
 Red. masses --      3.8428                 3.3939                 1.3065
 Frc consts  --      0.6464                 0.7841                 0.3258
 IR Inten    --      7.2192                 7.1311                38.0804

                     16                     17                     18
                      A                      A                      A
 Frequencies --    692.8995               705.9417               760.5947
 Red. masses --      5.2082                 1.3396                 4.8335
 Frc consts  --      1.4733                 0.3933                 1.6475
 IR Inten    --      2.9152                28.5128                 5.8384

                     19                     20                     21
                      A                      A                      A
 Frequencies --    919.0259               965.3655               974.1569
 Red. masses --      1.5185                 1.6752                 2.4254
 Frc consts  --      0.7556                 0.9198                 1.3561
 IR Inten    --      9.8812                13.2910                26.3159

                     22                     23                     24
                      A                      A                      A
 Frequencies --   1004.0281              1087.0508              1147.7032
 Red. masses --      2.3958                 3.0671                 2.2715
 Frc consts  --      1.4229                 2.1354                 1.7629
 IR Inten    --     53.1766                16.0936                50.3850

                     25                     26                     27
                      A                      A                      A
 Frequencies --   1170.3683              1184.3997              1211.3599
 Red. masses --      2.6840                 1.5808                 2.2880
 Frc consts  --      2.1661                 1.3065                 1.9781
 IR Inten    --     92.3234                21.5581                78.9789

                     28                     29                     30
                      A                      A                      A
 Frequencies --   1238.2176              1265.7319              1313.9493
 Red. masses --      1.9042                 1.2604                 1.3307
 Frc consts  --      1.7201                 1.1897                 1.3536
 IR Inten    --     45.1955                 5.1005                 1.3651

                     31                     32                     33
                      A                      A                      A
 Frequencies --   1346.6028              1399.8335              1422.6786
 Red. masses --      1.3834                 1.2509                 1.3105
 Frc consts  --      1.4780                 1.4442                 1.5628
 IR Inten    --      2.7335                 1.8305                21.9683

                     34                     35                     36
                      A                      A                      A
 Frequencies --   1479.6142              1485.8603              1496.0705
 Red. masses --      1.1582                 1.0470                 1.0485
 Frc consts  --      1.4940                 1.3619                 1.3827
 IR Inten    --      1.7887                 5.2149                 3.7287

                     37                     38                     39
                      A                      A                      A
 Frequencies --   1500.2441              1502.0056              1526.3612
 Red. masses --      1.0543                 1.0546                 1.0900
 Frc consts  --      1.3982                 1.4017                 1.4962
 IR Inten    --      8.9727                 8.5417                 3.1415

                     40                     41                     42
                      A                      A                      A
 Frequencies --   1773.0215              2207.2282              2955.8135
 Red. masses --     12.1732                 5.9116                 1.0526
 Frc consts  --     22.5468                16.9686                 5.4186
 IR Inten    --    165.2089                51.8163                33.8252

                     43                     44                     45
                      A                      A                      A
 Frequencies --   2973.8633              2988.7643              3017.4679
 Red. masses --      1.0398                 1.1034                 1.1033
 Frc consts  --      5.4179                 5.8071                 5.9187
 IR Inten    --     70.9739                48.9290                49.8407

                     46                     47                     48
                      A                      A                      A
 Frequencies --   3039.9203              3074.0506              3111.0632
 Red. masses --      1.0346                 1.0851                 1.1013
 Frc consts  --      5.6329                 6.0414                 6.2803
 IR Inten    --     18.8725                 6.4730                23.5166

                     49                     50                     51
                      A                      A                      A
 Frequencies --   3119.0069              3120.7400              3493.9705
 Red. masses --      1.0960                 1.1019                 1.1616
 Frc consts  --      6.2820                 6.3226                 8.3548
 IR Inten    --     25.4441                16.3565                50.5785

 - Thermochemistry -
 -------------------
 Temperature   298.150 Kelvin.  Pressure   1.00000 Atm.
 Atom     1 has atomic number  6 and mass  12.00000

 Molecular mass:   126.06808 amu.
 Principal axes and moments of inertia in atomic units:
                           1         2         3
     Eigenvalues --   950.760661525.368091780.69333
           X            0.99883  -0.04536  -0.01697
           Y            0.04575   0.99867   0.02381
           Z            0.01587  -0.02456   0.99957
 This molecule is an asymmetric top.
 Rotational symmetry number  1.
 Warning -- assumption of classical behavior for rotation
           may cause significant error
 Rotational temperatures (Kelvin)      0.09110     0.05678     0.04864
 Rotational constants (GHZ):           1.89821     1.18315     1.01350
 Zero-point vibrational energy     407062.8 (Joules/Mol)
                                   97.29035 (Kcal/Mol)
 Warning -- explicit consideration of  13 degrees of freedom as
           vibrations may cause significant error
 Vibrational temperatures:     53.50   103.05   147.04   207.12   227.38
          (Kelvin)            290.73   318.31   336.77   406.61   457.24
                              520.61   628.62   768.75   900.95   936.03
                              996.93  1015.69  1094.32  1322.27  1388.94
                             1401.59  1444.57  1564.02  1651.29  1683.90
                             1704.08  1742.87  1781.52  1821.10  1890.48
                             1937.46  2014.05  2046.91  2128.83  2137.82
                             2152.51  2158.51  2161.05  2196.09  2550.98
                             3175.71  4252.75  4278.72  4300.16  4341.46
                             4373.76  4422.87  4476.12  4487.55  4490.04
                             5027.04

 Zero-point correction=                           0.155042 (Hartree/Particle)
 Thermal correction to Energy=                    0.165758
 Thermal correction to Enthalpy=                  0.166703
 Thermal correction to Gibbs Free Energy=         0.118330
 Sum of electronic and zero-point Energies=           -422.994155
 Sum of electronic and thermal Energies=              -422.983438
 Sum of electronic and thermal Enthalpies=            -422.982494
 Sum of electronic and thermal Free Energies=         -423.030867

                     E (Thermal)             CV                S
                      KCal/Mol        Cal/Mol-Kelvin    Cal/Mol-Kelvin
 Total                  104.015             36.986            101.808
 Electronic               0.000              0.000              0.000
 Translational            0.889              2.981             40.409
 Rotational               0.889              2.981             29.336
 Vibrational            102.237             31.024             32.064
 Vibration     1          0.594              1.982              5.404
 Vibration     2          0.598              1.968              4.108
 Vibration     3          0.604              1.947              3.412
 Vibration     4          0.616              1.909              2.751
 Vibration     5          0.621              1.894              2.573
 Vibration     6          0.639              1.837              2.114
 Vibration     7          0.648              1.809              1.949
 Vibration     8          0.654              1.789              1.848
 Vibration     9          0.682              1.706              1.518
 Vibration    10          0.704              1.640              1.321
 Vibration    11          0.736              1.551              1.114
 Vibration    12          0.797              1.390              0.836
 Vibration    13          0.889              1.174              0.578

 Optimization completed.
    -- Stationary point found.
 Normal termination of Gaussian 09 at Tue Jan 28 12:50:55 2020.
