 Gaussian 09, Revision D.01,
 Gaussian 09:  ES64L-G09RevD.01 24-Apr-2013

 -----------------------------
 # b3lyp 6-31G(2df,p) opt Freq
 -----------------------------

 -----
 titel
 -----
 Symbolic Z-matrix:
 Charge =  0 Multiplicity = 1

 SCF Done:  E(RB3LYP) =  -423.122346366     A.U. after   14 cycles
 Optimization completed.
    -- Stationary point found.
 Normal termination of Gaussian 09 at Tue Jan 28 11:53:50 2020.

 ----------------------------------------------------------------------
 #N Geom=AllCheck Guess=TCheck SCRF=Check GenChk RB3LYP/6-31G(2df,p) Fr
 eq
 ----------------------------------------------------------------------

 Structure from the checkpoint file:  "/scratch/puck/g09_f3d8df0f-bf71-428c-9450-dd67714480c4/Gau-24886.chk"
 -----
 titel
 -----
 Charge =  0 Multiplicity = 1

                         Standard orientation:
 ---------------------------------------------------------------------
 Center     Atomic      Atomic             Coordinates (Angstroms)
 Number     Number       Type             X           Y           Z
 ---------------------------------------------------------------------
      1          6           0       -1.725682   -0.879787    1.283936
      2          6           0       -0.875772   -0.292246    0.160972
      3          8           0       -0.833790   -1.191367   -0.986563
      4          6           0        0.602347   -1.292792   -0.933225
      5          6           0        0.676057   -0.423231    0.337495
      6          6           0        1.539014    0.829356    0.288125
      7          8           0        2.922930    0.516357    0.369675
      8          6           0       -1.359495    1.034274   -0.219680
      9          6           0       -1.775221    2.122284   -0.518387
     10          1           0       -1.362010   -1.878323    1.540820
     11          1           0       -1.680868   -0.241807    2.171994
     12          1           0       -2.768483   -0.955989    0.964444
     13          1           0        0.935134   -2.332542   -0.840614
     14          1           0        1.072918   -0.847722   -1.822449
     15          1           0        0.929214   -0.993377    1.234488
     16          1           0        1.308704    1.415620   -0.612394
     17          1           0        1.322711    1.467096    1.151378
     18          1           0        3.182143    0.097884   -0.457292
     19          1           0       -2.140068    3.082084   -0.790684
 ---------------------------------------------------------------------

 SCF Done:  E(RB3LYP) =  -423.122346366     A.U. after    1 cycles

 The electronic state is 1-A.
 Alpha  occ. eigenvalues --  -19.14002 -19.13843 -10.26595 -10.23514 -10.23074
 Alpha  occ. eigenvalues --  -10.19831 -10.18535 -10.18453 -10.18191  -1.04463
 Alpha  occ. eigenvalues --   -1.01988  -0.79779  -0.76227  -0.73122  -0.67244
 Alpha  occ. eigenvalues --   -0.64364  -0.58744  -0.52088  -0.51707  -0.49346
 Alpha  occ. eigenvalues --   -0.47904  -0.47205  -0.42814  -0.42143  -0.40068
 Alpha  occ. eigenvalues --   -0.39281  -0.37970  -0.35101  -0.33563  -0.30930
 Alpha  occ. eigenvalues --   -0.28429  -0.27707  -0.26327  -0.25513
 Alpha virt. eigenvalues --    0.02283   0.04652   0.06306   0.08924   0.11896
 Alpha virt. eigenvalues --    0.12328   0.12817   0.13695   0.14223   0.15057
 Alpha virt. eigenvalues --    0.17116   0.17537   0.18062   0.20822   0.21360

 Mulliken charges:
               1
     1  C   -0.433904
     2  C    0.202498
     3  O   -0.305545
     4  C   -0.091263
     5  C   -0.100707
     6  C   -0.107020
     7  O   -0.417440
     8  C    0.347318
     9  C   -0.483328
    10  H    0.120992
    11  H    0.128122
    12  H    0.137750
    13  H    0.107918
    14  H    0.093570
    15  H    0.091801
    16  H    0.104147
    17  H    0.118725
    18  H    0.285124
    19  H    0.201243
 Sum of Mulliken charges =   0.00000

 Dipole moment (field-independent basis, Debye):
    X=              0.2940    Y=              0.0835    Z=              0.0597  Tot=              0.3114
 Quadrupole moment (field-independent basis, Debye-Ang):
   XX=            -56.1523   YY=            -50.0391   ZZ=            -53.4020
   XY=             -5.4984   XZ=             -6.5066   YZ=             -2.6461

  Exact polarizability:  79.775 -10.732  86.182  -2.871  -3.745  65.312
 Approx polarizability: 107.014 -18.705 132.530   0.789  -6.402  97.502

                      1                      2                      3
                      A                      A                      A
 Frequencies --     47.7595                91.6665               120.5960
 Red. masses --      2.7308                 2.9136                 4.5498
 Frc consts  --      0.0037                 0.0144                 0.0390
 IR Inten    --      3.3292                 4.9780                 0.0810

                      4                      5                      6
                      A                      A                      A
 Frequencies --    185.6111               207.5161               235.0146
 Red. masses --      3.4476                 1.9551                 1.6079
 Frc consts  --      0.0700                 0.0496                 0.0523
 IR Inten    --      2.1481                 0.0308                 1.9698

                      7                      8                      9
                      A                      A                      A
 Frequencies --    269.9347               293.9792               338.2242
 Red. masses --      1.6031                 1.4030                 3.2535
 Frc consts  --      0.0688                 0.0714                 0.2193
 IR Inten    --     30.1336                67.4969                10.1946

                     10                     11                     12
                      A                      A                      A
 Frequencies --    406.3343               450.1680               523.5402
 Red. masses --      4.3796                 2.4270                 6.8714
 Frc consts  --      0.4260                 0.2898                 1.1097
 IR Inten    --      3.2898                 0.0831                 3.1287

                     13                     14                     15
                      A                      A                      A
 Frequencies --    586.4961               626.9975               632.7091
 Red. masses --      5.3688                 1.7315                 2.1068
 Frc consts  --      1.0881                 0.4011                 0.4969
 IR Inten    --      2.0922                19.0746                29.3011

                     16                     17                     18
                      A                      A                      A
 Frequencies --    667.4020               810.3869               881.2414
 Red. masses --      1.2571                 2.9341                 3.0909
 Frc consts  --      0.3299                 1.1353                 1.4143
 IR Inten    --     34.5778                 1.5041                29.4520

                     19                     20                     21
                      A                      A                      A
 Frequencies --    900.5659               911.8693               962.7516
 Red. masses --      1.7018                 1.4484                 1.8364
 Frc consts  --      0.8132                 0.7096                 1.0029
 IR Inten    --     10.9215                 0.4314                10.2846

                     22                     23                     24
                      A                      A                      A
 Frequencies --   1026.1843              1053.7874              1073.3264
 Red. masses --      7.6109                 5.8867                 2.0051
 Frc consts  --      4.7221                 3.8515                 1.3610
 IR Inten    --     71.3039               129.7603                32.0516

                     25                     26                     27
                      A                      A                      A
 Frequencies --   1102.2792              1125.1996              1163.9623
 Red. masses --      2.6961                 2.2226                 1.9220
 Frc consts  --      1.9300                 1.6580                 1.5342
 IR Inten    --     13.9464                12.1788                14.3846

                     28                     29                     30
                      A                      A                      A
 Frequencies --   1166.3856              1216.0366              1237.0361
 Red. masses --      1.1824                 2.9966                 1.3624
 Frc consts  --      0.9478                 2.6108                 1.2283
 IR Inten    --      2.9513                23.2137                 9.4505

                     31                     32                     33
                      A                      A                      A
 Frequencies --   1276.5910              1332.8288              1366.8704
 Red. masses --      1.7784                 1.3340                 1.4906
 Frc consts  --      1.7076                 1.3963                 1.6409
 IR Inten    --     18.1113                 0.2015                 7.5859

                     34                     35                     36
                      A                      A                      A
 Frequencies --   1397.2892              1401.5261              1420.4431
 Red. masses --      1.2277                 1.2212                 1.3474
 Frc consts  --      1.4123                 1.4134                 1.6017
 IR Inten    --     11.8624                 9.7519                33.2564

                     37                     38                     39
                      A                      A                      A
 Frequencies --   1477.4729              1488.1928              1500.0457
 Red. masses --      1.0512                 1.0505                 1.0856
 Frc consts  --      1.3520                 1.3707                 1.4392
 IR Inten    --      2.0697                 2.5641                 0.7717

                     40                     41                     42
                      A                      A                      A
 Frequencies --   1525.9575              2228.0277              2990.9498
 Red. masses --      1.0990                 5.9218                 1.0647
 Frc consts  --      1.5077                17.3198                 5.6118
 IR Inten    --      2.0476                 1.6348                72.7649

                     43                     44                     45
                      A                      A                      A
 Frequencies --   3011.4802              3041.5367              3054.6267
 Red. masses --      1.0658                 1.0339                 1.0987
 Frc consts  --      5.6949                 5.6352                 6.0402
 IR Inten    --     29.3923                 9.6224                35.0530

                     46                     47                     48
                      A                      A                      A
 Frequencies --   3076.1786              3091.1087              3120.1919
 Red. masses --      1.0919                 1.0930                 1.1020
 Frc consts  --      6.0879                 6.1531                 6.3209
 IR Inten    --     17.6065                34.2992                15.0289

                     49                     50                     51
                      A                      A                      A
 Frequencies --   3126.6040              3499.4412              3818.6277
 Red. masses --      1.1029                 1.1619                 1.0663
 Frc consts  --      6.3522                 8.3835                 9.1609
 IR Inten    --     17.2333                64.4694                17.2933

 - Thermochemistry -
 -------------------
 Temperature   298.150 Kelvin.  Pressure   1.00000 Atm.
 Atom     1 has atomic number  6 and mass  12.00000

 Molecular mass:   126.06808 amu.
 Principal axes and moments of inertia in atomic units:
                           1         2         3
     Eigenvalues --   822.956341411.043371732.74261
           X            0.99936  -0.00757  -0.03502
           Y            0.00614   0.99915  -0.04083
           Z            0.03530   0.04059   0.99855
 This molecule is an asymmetric top.
 Rotational symmetry number  1.
 Warning -- assumption of classical behavior for rotation
           may cause significant error
 Rotational temperatures (Kelvin)      0.10525     0.06138     0.04999
 Rotational constants (GHZ):           2.19300     1.27901     1.04155
 Zero-point vibrational energy     410085.6 (Joules/Mol)
                                   98.01280 (Kcal/Mol)
 Warning -- explicit consideration of  13 degrees of freedom as
           vibrations may cause significant error
 Vibrational temperatures:     68.72   131.89   173.51   267.05   298.57
          (Kelvin)            338.13   388.38   422.97   486.63   584.62
                              647.69   753.26   843.84   902.11   910.33
                              960.24  1165.96  1267.91  1295.71  1311.97
                             1385.18  1476.45  1516.16  1544.28  1585.93
                             1618.91  1674.68  1678.17  1749.60  1779.82
                             1836.73  1917.64  1966.62  2010.38  2016.48
                             2043.70  2125.75  2141.17  2158.23  2195.51
                             3205.63  4303.30  4332.84  4376.09  4394.92
                             4425.93  4447.41  4489.25  4498.48  5034.91
                             5494.15

 Zero-point correction=                           0.156193 (Hartree/Particle)
 Thermal correction to Energy=                    0.166131
 Thermal correction to Enthalpy=                  0.167076
 Thermal correction to Gibbs Free Energy=         0.121013
 Sum of electronic and zero-point Energies=           -422.966153
 Sum of electronic and thermal Energies=              -422.956215
 Sum of electronic and thermal Enthalpies=            -422.955271
 Sum of electronic and thermal Free Energies=         -423.001333

                     E (Thermal)             CV                S
                      KCal/Mol        Cal/Mol-Kelvin    Cal/Mol-Kelvin
 Total                  104.249             36.162             96.947
 Electronic               0.000              0.000              0.000
 Translational            0.889              2.981             40.409
 Rotational               0.889              2.981             29.088
 Vibrational            102.472             30.201             27.450
 Vibration     1          0.595              1.978              4.908
 Vibration     2          0.602              1.955              3.624
 Vibration     3          0.609              1.932              3.091
 Vibration     4          0.632              1.860              2.271
 Vibration     5          0.641              1.829              2.065
 Vibration     6          0.655              1.787              1.840
 Vibration     7          0.674              1.729              1.597
 Vibration     8          0.689              1.685              1.451
 Vibration     9          0.719              1.599              1.221
 Vibration    10          0.771              1.456              0.940
 Vibration    11          0.809              1.361              0.795
 Vibration    12          0.879              1.198              0.602
 Vibration    13          0.944              1.061              0.473

 Optimization completed.
    -- Stationary point found.
 Normal termination of Gaussian 09 at Tue Jan 28 12:33:36 2020.
