 Gaussian 09, Revision D.01,
 Gaussian 09:  ES64L-G09RevD.01 24-Apr-2013

 -----------------------------
 # b3lyp 6-31G(2df,p) opt Freq
 -----------------------------

 -----
 titel
 -----
 Symbolic Z-matrix:
 Charge =  0 Multiplicity = 1

 SCF Done:  E(RB3LYP) =  -423.230919110     A.U. after   14 cycles
 Optimization completed.
    -- Stationary point found.
 Normal termination of Gaussian 09 at Tue Jan 28 03:55:08 2020.

 ----------------------------------------------------------------------
 #N Geom=AllCheck Guess=TCheck SCRF=Check GenChk RB3LYP/6-31G(2df,p) Fr
 eq
 ----------------------------------------------------------------------

 Structure from the checkpoint file:  "/scratch/puck/g09_ed2fa591-9a16-4693-b0d9-e7344f283ddd/Gau-196263.chk"
 -----
 titel
 -----
 Charge =  0 Multiplicity = 1

                         Standard orientation:
 ---------------------------------------------------------------------
 Center     Atomic      Atomic             Coordinates (Angstroms)
 Number     Number       Type             X           Y           Z
 ---------------------------------------------------------------------
      1          6           0        2.745481   -0.687201   -0.104018
      2          6           0        1.259107   -0.497153    0.013303
      3          6           0        0.380738   -1.511154    0.080050
      4          6           0       -1.111176   -1.346006    0.168682
      5          6           0       -1.565644    0.020969   -0.355834
      6          8           0       -2.956197    0.232935   -0.189166
      7          6           0       -0.717081    1.125025    0.279859
      8          6           0        0.777558    0.911637    0.058063
      9          8           0        1.545143    1.847020   -0.051568
     10          1           0        3.266015   -0.211704    0.733734
     11          1           0        3.010222   -1.747129   -0.129654
     12          1           0        3.125909   -0.204572   -1.009906
     13          1           0        0.756591   -2.532685    0.065218
     14          1           0       -1.618788   -2.146313   -0.380574
     15          1           0       -1.431888   -1.453048    1.218434
     16          1           0       -1.412489    0.040668   -1.441685
     17          1           0       -3.139290    0.279537    0.756004
     18          1           0       -0.991713    2.113730   -0.094410
     19          1           0       -0.890032    1.125169    1.368081
 ---------------------------------------------------------------------

 SCF Done:  E(RB3LYP) =  -423.230919110     A.U. after    1 cycles

 The electronic state is 1-A.
 Alpha  occ. eigenvalues --  -19.14441 -19.12349 -10.26430 -10.24445 -10.20831
 Alpha  occ. eigenvalues --  -10.20013 -10.19915 -10.19029 -10.18137  -1.03367
 Alpha  occ. eigenvalues --   -1.02793  -0.84140  -0.77265  -0.73737  -0.68002
 Alpha  occ. eigenvalues --   -0.61749  -0.60346  -0.51807  -0.49805  -0.47154
 Alpha  occ. eigenvalues --   -0.46263  -0.44627  -0.43521  -0.41933  -0.40907
 Alpha  occ. eigenvalues --   -0.39260  -0.38893  -0.36629  -0.36207  -0.35485
 Alpha  occ. eigenvalues --   -0.32864  -0.27924  -0.26197  -0.24135
 Alpha virt. eigenvalues --   -0.04863   0.05013   0.07936   0.09516   0.11684
 Alpha virt. eigenvalues --    0.12419   0.12888   0.14732   0.16535   0.17538
 Alpha virt. eigenvalues --    0.18031   0.19183   0.20665   0.22539   0.23319

 Mulliken charges:
               1
     1  C   -0.476450
     2  C    0.222445
     3  C   -0.153013
     4  C   -0.277830
     5  C    0.115042
     6  O   -0.431208
     7  C   -0.337313
     8  C    0.313878
     9  O   -0.319689
    10  H    0.139040
    11  H    0.113382
    12  H    0.142767
    13  H    0.101002
    14  H    0.120432
    15  H    0.106235
    16  H    0.104347
    17  H    0.277061
    18  H    0.130625
    19  H    0.109247
 Sum of Mulliken charges =   0.00000

 Dipole moment (field-independent basis, Debye):
    X=             -0.8641    Y=             -2.6629    Z=              1.3780  Tot=              3.1204
 Quadrupole moment (field-independent basis, Debye-Ang):
   XX=            -57.9454   YY=            -55.8885   ZZ=            -51.0026
   XY=             -4.3816   XZ=             -4.4019   YZ=              0.7590

  Exact polarizability:  95.684   6.828  86.083  -3.711  -0.527  56.465
 Approx polarizability: 131.534  25.971 141.755  -6.168  -3.165  90.647

                      1                      2                      3
                      A                      A                      A
 Frequencies --     88.6045               132.7298               147.0466
 Red. masses --      3.5056                 3.1809                 1.0859
 Frc consts  --      0.0162                 0.0330                 0.0138
 IR Inten    --      2.0738                 2.8342                 0.8763

                      4                      5                      6
                      A                      A                      A
 Frequencies --    272.4441               281.5773               297.7370
 Red. masses --      1.9050                 1.9171                 2.0178
 Frc consts  --      0.0833                 0.0896                 0.1054
 IR Inten    --     13.9726                12.5155                11.7556

                      7                      8                      9
                      A                      A                      A
 Frequencies --    335.6573               350.7692               387.2044
 Red. masses --      2.8038                 3.1411                 4.1077
 Frc consts  --      0.1861                 0.2277                 0.3629
 IR Inten    --     38.6713                24.6295                 4.4906

                     10                     11                     12
                      A                      A                      A
 Frequencies --    442.2570               457.8346               562.2956
 Red. masses --      3.2309                 2.8220                 3.9364
 Frc consts  --      0.3723                 0.3485                 0.7333
 IR Inten    --      3.2386                 1.2932                 3.5547

                     13                     14                     15
                      A                      A                      A
 Frequencies --    653.2084               696.4914               723.2786
 Red. masses --      3.2485                 4.5739                 3.4088
 Frc consts  --      0.8167                 1.3073                 1.0507
 IR Inten    --      0.2871                 2.6486                 5.2886

                     16                     17                     18
                      A                      A                      A
 Frequencies --    822.8036               876.1498               922.9854
 Red. masses --      1.2763                 2.5687                 1.4175
 Frc consts  --      0.5091                 1.1618                 0.7115
 IR Inten    --      2.8098                 0.7286                 8.2732

                     19                     20                     21
                      A                      A                      A
 Frequencies --    967.3345              1024.7062              1061.4625
 Red. masses --      1.9471                 2.1437                 2.4266
 Frc consts  --      1.0735                 1.3262                 1.6109
 IR Inten    --      2.2935                44.4651                14.4587

                     22                     23                     24
                      A                      A                      A
 Frequencies --   1073.4788              1081.6437              1117.8212
 Red. masses --      1.5847                 2.2786                 2.7173
 Frc consts  --      1.0759                 1.5707                 2.0005
 IR Inten    --     11.8681                58.1109                52.4691

                     25                     26                     27
                      A                      A                      A
 Frequencies --   1128.5912              1147.0233              1193.4733
 Red. masses --      3.2745                 1.2772                 1.2322
 Frc consts  --      2.4574                 0.9901                 1.0341
 IR Inten    --     41.8138                 5.3303                 1.1651

                     28                     29                     30
                      A                      A                      A
 Frequencies --   1256.9293              1276.0297              1315.2048
 Red. masses --      2.1538                 1.4339                 1.4300
 Frc consts  --      2.0048                 1.3756                 1.4574
 IR Inten    --     24.5757                15.2103                 6.7871

                     31                     32                     33
                      A                      A                      A
 Frequencies --   1360.4111              1371.4213              1382.7505
 Red. masses --      1.4943                 1.5654                 1.9893
 Frc consts  --      1.6294                 1.7347                 2.2410
 IR Inten    --      2.4682                16.1564                31.1612

                     34                     35                     36
                      A                      A                      A
 Frequencies --   1414.3901              1430.1931              1459.8234
 Red. masses --      1.2683                 1.2447                 1.0885
 Frc consts  --      1.4949                 1.5000                 1.3668
 IR Inten    --      2.8649                61.0125                 2.4316

                     37                     38                     39
                      A                      A                      A
 Frequencies --   1470.8270              1477.4358              1485.6086
 Red. masses --      1.0445                 1.0983                 1.0606
 Frc consts  --      1.3313                 1.4126                 1.3792
 IR Inten    --      5.1874                 4.2418                 8.9934

                     40                     41                     42
                      A                      A                      A
 Frequencies --   1700.1654              1771.1472              2975.2118
 Red. masses --      7.0403                12.1580                 1.0716
 Frc consts  --     11.9901                22.4709                 5.5889
 IR Inten    --     13.2972               208.0560                22.5977

                     43                     44                     45
                      A                      A                      A
 Frequencies --   2992.3669              3040.7138              3044.6461
 Red. masses --      1.0697                 1.0354                 1.0831
 Frc consts  --      5.6432                 5.6403                 5.9155
 IR Inten    --      8.5621                17.5381                22.6523

                     46                     47                     48
                      A                      A                      A
 Frequencies --   3067.7494              3097.6325              3111.2977
 Red. masses --      1.0893                 1.0987                 1.0918
 Frc consts  --      6.0402                 6.2113                 6.2270
 IR Inten    --     22.9507                10.2022                10.1442

                     49                     50                     51
                      A                      A                      A
 Frequencies --   3123.4497              3144.3415              3797.4006
 Red. masses --      1.1030                 1.0895                 1.0658
 Frc consts  --      6.3402                 6.3463                 9.0551
 IR Inten    --     12.4519                21.8464                15.4579

 - Thermochemistry -
 -------------------
 Temperature   298.150 Kelvin.  Pressure   1.00000 Atm.
 Atom     1 has atomic number  6 and mass  12.00000

 Molecular mass:   126.06808 amu.
 Principal axes and moments of inertia in atomic units:
                           1         2         3
     Eigenvalues --   613.071441454.288051985.81180
           X            0.99952  -0.02942  -0.00959
           Y            0.02946   0.99956   0.00451
           Z            0.00946  -0.00479   0.99994
 This molecule is an asymmetric top.
 Rotational symmetry number  1.
 Warning -- assumption of classical behavior for rotation
           may cause significant error
 Rotational temperatures (Kelvin)      0.14128     0.05956     0.04362
 Rotational constants (GHZ):           2.94377     1.24098     0.90882
 Zero-point vibrational energy     417579.0 (Joules/Mol)
                                   99.80377 (Kcal/Mol)
 Warning -- explicit consideration of  12 degrees of freedom as
           vibrations may cause significant error
 Vibrational temperatures:    127.48   190.97   211.57   391.99   405.13
          (Kelvin)            428.38   482.94   504.68   557.10   636.31
                              658.72   809.02   939.82  1002.09  1040.64
                             1183.83  1260.58  1327.97  1391.78  1474.32
                             1527.21  1544.49  1556.24  1608.29  1623.79
                             1650.31  1717.14  1808.44  1835.92  1892.28
                             1957.33  1973.17  1989.47  2034.99  2057.73
                             2100.36  2116.19  2125.70  2137.46  2446.16
                             2548.28  4280.66  4305.34  4374.90  4380.56
                             4413.80  4456.80  4476.46  4493.94  4524.00
                             5463.61

 Zero-point correction=                           0.159047 (Hartree/Particle)
 Thermal correction to Energy=                    0.167925
 Thermal correction to Enthalpy=                  0.168869
 Thermal correction to Gibbs Free Energy=         0.125629
 Sum of electronic and zero-point Energies=           -423.071872
 Sum of electronic and thermal Energies=              -423.062994
 Sum of electronic and thermal Enthalpies=            -423.062050
 Sum of electronic and thermal Free Energies=         -423.105290

                     E (Thermal)             CV                S
                      KCal/Mol        Cal/Mol-Kelvin    Cal/Mol-Kelvin
 Total                  105.375             33.589             91.007
 Electronic               0.000              0.000              0.000
 Translational            0.889              2.981             40.409
 Rotational               0.889              2.981             28.961
 Vibrational            103.597             27.628             21.638
 Vibration     1          0.601              1.957              3.691
 Vibration     2          0.613              1.921              2.906
 Vibration     3          0.617              1.906              2.710
 Vibration     4          0.675              1.724              1.581
 Vibration     5          0.681              1.708              1.524
 Vibration     6          0.691              1.678              1.430
 Vibration     7          0.717              1.604              1.233
 Vibration     8          0.728              1.574              1.163
 Vibration     9          0.756              1.498              1.011
 Vibration    10          0.802              1.378              0.820
 Vibration    11          0.816              1.344              0.772
 Vibration    12          0.918              1.113              0.519

 Normal termination of Gaussian 09 at Tue Jan 28 04:39:40 2020.
