 Gaussian 09, Revision D.01,
 Gaussian 09:  ES64L-G09RevD.01 24-Apr-2013

 -----------------------------
 # b3lyp 6-31G(2df,p) opt Freq
 -----------------------------

 -----
 titel
 -----
 Symbolic Z-matrix:
 Charge =  0 Multiplicity = 1

 SCF Done:  E(RB3LYP) =  -423.161003753     A.U. after   14 cycles
 Optimization completed.
    -- Stationary point found.
 Normal termination of Gaussian 09 at Mon Jan 27 22:13:13 2020.

 ----------------------------------------------------------------------
 #N Geom=AllCheck Guess=TCheck SCRF=Check GenChk RB3LYP/6-31G(2df,p) Fr
 eq
 ----------------------------------------------------------------------

 Structure from the checkpoint file:  "/scratch/puck/g09_251b1b31-dc11-4b22-a0c3-194c3f0cbd18/Gau-28800.chk"
 -----
 titel
 -----
 Charge =  0 Multiplicity = 1

                         Standard orientation:
 ---------------------------------------------------------------------
 Center     Atomic      Atomic             Coordinates (Angstroms)
 Number     Number       Type             X           Y           Z
 ---------------------------------------------------------------------
      1          6           0        3.055202   -0.669221    0.033209
      2          6           0        1.697788   -0.100756   -0.320255
      3          6           0        0.787772    0.278344    0.819669
      4          6           0        0.486842   -0.948206   -0.049020
      5          6           0       -0.768446   -0.253950   -0.623870
      6          6           0       -2.054750   -0.988830   -0.349557
      7          8           0       -2.850062   -0.705198    0.511776
      8          6           0       -0.471333    0.966989    0.316544
      9          8           0       -0.243352    2.225811   -0.275504
     10          1           0        3.450257   -1.287851   -0.779553
     11          1           0        3.776918    0.131137    0.227453
     12          1           0        3.001555   -1.293793    0.931535
     13          1           0        1.685779    0.532024   -1.205435
     14          1           0        1.150284    0.317237    1.840071
     15          1           0        0.555031   -1.996604    0.216523
     16          1           0       -0.698499   -0.052926   -1.701023
     17          1           0       -2.231287   -1.866142   -1.014165
     18          1           0       -1.244812    1.012701    1.090504
     19          1           0       -1.096371    2.633088   -0.456405
 ---------------------------------------------------------------------

 SCF Done:  E(RB3LYP) =  -423.161003753     A.U. after    1 cycles

 The electronic state is 1-A.
 Alpha  occ. eigenvalues --  -19.14351 -19.13840 -10.27337 -10.23591 -10.20365
 Alpha  occ. eigenvalues --  -10.19784 -10.19681 -10.19138 -10.18231  -1.04971
 Alpha  occ. eigenvalues --   -1.02200  -0.90028  -0.76658  -0.70436  -0.66580
 Alpha  occ. eigenvalues --   -0.59059  -0.57603  -0.53623  -0.51437  -0.49712
 Alpha  occ. eigenvalues --   -0.47150  -0.46298  -0.42990  -0.41342  -0.39789
 Alpha  occ. eigenvalues --   -0.39289  -0.38478  -0.36602  -0.34750  -0.32660
 Alpha  occ. eigenvalues --   -0.28964  -0.27556  -0.26182  -0.24902
 Alpha virt. eigenvalues --   -0.02566   0.07206   0.09701   0.10658   0.11667
 Alpha virt. eigenvalues --    0.12567   0.14201   0.15343   0.15921   0.16342
 Alpha virt. eigenvalues --    0.17680   0.18097   0.18971   0.19390   0.23317

 Mulliken charges:
               1
     1  C   -0.427414
     2  C   -0.005888
     3  C   -0.058740
     4  C   -0.076453
     5  C   -0.151547
     6  C    0.127842
     7  O   -0.242407
     8  C    0.085198
     9  O   -0.437335
    10  H    0.119632
    11  H    0.125269
    12  H    0.116184
    13  H    0.094860
    14  H    0.086346
    15  H    0.090681
    16  H    0.088466
    17  H    0.078114
    18  H    0.100938
    19  H    0.286252
 Sum of Mulliken charges =   0.00000

 Dipole moment (field-independent basis, Debye):
    X=              1.0147    Y=             -0.5824    Z=             -1.1628  Tot=              1.6495
 Quadrupole moment (field-independent basis, Debye-Ang):
   XX=            -57.7940   YY=            -52.2081   ZZ=            -52.0934
   XY=             -4.9139   XZ=              4.7001   YZ=              0.6818

  Exact polarizability:  92.381  -0.523  73.135  -0.706   3.114  65.708
 Approx polarizability: 120.874  -0.191 107.958  -7.141   5.799 106.679

                      1                      2                      3
                      A                      A                      A
 Frequencies --     48.8017               128.5368               175.2630
 Red. masses --      5.1032                 2.8921                 2.9582
 Frc consts  --      0.0072                 0.0282                 0.0535
 IR Inten    --      7.0709                 1.0916                 4.2703

                      4                      5                      6
                      A                      A                      A
 Frequencies --    179.1924               221.3738               253.0636
 Red. masses --      3.0950                 1.1872                 2.2881
 Frc consts  --      0.0586                 0.0343                 0.0863
 IR Inten    --      1.7856                 0.1863                14.6660

                      7                      8                      9
                      A                      A                      A
 Frequencies --    281.2815               304.8997               385.8527
 Red. masses --      1.5749                 1.9992                 3.0047
 Frc consts  --      0.0734                 0.1095                 0.2636
 IR Inten    --     34.0271                57.0345                 2.3522

                     10                     11                     12
                      A                      A                      A
 Frequencies --    400.9103               580.1751               662.5780
 Red. masses --      4.1461                 4.4310                 4.5039
 Frc consts  --      0.3926                 0.8788                 1.1650
 IR Inten    --      1.6809                 6.1374                 8.9674

                     13                     14                     15
                      A                      A                      A
 Frequencies --    699.7281               787.4028               844.8549
 Red. masses --      4.2828                 2.2944                 2.2275
 Frc consts  --      1.2355                 0.8381                 0.9368
 IR Inten    --     13.5834                 1.3037                 4.4978

                     16                     17                     18
                      A                      A                      A
 Frequencies --    863.5860               890.5405               972.2780
 Red. masses --      1.6330                 1.9229                 1.8284
 Frc consts  --      0.7175                 0.8985                 1.0184
 IR Inten    --      2.7542                10.4259                 4.9117

                     19                     20                     21
                      A                      A                      A
 Frequencies --    994.0176              1002.1189              1028.5503
 Red. masses --      1.7213                 2.0018                 2.1552
 Frc consts  --      1.0021                 1.1844                 1.3434
 IR Inten    --     18.8107                 9.2585                21.1367

                     22                     23                     24
                      A                      A                      A
 Frequencies --   1047.5082              1051.4410              1085.2748
 Red. masses --      1.4996                 1.5626                 1.9685
 Frc consts  --      0.9695                 1.0178                 1.3661
 IR Inten    --     11.9688                 4.8922                13.7728

                     25                     26                     27
                      A                      A                      A
 Frequencies --   1107.9376              1131.2659              1146.1389
 Red. masses --      2.9646                 2.1938                 1.5881
 Frc consts  --      2.1441                 1.6542                 1.2292
 IR Inten    --     68.2076                22.0921                 3.2727

                     28                     29                     30
                      A                      A                      A
 Frequencies --   1192.8009              1206.2321              1227.2116
 Red. masses --      1.7500                 1.3584                 1.5190
 Frc consts  --      1.4670                 1.1645                 1.3479
 IR Inten    --     19.5916                 2.1941                37.2186

                     31                     32                     33
                      A                      A                      A
 Frequencies --   1244.0760              1276.4806              1313.7302
 Red. masses --      1.4716                 1.4052                 1.4062
 Frc consts  --      1.3419                 1.3490                 1.4300
 IR Inten    --     28.3945                 3.7426                 7.8427

                     34                     35                     36
                      A                      A                      A
 Frequencies --   1346.5313              1415.7834              1419.4166
 Red. masses --      1.7558                 1.2755                 1.3857
 Frc consts  --      1.8757                 1.5064                 1.6449
 IR Inten    --     45.3028                 3.1648                 5.4885

                     37                     38                     39
                      A                      A                      A
 Frequencies --   1431.0077              1442.6905              1493.0904
 Red. masses --      1.8397                 1.4585                 1.0449
 Frc consts  --      2.2196                 1.7886                 1.3725
 IR Inten    --      2.0697                13.6934                 2.1368

                     40                     41                     42
                      A                      A                      A
 Frequencies --   1503.2634              1818.5799              2862.4648
 Red. masses --      1.0774                10.3399                 1.0823
 Frc consts  --      1.4345                20.1480                 5.2248
 IR Inten    --      4.8811               163.9637               135.0145

                     43                     44                     45
                      A                      A                      A
 Frequencies --   3023.4942              3029.3567              3056.1550
 Red. masses --      1.0836                 1.0352                 1.0853
 Frc consts  --      5.8361                 5.5971                 5.9722
 IR Inten    --     26.1991                31.3432                17.3226

                     46                     47                     48
                      A                      A                      A
 Frequencies --   3094.2246              3096.3646              3127.3720
 Red. masses --      1.0996                 1.1013                 1.0897
 Frc consts  --      6.2030                 6.2210                 6.2795
 IR Inten    --     15.4967                20.7892                22.2930

                     49                     50                     51
                      A                      A                      A
 Frequencies --   3175.8699              3186.1496              3819.0496
 Red. masses --      1.0881                 1.0961                 1.0662
 Frc consts  --      6.4661                 6.5560                 9.1619
 IR Inten    --     14.1077                14.8236                24.2273

 - Thermochemistry -
 -------------------
 Temperature   298.150 Kelvin.  Pressure   1.00000 Atm.
 Atom     1 has atomic number  6 and mass  12.00000

 Molecular mass:   126.06808 amu.
 Principal axes and moments of inertia in atomic units:
                           1         2         3
     Eigenvalues --   646.534121535.574371940.36406
           X            0.99947  -0.03101   0.00993
           Y            0.03091   0.99947   0.01008
           Z           -0.01024  -0.00977   0.99990
 This molecule is an asymmetric top.
 Rotational symmetry number  1.
 Warning -- assumption of classical behavior for rotation
           may cause significant error
 Rotational temperatures (Kelvin)      0.13397     0.05640     0.04464
 Rotational constants (GHZ):           2.79141     1.17529     0.93010
 Zero-point vibrational energy     413166.0 (Joules/Mol)
                                   98.74905 (Kcal/Mol)
 Warning -- explicit consideration of  11 degrees of freedom as
           vibrations may cause significant error
 Vibrational temperatures:     70.21   184.94   252.16   257.82   318.51
          (Kelvin)            364.10   404.70   438.68   555.16   576.82
                              834.74   953.30  1006.75  1132.90  1215.56
                             1242.51  1281.29  1398.89  1430.17  1441.82
                             1479.85  1507.13  1512.79  1561.47  1594.07
                             1627.64  1649.04  1716.17  1735.50  1765.68
                             1789.95  1836.57  1890.16  1937.36  2036.99
                             2042.22  2058.90  2075.71  2148.22  2162.86
                             2616.53  4118.44  4350.13  4358.56  4397.12
                             4451.89  4454.97  4499.59  4569.36  4584.15
                             5494.75

 Zero-point correction=                           0.157367 (Hartree/Particle)
 Thermal correction to Energy=                    0.166527
 Thermal correction to Enthalpy=                  0.167471
 Thermal correction to Gibbs Free Energy=         0.123056
 Sum of electronic and zero-point Energies=           -423.003637
 Sum of electronic and thermal Energies=              -422.994477
 Sum of electronic and thermal Enthalpies=            -422.993533
 Sum of electronic and thermal Free Energies=         -423.037948

                     E (Thermal)             CV                S
                      KCal/Mol        Cal/Mol-Kelvin    Cal/Mol-Kelvin
 Total                  104.497             33.631             93.479
 Electronic               0.000              0.000              0.000
 Translational            0.889              2.981             40.409
 Rotational               0.889              2.981             29.045
 Vibrational            102.720             27.669             24.026
 Vibration     1          0.595              1.978              4.865
 Vibration     2          0.611              1.925              2.968
 Vibration     3          0.627              1.873              2.378
 Vibration     4          0.629              1.868              2.337
 Vibration     5          0.648              1.809              1.948
 Vibration     6          0.664              1.758              1.709
 Vibration     7          0.681              1.708              1.526
 Vibration     8          0.696              1.664              1.390
 Vibration     9          0.755              1.500              1.016
 Vibration    10          0.767              1.468              0.959
 Vibration    11          0.937              1.074              0.485

 Normal termination of Gaussian 09 at Tue Jan 28 00:17:52 2020.
