 Gaussian 09, Revision D.01,
 Gaussian 09:  ES64L-G09RevD.01 24-Apr-2013

 -----------------------------
 # b3lyp 6-31G(2df,p) opt Freq
 -----------------------------

 -----
 titel
 -----
 Symbolic Z-matrix:
 Charge =  0 Multiplicity = 1

 SCF Done:  E(RB3LYP) =  -423.159382157     A.U. after   13 cycles
 Optimization completed.
    -- Stationary point found.
 Normal termination of Gaussian 09 at Tue Jan 28 14:10:43 2020.

 ----------------------------------------------------------------------
 #N Geom=AllCheck Guess=TCheck SCRF=Check GenChk RB3LYP/6-31G(2df,p) Fr
 eq
 ----------------------------------------------------------------------

 Structure from the checkpoint file:  "/scratch/puck/g09_3bd2f5cb-36f3-42af-a1b8-9e294511fe7d/Gau-32284.chk"
 -----
 titel
 -----
 Charge =  0 Multiplicity = 1

                         Standard orientation:
 ---------------------------------------------------------------------
 Center     Atomic      Atomic             Coordinates (Angstroms)
 Number     Number       Type             X           Y           Z
 ---------------------------------------------------------------------
      1          6           0       -2.604859    0.009287    0.233567
      2          8           0       -1.514848   -0.882099    0.354012
      3          6           0       -0.429084   -0.565713   -0.498245
      4          6           0        0.626677   -1.645554   -0.391034
      5          6           0        1.826690   -1.147815   -0.087104
      6          6           0        1.780376    0.331613    0.104214
      7          6           0        0.887140    0.817022    1.246397
      8          6           0        0.334963    0.722074   -0.138187
      9          8           0       -0.043967    1.921687   -0.743815
     10          1           0       -2.997749    0.026872   -0.795774
     11          1           0       -3.387738   -0.352421    0.904630
     12          1           0       -2.334834    1.035828    0.512705
     13          1           0       -0.809753   -0.472538   -1.535032
     14          1           0        0.378135   -2.691055   -0.524730
     15          1           0        2.731466   -1.731332    0.044349
     16          1           0        2.598684    0.969424   -0.210063
     17          1           0        0.560504    0.099591    1.990930
     18          1           0        1.069198    1.825143    1.602498
     19          1           0        0.131193    1.848295   -1.688740
 ---------------------------------------------------------------------

 SCF Done:  E(RB3LYP) =  -423.159382157     A.U. after    1 cycles

 The electronic state is 1-A.
 Alpha  occ. eigenvalues --  -19.14760 -19.13550 -10.23408 -10.23288 -10.21588
 Alpha  occ. eigenvalues --  -10.19077 -10.18768 -10.18456 -10.17789  -1.03716
 Alpha  occ. eigenvalues --   -1.02240  -0.87578  -0.76837  -0.71027  -0.65109
 Alpha  occ. eigenvalues --   -0.60886  -0.56995  -0.54506  -0.53274  -0.48372
 Alpha  occ. eigenvalues --   -0.46586  -0.44934  -0.43522  -0.42364  -0.41066
 Alpha  occ. eigenvalues --   -0.38212  -0.36637  -0.35253  -0.33576  -0.32452
 Alpha  occ. eigenvalues --   -0.29358  -0.26958  -0.25667  -0.22173
 Alpha virt. eigenvalues --    0.00763   0.07731   0.10169   0.11822   0.13476
 Alpha virt. eigenvalues --    0.14459   0.15051   0.15378   0.16492   0.17025
 Alpha virt. eigenvalues --    0.17771   0.18695   0.19579   0.21369   0.23434

 Mulliken charges:
               1
     1  C   -0.235662
     2  O   -0.247529
     3  C    0.017548
     4  C   -0.115494
     5  C   -0.073841
     6  C   -0.174051
     7  C   -0.300420
     8  C    0.385109
     9  O   -0.478798
    10  H    0.098045
    11  H    0.121783
    12  H    0.126826
    13  H    0.053926
    14  H    0.103818
    15  H    0.100801
    16  H    0.091585
    17  H    0.126747
    18  H    0.119050
    19  H    0.280557
 Sum of Mulliken charges =   0.00000

 Dipole moment (field-independent basis, Debye):
    X=              0.6560    Y=              0.1764    Z=             -1.3384  Tot=              1.5009
 Quadrupole moment (field-independent basis, Debye-Ang):
   XX=            -49.7342   YY=            -55.3717   ZZ=            -50.2912
   XY=             -0.5670   XZ=              0.0735   YZ=             -0.3999

  Exact polarizability:  88.741   0.012  75.443   3.083   3.327  65.091
 Approx polarizability: 126.437   4.185 110.296   6.445   4.313 101.478

                      1                      2                      3
                      A                      A                      A
 Frequencies --     86.8435               124.2919               180.8726
 Red. masses --      2.9613                 2.4309                 1.4213
 Frc consts  --      0.0132                 0.0221                 0.0274
 IR Inten    --      2.4575                 0.8253                 1.0749

                      4                      5                      6
                      A                      A                      A
 Frequencies --    237.1681               288.5660               306.6243
 Red. masses --      2.5470                 1.5130                 2.6119
 Frc consts  --      0.0844                 0.0742                 0.1447
 IR Inten    --      2.6893                46.9231                 4.5347

                      7                      8                      9
                      A                      A                      A
 Frequencies --    340.9039               366.0637               453.1642
 Red. masses --      2.1905                 3.9493                 3.0332
 Frc consts  --      0.1500                 0.3118                 0.3670
 IR Inten    --     36.2319                11.4133                 5.5194

                     10                     11                     12
                      A                      A                      A
 Frequencies --    488.5973               560.8801               621.5351
 Red. masses --      2.6287                 3.9222                 4.2829
 Frc consts  --      0.3697                 0.7270                 0.9748
 IR Inten    --      1.5272                10.0520                11.4386

                     13                     14                     15
                      A                      A                      A
 Frequencies --    720.6752               753.4393               793.5599
 Red. masses --      3.2055                 1.5567                 3.2019
 Frc consts  --      0.9809                 0.5206                 1.1880
 IR Inten    --      6.2034                17.6694                 3.1087

                     16                     17                     18
                      A                      A                      A
 Frequencies --    861.5577               919.0025               958.2709
 Red. masses --      1.7588                 3.1012                 1.7226
 Frc consts  --      0.7692                 1.5432                 0.9320
 IR Inten    --     15.7407                19.0131                 5.0109

                     19                     20                     21
                      A                      A                      A
 Frequencies --    960.3329               973.0122              1009.4683
 Red. masses --      2.0427                 1.6422                 4.0026
 Frc consts  --      1.1099                 0.9160                 2.4031
 IR Inten    --      3.1712                 7.7133                27.1515

                     22                     23                     24
                      A                      A                      A
 Frequencies --   1012.8409              1043.5595              1069.3814
 Red. masses --      1.8288                 1.8597                 1.3108
 Frc consts  --      1.1053                 1.1932                 0.8832
 IR Inten    --      3.1129                 4.1058                 1.6488

                     25                     26                     27
                      A                      A                      A
 Frequencies --   1071.7691              1127.3597              1154.8688
 Red. masses --      1.4108                 1.9720                 1.8888
 Frc consts  --      0.9548                 1.4767                 1.4842
 IR Inten    --      7.1812                69.7015                69.5416

                     28                     29                     30
                      A                      A                      A
 Frequencies --   1182.6571              1218.0816              1231.8740
 Red. masses --      1.2888                 1.5492                 2.0131
 Frc consts  --      1.0621                 1.3542                 1.7999
 IR Inten    --      2.8470                38.5994                 5.0891

                     31                     32                     33
                      A                      A                      A
 Frequencies --   1237.7538              1290.4065              1326.1044
 Red. masses --      1.9999                 1.5522                 2.1301
 Frc consts  --      1.8052                 1.5229                 2.2070
 IR Inten    --     69.5949                29.5918                58.6395

                     34                     35                     36
                      A                      A                      A
 Frequencies --   1351.6391              1376.4443              1421.9031
 Red. masses --      1.3836                 1.7041                 1.5429
 Frc consts  --      1.4893                 1.9022                 1.8379
 IR Inten    --      9.6694                29.5281                 6.3582

                     37                     38                     39
                      A                      A                      A
 Frequencies --   1476.1749              1479.9856              1488.8915
 Red. masses --      1.2365                 1.3708                 1.0824
 Frc consts  --      1.5875                 1.7691                 1.4137
 IR Inten    --      2.4669                10.0111                 2.8689

                     40                     41                     42
                      A                      A                      A
 Frequencies --   1508.9844              1672.8709              2898.8418
 Red. masses --      1.0651                 6.5173                 1.0802
 Frc consts  --      1.4289                10.7458                 5.3480
 IR Inten    --      7.3656                 2.9303                65.1760

                     43                     44                     45
                      A                      A                      A
 Frequencies --   2977.4215              3048.0565              3115.5551
 Red. masses --      1.0450                 1.0908                 1.0996
 Frc consts  --      5.4581                 5.9710                 6.2884
 IR Inten    --     67.4600                35.3839                30.7949

                     46                     47                     48
                      A                      A                      A
 Frequencies --   3134.1171              3176.2806              3188.4658
 Red. masses --      1.0530                 1.0890                 1.0887
 Frc consts  --      6.0940                 6.4734                 6.5212
 IR Inten    --      9.2756                 8.8171                13.8427

                     49                     50                     51
                      A                      A                      A
 Frequencies --   3218.8426              3231.3848              3791.8938
 Red. masses --      1.1021                 1.1179                 1.0660
 Frc consts  --      6.7278                 6.8776                 9.0305
 IR Inten    --     15.0420                 3.3686                16.7782

 - Thermochemistry -
 -------------------
 Temperature   298.150 Kelvin.  Pressure   1.00000 Atm.
 Atom     1 has atomic number  6 and mass  12.00000

 Molecular mass:   126.06808 amu.
 Principal axes and moments of inertia in atomic units:
                           1         2         3
     Eigenvalues --   742.795331092.561331483.58991
           X            0.99979  -0.01953   0.00626
           Y            0.01941   0.99964   0.01839
           Z           -0.00662  -0.01827   0.99981
 This molecule is an asymmetric top.
 Rotational symmetry number  1.
 Warning -- assumption of classical behavior for rotation
           may cause significant error
 Rotational temperatures (Kelvin)      0.11661     0.07928     0.05838
 Rotational constants (GHZ):           2.42966     1.65184     1.21647
 Zero-point vibrational energy     415877.2 (Joules/Mol)
                                   99.39704 (Kcal/Mol)
 Warning -- explicit consideration of  11 degrees of freedom as
           vibrations may cause significant error
 Vibrational temperatures:    124.95   178.83   260.24   341.23   415.18
          (Kelvin)            441.16   490.48   526.68   652.00   702.98
                              806.98   894.25  1036.89  1084.03  1141.75
                             1239.59  1322.24  1378.74  1381.70  1399.95
                             1452.40  1457.25  1501.45  1538.60  1542.03
                             1622.02  1661.60  1701.58  1752.55  1772.39
                             1780.85  1856.60  1907.97  1944.70  1980.39
                             2045.80  2123.88  2129.37  2142.18  2171.09
                             2406.89  4170.78  4283.84  4385.47  4482.58
                             4509.29  4569.95  4587.49  4631.19  4649.24
                             5455.68

 Zero-point correction=                           0.158399 (Hartree/Particle)
 Thermal correction to Energy=                    0.167013
 Thermal correction to Enthalpy=                  0.167958
 Thermal correction to Gibbs Free Energy=         0.125360
 Sum of electronic and zero-point Energies=           -423.000983
 Sum of electronic and thermal Energies=              -422.992369
 Sum of electronic and thermal Enthalpies=            -422.991425
 Sum of electronic and thermal Free Energies=         -423.034022

                     E (Thermal)             CV                S
                      KCal/Mol        Cal/Mol-Kelvin    Cal/Mol-Kelvin
 Total                  104.802             33.113             89.654
 Electronic               0.000              0.000              0.000
 Translational            0.889              2.981             40.409
 Rotational               0.889              2.981             28.578
 Vibrational            103.025             27.151             20.667
 Vibration     1          0.601              1.958              3.730
 Vibration     2          0.610              1.929              3.033
 Vibration     3          0.630              1.866              2.319
 Vibration     4          0.656              1.784              1.824
 Vibration     5          0.685              1.695              1.482
 Vibration     6          0.697              1.661              1.380
 Vibration     7          0.720              1.594              1.208
 Vibration     8          0.739              1.542              1.096
 Vibration     9          0.812              1.354              0.786
 Vibration    10          0.844              1.275              0.687
 Vibration    11          0.917              1.116              0.522

 Optimization completed.
    -- Stationary point found.
 Normal termination of Gaussian 09 at Tue Jan 28 14:56:47 2020.
