 Gaussian 09, Revision D.01,
 Gaussian 09:  ES64L-G09RevD.01 24-Apr-2013

 -----------------------------
 # b3lyp 6-31G(2df,p) opt Freq
 -----------------------------

 -----
 titel
 -----
 Symbolic Z-matrix:
 Charge =  0 Multiplicity = 1

 SCF Done:  E(RB3LYP) =  -423.119653656     A.U. after   14 cycles
 Optimization completed.
    -- Stationary point found.
 Normal termination of Gaussian 09 at Tue Jan 28 09:02:00 2020.

 ----------------------------------------------------------------------
 #N Geom=AllCheck Guess=TCheck SCRF=Check GenChk RB3LYP/6-31G(2df,p) Fr
 eq
 ----------------------------------------------------------------------

 Structure from the checkpoint file:  "/scratch/puck/g09_1e1cf98f-61d4-463f-b995-be16b8866e7a/Gau-94143.chk"
 -----
 titel
 -----
 Charge =  0 Multiplicity = 1

                         Standard orientation:
 ---------------------------------------------------------------------
 Center     Atomic      Atomic             Coordinates (Angstroms)
 Number     Number       Type             X           Y           Z
 ---------------------------------------------------------------------
      1          6           0        1.950165   -1.554601   -0.429854
      2          6           0        1.036041   -0.496267   -1.062559
      3          6           0        0.447232    0.484714   -0.060259
      4          6           0        0.657660    1.932102   -0.210844
      5          8           0        1.397691    1.181836    0.753885
      6          6           0       -0.814307    0.064745    0.695781
      7          8           0       -0.577052   -1.194706    1.315711
      8          6           0       -1.977274    0.012056   -0.197367
      9          6           0       -2.946946   -0.056177   -0.904984
     10          1           0        2.399319   -2.179938   -1.207524
     11          1           0        2.757064   -1.071592    0.128404
     12          1           0        1.395094   -2.194044    0.257434
     13          1           0        1.605499    0.074290   -1.804311
     14          1           0        0.211395   -0.975678   -1.601989
     15          1           0        1.228238    2.296591   -1.063494
     16          1           0       -0.062941    2.639684    0.198666
     17          1           0       -0.991167    0.835022    1.462326
     18          1           0       -1.422434   -1.532122    1.629387
     19          1           0       -3.800615   -0.108684   -1.535154
 ---------------------------------------------------------------------

 SCF Done:  E(RB3LYP) =  -423.119653656     A.U. after    1 cycles

 The electronic state is 1-A.
 Alpha  occ. eigenvalues --  -19.15160 -19.15000 -10.26450 -10.24548 -10.23389
 Alpha  occ. eigenvalues --  -10.19325 -10.18919 -10.18248 -10.16151  -1.07437
 Alpha  occ. eigenvalues --   -1.03245  -0.79198  -0.76166  -0.71645  -0.66499
 Alpha  occ. eigenvalues --   -0.63247  -0.57660  -0.54486  -0.52148  -0.50012
 Alpha  occ. eigenvalues --   -0.48926  -0.45966  -0.42466  -0.41054  -0.39091
 Alpha  occ. eigenvalues --   -0.37938  -0.36584  -0.34298  -0.33115  -0.30497
 Alpha  occ. eigenvalues --   -0.29330  -0.28352  -0.28103  -0.26115
 Alpha virt. eigenvalues --    0.02228   0.03894   0.08419   0.10665   0.10908
 Alpha virt. eigenvalues --    0.11648   0.11887   0.14330   0.15353   0.16401
 Alpha virt. eigenvalues --    0.17262   0.18659   0.18966   0.20675   0.22283

 Mulliken charges:
               1
     1  C   -0.375833
     2  C   -0.265013
     3  C    0.430669
     4  C   -0.227836
     5  O   -0.281482
     6  C   -0.110126
     7  O   -0.418545
     8  C    0.308307
     9  C   -0.470501
    10  H    0.103234
    11  H    0.129010
    12  H    0.140264
    13  H    0.097174
    14  H    0.112290
    15  H    0.115728
    16  H    0.112718
    17  H    0.103213
    18  H    0.291657
    19  H    0.205072
 Sum of Mulliken charges =   0.00000

 Dipole moment (field-independent basis, Debye):
    X=             -2.3470    Y=              0.3105    Z=             -1.1732  Tot=              2.6422
 Quadrupole moment (field-independent basis, Debye-Ang):
   XX=            -49.9672   YY=            -51.7532   ZZ=            -52.1189
   XY=              1.0520   XZ=             -2.7200   YZ=             -1.6893

  Exact polarizability:  88.087   0.462  74.910   6.661  -0.760  67.912
 Approx polarizability: 126.251   3.136 104.430  21.523  -1.631 107.517

                      1                      2                      3
                      A                      A                      A
 Frequencies --     42.5999                97.1100               126.5750
 Red. masses --      3.4867                 2.2955                 3.7438
 Frc consts  --      0.0037                 0.0128                 0.0353
 IR Inten    --      0.1853                 0.3993                 0.2846

                      4                      5                      6
                      A                      A                      A
 Frequencies --    192.9181               211.7553               225.2737
 Red. masses --      2.0760                 1.6989                 2.2587
 Frc consts  --      0.0455                 0.0449                 0.0675
 IR Inten    --      8.4801                 0.7927                30.3306

                      7                      8                      9
                      A                      A                      A
 Frequencies --    258.9231               270.6755               340.9707
 Red. masses --      1.7596                 2.2806                 3.6256
 Frc consts  --      0.0695                 0.0984                 0.2484
 IR Inten    --     45.7352                24.3290                 5.8258

                     10                     11                     12
                      A                      A                      A
 Frequencies --    358.2535               411.9385               490.5897
 Red. masses --      2.9848                 4.0197                 3.9329
 Frc consts  --      0.2257                 0.4019                 0.5577
 IR Inten    --      2.7549                 3.4873                13.2913

                     13                     14                     15
                      A                      A                      A
 Frequencies --    572.3273               605.8673               643.3380
 Red. masses --      4.9109                 5.9489                 1.2462
 Frc consts  --      0.9478                 1.2866                 0.3039
 IR Inten    --     14.4721                 1.3993                41.7276

                     16                     17                     18
                      A                      A                      A
 Frequencies --    676.4389               743.3353               794.1582
 Red. masses --      1.2574                 2.6237                 1.3478
 Frc consts  --      0.3390                 0.8542                 0.5008
 IR Inten    --     33.9321                10.5905                11.9338

                     19                     20                     21
                      A                      A                      A
 Frequencies --    859.6699               905.0987               963.3777
 Red. masses --      3.9159                 1.5729                 5.0777
 Frc consts  --      1.7051                 0.7592                 2.7766
 IR Inten    --     24.7906                 2.6315                36.8312

                     22                     23                     24
                      A                      A                      A
 Frequencies --    967.2425              1006.9344              1072.5455
 Red. masses --      3.5992                 1.9745                 3.6542
 Frc consts  --      1.9839                 1.1795                 2.4767
 IR Inten    --     19.4059                 2.2954                84.9845

                     25                     26                     27
                      A                      A                      A
 Frequencies --   1085.9418              1105.6396              1133.6876
 Red. masses --      1.7055                 2.1182                 1.3429
 Frc consts  --      1.1850                 1.5256                 1.0169
 IR Inten    --      0.7995                 5.2465                 5.3921

                     28                     29                     30
                      A                      A                      A
 Frequencies --   1166.5296              1208.2719              1264.7546
 Red. masses --      1.3797                 1.4500                 1.4358
 Frc consts  --      1.1062                 1.2473                 1.3532
 IR Inten    --      0.1604                30.5094                 2.4783

                     31                     32                     33
                      A                      A                      A
 Frequencies --   1318.5760              1340.8116              1349.9677
 Red. masses --      1.3861                 1.2496                 1.5690
 Frc consts  --      1.4199                 1.3236                 1.6847
 IR Inten    --     13.0034                22.8760                12.5820

                     34                     35                     36
                      A                      A                      A
 Frequencies --   1385.4640              1404.9470              1436.6509
 Red. masses --      1.8526                 1.2477                 1.7941
 Frc consts  --      2.0952                 1.4510                 2.1817
 IR Inten    --     28.3150                 4.4825                 1.4750

                     37                     38                     39
                      A                      A                      A
 Frequencies --   1482.0750              1494.7418              1516.7047
 Red. masses --      1.0888                 1.0401                 1.0650
 Frc consts  --      1.4091                 1.3691                 1.4434
 IR Inten    --      2.6829                 2.8311                 5.2338

                     40                     41                     42
                      A                      A                      A
 Frequencies --   1531.5823              2230.4324              2983.7164
 Red. masses --      1.3182                 5.9006                 1.0817
 Frc consts  --      1.8218                17.2952                 5.6736
 IR Inten    --      2.1975                 1.5983                27.2306

                     43                     44                     45
                      A                      A                      A
 Frequencies --   3038.2340              3048.8589              3076.5401
 Red. masses --      1.0599                 1.0380                 1.1014
 Frc consts  --      5.7643                 5.6849                 6.1424
 IR Inten    --     18.8259                29.8728                16.1484

                     46                     47                     48
                      A                      A                      A
 Frequencies --   3079.7152              3114.2444              3151.2906
 Red. masses --      1.0513                 1.1007                 1.0998
 Frc consts  --      5.8750                 6.2897                 6.4346
 IR Inten    --     26.6955                24.9672                12.7061

                     49                     50                     51
                      A                      A                      A
 Frequencies --   3166.3916              3500.1867              3820.4100
 Red. masses --      1.1189                 1.1625                 1.0664
 Frc consts  --      6.6093                 8.3916                 9.1706
 IR Inten    --     24.4714                64.9946                29.3898

 - Thermochemistry -
 -------------------
 Temperature   298.150 Kelvin.  Pressure   1.00000 Atm.
 Atom     1 has atomic number  6 and mass  12.00000

 Molecular mass:   126.06808 amu.
 Principal axes and moments of inertia in atomic units:
                           1         2         3
     Eigenvalues --   844.502261371.696101610.35260
           X            0.99867  -0.04656  -0.02233
           Y            0.04675   0.99887   0.00806
           Z            0.02193  -0.00910   0.99972
 This molecule is an asymmetric top.
 Rotational symmetry number  1.
 Warning -- assumption of classical behavior for rotation
           may cause significant error
 Rotational temperatures (Kelvin)      0.10256     0.06314     0.05379
 Rotational constants (GHZ):           2.13705     1.31570     1.12071
 Zero-point vibrational energy     408370.9 (Joules/Mol)
                                   97.60299 (Kcal/Mol)
 Warning -- explicit consideration of  14 degrees of freedom as
           vibrations may cause significant error
 Vibrational temperatures:     61.29   139.72   182.11   277.57   304.67
          (Kelvin)            324.12   372.53   389.44   490.58   515.45
                              592.69   705.85   823.45   871.71   925.62
                              973.24  1069.49  1142.62  1236.87  1302.23
                             1386.08  1391.64  1448.75  1543.15  1562.43
                             1590.77  1631.12  1678.37  1738.43  1819.70
                             1897.13  1929.13  1942.30  1993.37  2021.40
                             2067.02  2132.37  2150.60  2182.20  2203.60
                             3209.09  4292.90  4371.34  4386.62  4426.45
                             4431.02  4480.70  4534.00  4555.73  5035.98
                             5496.71

 Zero-point correction=                           0.155540 (Hartree/Particle)
 Thermal correction to Energy=                    0.165694
 Thermal correction to Enthalpy=                  0.166638
 Thermal correction to Gibbs Free Energy=         0.120226
 Sum of electronic and zero-point Energies=           -422.964113
 Sum of electronic and thermal Energies=              -422.953960
 Sum of electronic and thermal Enthalpies=            -422.953016
 Sum of electronic and thermal Free Energies=         -422.999427

                     E (Thermal)             CV                S
                      KCal/Mol        Cal/Mol-Kelvin    Cal/Mol-Kelvin
 Total                  103.974             36.946             97.682
 Electronic               0.000              0.000              0.000
 Translational            0.889              2.981             40.409
 Rotational               0.889              2.981             29.013
 Vibrational            102.197             30.985             28.260
 Vibration     1          0.595              1.980              5.134
 Vibration     2          0.603              1.951              3.512
 Vibration     3          0.611              1.927              2.997
 Vibration     4          0.635              1.850              2.200
 Vibration     5          0.643              1.823              2.028
 Vibration     6          0.650              1.803              1.916
 Vibration     7          0.668              1.748              1.669
 Vibration     8          0.674              1.727              1.592
 Vibration     9          0.720              1.594              1.208
 Vibration    10          0.733              1.558              1.130
 Vibration    11          0.776              1.444              0.920
 Vibration    12          0.846              1.271              0.682
 Vibration    13          0.929              1.091              0.500
 Vibration    14          0.964              1.019              0.440

 Normal termination of Gaussian 09 at Tue Jan 28 09:43:27 2020.
