 Gaussian 09, Revision D.01,
 Gaussian 09:  ES64L-G09RevD.01 24-Apr-2013

 -----------------------------
 # b3lyp 6-31G(2df,p) opt Freq
 -----------------------------

 -----
 titel
 -----
 Symbolic Z-matrix:
 Charge =  0 Multiplicity = 1

 SCF Done:  E(RB3LYP) =  -423.126767847     A.U. after   12 cycles
 Optimization completed.
    -- Stationary point found.
 Normal termination of Gaussian 09 at Mon Jan 27 23:09:52 2020.

 ----------------------------------------------------------------------
 #N Geom=AllCheck Guess=TCheck SCRF=Check GenChk RB3LYP/6-31G(2df,p) Fr
 eq
 ----------------------------------------------------------------------

 Structure from the checkpoint file:  "/scratch/puck/g09_73a2462a-9f55-4280-a2b0-9cca8fbfde09/Gau-79896.chk"
 -----
 titel
 -----
 Charge =  0 Multiplicity = 1

                         Standard orientation:
 ---------------------------------------------------------------------
 Center     Atomic      Atomic             Coordinates (Angstroms)
 Number     Number       Type             X           Y           Z
 ---------------------------------------------------------------------
      1          6           0       -2.602925    0.200859    0.008445
      2          6           0       -1.243081   -0.206468   -0.545291
      3          6           0       -0.536403   -1.347291    0.257824
      4          6           0        0.809335   -1.608967   -0.489656
      5          6           0        1.187867   -0.225361   -0.006253
      6          8           0        2.434002    0.353990   -0.088734
      7          6           0        0.191540   -0.253446    1.142969
      8          6           0       -0.082170    0.645217   -0.041861
      9          8           0        0.069586    2.025695   -0.048264
     10          1           0       -3.359284   -0.560306   -0.210651
     11          1           0       -2.558229    0.335779    1.094498
     12          1           0       -2.940257    1.146255   -0.429004
     13          1           0       -1.302174   -0.371086   -1.630473
     14          1           0       -1.121550   -2.173457    0.654258
     15          1           0        1.401208   -2.387532    0.000377
     16          1           0        0.762330   -1.799496   -1.568689
     17          1           0        2.301574    1.309158   -0.011947
     18          1           0        0.261510   -0.072470    2.205185
     19          1           0        0.181186    2.308402   -0.964628
 ---------------------------------------------------------------------

 SCF Done:  E(RB3LYP) =  -423.126767847     A.U. after    1 cycles

 The electronic state is 1-A.
 Alpha  occ. eigenvalues --  -19.16394 -19.14431 -10.23467 -10.23403 -10.19784
 Alpha  occ. eigenvalues --  -10.18991 -10.18167 -10.18084 -10.17330  -1.05254
 Alpha  occ. eigenvalues --   -1.02473  -0.91851  -0.75611  -0.71104  -0.65037
 Alpha  occ. eigenvalues --   -0.61813  -0.57080  -0.54393  -0.52395  -0.49214
 Alpha  occ. eigenvalues --   -0.46145  -0.44307  -0.42811  -0.40314  -0.39347
 Alpha  occ. eigenvalues --   -0.37574  -0.36565  -0.35550  -0.34648  -0.31747
 Alpha  occ. eigenvalues --   -0.31194  -0.29735  -0.24499  -0.21730
 Alpha virt. eigenvalues --    0.05604   0.10200   0.11094   0.12061   0.13062
 Alpha virt. eigenvalues --    0.13569   0.14319   0.15439   0.16088   0.16832
 Alpha virt. eigenvalues --    0.18117   0.18759   0.20558   0.21576   0.23661

 Mulliken charges:
               1
     1  C   -0.405831
     2  C   -0.063429
     3  C   -0.066243
     4  C   -0.294959
     5  C    0.363122
     6  O   -0.475150
     7  C   -0.228266
     8  C    0.309544
     9  O   -0.476191
    10  H    0.110290
    11  H    0.121191
    12  H    0.114404
    13  H    0.055444
    14  H    0.077156
    15  H    0.105217
    16  H    0.086431
    17  H    0.279995
    18  H    0.098466
    19  H    0.288809
 Sum of Mulliken charges =   0.00000

 Dipole moment (field-independent basis, Debye):
    X=             -1.1514    Y=              0.3907    Z=             -0.9805  Tot=              1.5620
 Quadrupole moment (field-independent basis, Debye-Ang):
   XX=            -57.8383   YY=            -50.5612   ZZ=            -50.8740
   XY=              2.9193   XZ=              0.3465   YZ=             -3.5938

  Exact polarizability:  81.694  -0.431  76.364  -0.144  -0.832  66.639
 Approx polarizability: 111.530   0.664 112.503  -1.488  -2.424 106.876

                      1                      2                      3
                      A                      A                      A
 Frequencies --    171.7924               209.2424               221.9534
 Red. masses --      3.8455                 2.2483                 2.3537
 Frc consts  --      0.0669                 0.0580                 0.0683
 IR Inten    --      0.6834                 3.1897                31.2623

                      4                      5                      6
                      A                      A                      A
 Frequencies --    235.0830               252.4759               294.7656
 Red. masses --      1.2852                 1.3607                 2.7525
 Frc consts  --      0.0418                 0.0511                 0.1409
 IR Inten    --     20.9045                71.2835                 4.4640

                      7                      8                      9
                      A                      A                      A
 Frequencies --    383.9312               430.1800               447.8889
 Red. masses --      3.6219                 2.2217                 1.4792
 Frc consts  --      0.3146                 0.2422                 0.1748
 IR Inten    --      4.8031                12.4999                43.7988

                     10                     11                     12
                      A                      A                      A
 Frequencies --    457.0703               520.2601               657.5232
 Red. masses --      1.6799                 4.1383                 4.2360
 Frc consts  --      0.2068                 0.6600                 1.0790
 IR Inten    --     18.5037                 3.7110                 4.2733

                     13                     14                     15
                      A                      A                      A
 Frequencies --    670.0357               741.4405               782.6092
 Red. masses --      4.7318                 2.5373                 2.6425
 Frc consts  --      1.2516                 0.8218                 0.9536
 IR Inten    --      9.8262                12.3260                 2.5288

                     16                     17                     18
                      A                      A                      A
 Frequencies --    802.1360               852.8502               880.9852
 Red. masses --      2.5216                 1.9681                 1.7074
 Frc consts  --      0.9559                 0.8434                 0.7808
 IR Inten    --      5.1904                 2.1100                 0.3757

                     19                     20                     21
                      A                      A                      A
 Frequencies --    928.8304               944.1042               996.2153
 Red. masses --      2.3471                 3.0328                 1.4289
 Frc consts  --      1.1931                 1.5927                 0.8355
 IR Inten    --      5.9854                 6.3049                13.8066

                     22                     23                     24
                      A                      A                      A
 Frequencies --   1035.6950              1065.9031              1071.9758
 Red. masses --      2.4145                 2.1236                 1.5352
 Frc consts  --      1.5260                 1.4216                 1.0394
 IR Inten    --      2.1417                16.1392                 0.1515

                     25                     26                     27
                      A                      A                      A
 Frequencies --   1087.5885              1096.9912              1122.1603
 Red. masses --      1.9258                 1.6775                 1.4975
 Frc consts  --      1.3421                 1.1894                 1.1110
 IR Inten    --      5.2870                 7.1296                31.4255

                     28                     29                     30
                      A                      A                      A
 Frequencies --   1152.9125              1195.3691              1214.3136
 Red. masses --      1.8205                 1.7951                 1.5576
 Frc consts  --      1.4257                 1.5113                 1.3532
 IR Inten    --      6.5463                32.0978                 5.5657

                     31                     32                     33
                      A                      A                      A
 Frequencies --   1234.7967              1269.1930              1302.0845
 Red. masses --      1.6303                 1.6807                 2.0504
 Frc consts  --      1.4646                 1.5952                 2.0482
 IR Inten    --     27.0971                 7.2351                98.6389

                     34                     35                     36
                      A                      A                      A
 Frequencies --   1340.9168              1385.2326              1407.8056
 Red. masses --      1.7854                 1.7669                 1.3822
 Frc consts  --      1.8914                 1.9976                 1.6140
 IR Inten    --    105.3205                33.7487                11.8169

                     37                     38                     39
                      A                      A                      A
 Frequencies --   1416.1823              1441.6556              1494.1417
 Red. masses --      2.2480                 3.1461                 1.0507
 Frc consts  --      2.6564                 3.8525                 1.3820
 IR Inten    --     17.4900                51.9253                 3.5350

                     40                     41                     42
                      A                      A                      A
 Frequencies --   1498.1022              1509.7035              3002.1586
 Red. masses --      1.0685                 1.2326                 1.0827
 Frc consts  --      1.4129                 1.6553                 5.7492
 IR Inten    --      6.3485                 8.4212                37.2221

                     43                     44                     45
                      A                      A                      A
 Frequencies --   3028.4463              3029.8956              3092.6788
 Red. masses --      1.0592                 1.0365                 1.1038
 Frc consts  --      5.7235                 5.6060                 6.2202
 IR Inten    --     77.3726                22.3775                24.7200

                     46                     47                     48
                      A                      A                      A
 Frequencies --   3097.1417              3101.2393              3145.7670
 Red. masses --      1.1016                 1.1011                 1.0915
 Frc consts  --      6.2256                 6.2394                 6.3638
 IR Inten    --     23.1611                32.5416                24.1416

                     49                     50                     51
                      A                      A                      A
 Frequencies --   3228.9853              3744.0286              3769.3534
 Red. masses --      1.0972                 1.0651                 1.0657
 Frc consts  --      6.7402                 8.7964                 8.9214
 IR Inten    --      2.8250                34.2119                17.1134

 - Thermochemistry -
 -------------------
 Temperature   298.150 Kelvin.  Pressure   1.00000 Atm.
 Atom     1 has atomic number  6 and mass  12.00000

 Molecular mass:   126.06808 amu.
 Principal axes and moments of inertia in atomic units:
                           1         2         3
     Eigenvalues --   666.168251059.767711469.07104
           X            0.99998  -0.00553  -0.00096
           Y            0.00552   0.99998  -0.00336
           Z            0.00098   0.00336   0.99999
 This molecule is an asymmetric top.
 Rotational symmetry number  1.
 Warning -- assumption of classical behavior for rotation
           may cause significant error
 Rotational temperatures (Kelvin)      0.13002     0.08173     0.05896
 Rotational constants (GHZ):           2.70914     1.70296     1.22849
 Zero-point vibrational energy     415485.7 (Joules/Mol)
                                   99.30347 (Kcal/Mol)
 Warning -- explicit consideration of  11 degrees of freedom as
           vibrations may cause significant error
 Vibrational temperatures:    247.17   301.05   319.34   338.23   363.26
          (Kelvin)            424.10   552.39   618.93   644.41   657.62
                              748.54   946.03   964.03  1066.77  1126.00
                             1154.09  1227.06  1267.54  1336.38  1358.35
                             1433.33  1490.13  1533.59  1542.33  1564.80
                             1578.32  1614.54  1658.78  1719.87  1747.12
                             1776.59  1826.08  1873.41  1929.28  1993.04
                             2025.52  2037.57  2074.22  2149.73  2155.43
                             2172.12  4319.43  4357.25  4359.34  4449.67
                             4456.09  4461.99  4526.05  4645.78  5386.82
                             5423.25

 Zero-point correction=                           0.158250 (Hartree/Particle)
 Thermal correction to Energy=                    0.166595
 Thermal correction to Enthalpy=                  0.167539
 Thermal correction to Gibbs Free Energy=         0.126144
 Sum of electronic and zero-point Energies=           -422.968518
 Sum of electronic and thermal Energies=              -422.960173
 Sum of electronic and thermal Enthalpies=            -422.959229
 Sum of electronic and thermal Free Energies=         -423.000624

                     E (Thermal)             CV                S
                      KCal/Mol        Cal/Mol-Kelvin    Cal/Mol-Kelvin
 Total                  104.540             33.473             87.123
 Electronic               0.000              0.000              0.000
 Translational            0.889              2.981             40.409
 Rotational               0.889              2.981             28.430
 Vibrational            102.762             27.511             18.284
 Vibration     1          0.626              1.877              2.416
 Vibration     2          0.642              1.827              2.050
 Vibration     3          0.648              1.808              1.943
 Vibration     4          0.655              1.787              1.840
 Vibration     5          0.664              1.759              1.713
 Vibration     6          0.689              1.683              1.446
 Vibration     7          0.753              1.504              1.024
 Vibration     8          0.791              1.405              0.858
 Vibration     9          0.807              1.366              0.802
 Vibration    10          0.815              1.345              0.775
 Vibration    11          0.875              1.205              0.609

 Optimization completed.
    -- Stationary point found.
 Normal termination of Gaussian 09 at Mon Jan 27 23:56:53 2020.
