 Gaussian 09, Revision D.01,
 Gaussian 09:  ES64L-G09RevD.01 24-Apr-2013

 -----------------------------
 # b3lyp 6-31G(2df,p) opt Freq
 -----------------------------

 -----
 titel
 -----
 Symbolic Z-matrix:
 Charge =  0 Multiplicity = 1

 SCF Done:  E(RB3LYP) =  -423.152464777     A.U. after   14 cycles
 Optimization completed.
    -- Stationary point found.
 Normal termination of Gaussian 09 at Mon Jan 27 13:47:00 2020.

 ----------------------------------------------------------------------
 #N Geom=AllCheck Guess=TCheck SCRF=Check GenChk RB3LYP/6-31G(2df,p) Fr
 eq
 ----------------------------------------------------------------------

 Structure from the checkpoint file:  "/scratch/puck/g09_c8107817-d754-4a1a-9ff8-bf154fbc9ad8/Gau-169729.chk"
 -----
 titel
 -----
 Charge =  0 Multiplicity = 1

                         Standard orientation:
 ---------------------------------------------------------------------
 Center     Atomic      Atomic             Coordinates (Angstroms)
 Number     Number       Type             X           Y           Z
 ---------------------------------------------------------------------
      1          8           0        3.525874   -0.597681    0.267545
      2          6           0        2.592075    0.055328   -0.120546
      3          6           0        1.209093   -0.492368   -0.396785
      4          6           0        0.133452    0.224728    0.424225
      5          6           0       -0.238252    1.674499    0.022760
      6          8           0       -1.605077    1.299265   -0.249420
      7          6           0       -1.328111   -0.064895    0.072192
      8          6           0       -1.936237   -1.190495   -0.698410
      9          6           0       -2.334892   -0.929379    0.750143
     10          1           0        2.700137    1.151085   -0.299894
     11          1           0        0.993324   -0.352389   -1.465394
     12          1           0        1.218784   -1.566285   -0.187404
     13          1           0        0.341350    0.116636    1.492507
     14          1           0       -0.170945    2.425892    0.816850
     15          1           0        0.263342    2.054593   -0.876378
     16          1           0       -2.652102   -0.923683   -1.468490
     17          1           0       -1.333099   -2.064954   -0.921165
     18          1           0       -3.312961   -0.495605    0.928641
     19          1           0       -1.996982   -1.622472    1.514252
 ---------------------------------------------------------------------

 SCF Done:  E(RB3LYP) =  -423.152464777     A.U. after    1 cycles

 The electronic state is 1-A.
 Alpha  occ. eigenvalues --  -19.14536 -19.14215 -10.27782 -10.24816 -10.24144
 Alpha  occ. eigenvalues --  -10.21290 -10.20379 -10.19044 -10.18962  -1.05237
 Alpha  occ. eigenvalues --   -1.05078  -0.85377  -0.80459  -0.70542  -0.65150
 Alpha  occ. eigenvalues --   -0.61305  -0.58224  -0.53657  -0.51166  -0.50089
 Alpha  occ. eigenvalues --   -0.48942  -0.45985  -0.44283  -0.42873  -0.41332
 Alpha  occ. eigenvalues --   -0.40110  -0.37523  -0.37184  -0.36408  -0.34278
 Alpha  occ. eigenvalues --   -0.31553  -0.29395  -0.25621  -0.23525
 Alpha virt. eigenvalues --   -0.02845   0.06859   0.08895   0.09334   0.10098
 Alpha virt. eigenvalues --    0.12446   0.12604   0.13226   0.14161   0.15284
 Alpha virt. eigenvalues --    0.17076   0.17701   0.19170   0.22174   0.22614

 Mulliken charges:
               1
     1  O   -0.233863
     2  C    0.157424
     3  C   -0.296583
     4  C   -0.150708
     5  C   -0.090367
     6  O   -0.302841
     7  C    0.460636
     8  C   -0.336971
     9  C   -0.333168
    10  H    0.075534
    11  H    0.125433
    12  H    0.123731
    13  H    0.097595
    14  H    0.111761
    15  H    0.102032
    16  H    0.128094
    17  H    0.117466
    18  H    0.127562
    19  H    0.117233
 Sum of Mulliken charges =   0.00000

 Dipole moment (field-independent basis, Debye):
    X=             -1.1214    Y=              0.1742    Z=             -0.2228  Tot=              1.1565
 Quadrupole moment (field-independent basis, Debye-Ang):
   XX=            -66.8301   YY=            -53.1681   ZZ=            -51.5758
   XY=              6.5838   XZ=             -3.0572   YZ=              0.8934

  Exact polarizability:  89.163   3.818  76.605   0.543  -0.509  64.145
 Approx polarizability: 117.003  -2.079 111.944   4.109  -3.199  99.037

                      1                      2                      3
                      A                      A                      A
 Frequencies --     47.5943                65.3478                73.3710
 Red. masses --      3.6177                 3.3191                 3.8564
 Frc consts  --      0.0048                 0.0084                 0.0122
 IR Inten    --     10.1134                 0.6662                 3.8911

                      4                      5                      6
                      A                      A                      A
 Frequencies --    143.2806               241.0257               249.7026
 Red. masses --      2.6700                 2.8662                 2.3582
 Frc consts  --      0.0323                 0.0981                 0.0866
 IR Inten    --      0.1306                 0.8368                 1.7125

                      7                      8                      9
                      A                      A                      A
 Frequencies --    342.2629               405.5554               460.8734
 Red. masses --      2.8625                 2.5621                 3.4420
 Frc consts  --      0.1976                 0.2483                 0.4308
 IR Inten    --      2.0297                 0.5538                 4.6416

                     10                     11                     12
                      A                      A                      A
 Frequencies --    530.4297               570.0647               757.4894
 Red. masses --      2.1725                 4.0409                 1.0449
 Frc consts  --      0.3601                 0.7737                 0.3532
 IR Inten    --      7.8052                 9.3168                 1.5980

                     13                     14                     15
                      A                      A                      A
 Frequencies --    778.5312               834.6706               868.0897
 Red. masses --      2.0858                 2.1596                 1.3870
 Frc consts  --      0.7448                 0.8865                 0.6158
 IR Inten    --      1.1478                 2.7228                 1.3427

                     16                     17                     18
                      A                      A                      A
 Frequencies --    875.4914               905.6590               942.5902
 Red. masses --      2.5536                 1.7527                 1.9129
 Frc consts  --      1.1532                 0.8470                 1.0013
 IR Inten    --     23.8462                 2.6714                 4.5953

                     19                     20                     21
                      A                      A                      A
 Frequencies --    969.3492               980.4508              1023.2294
 Red. masses --      2.2665                 2.7096                 5.4229
 Frc consts  --      1.2548                 1.5347                 3.3452
 IR Inten    --     13.0058                 1.9597                58.1134

                     22                     23                     24
                      A                      A                      A
 Frequencies --   1048.1199              1067.8317              1070.2596
 Red. masses --      1.6222                 1.5877                 2.7329
 Frc consts  --      1.0500                 1.0667                 1.8444
 IR Inten    --     46.6553                 7.9042                30.2559

                     25                     26                     27
                      A                      A                      A
 Frequencies --   1108.6920              1132.3955              1167.9972
 Red. masses --      2.7299                 2.0892                 1.1625
 Frc consts  --      1.9771                 1.5785                 0.9344
 IR Inten    --      4.7833                10.0873                 2.0997

                     28                     29                     30
                      A                      A                      A
 Frequencies --   1186.9390              1219.7472              1235.2204
 Red. masses --      1.2604                 2.2048                 1.3735
 Frc consts  --      1.0462                 1.9327                 1.2347
 IR Inten    --      0.4611                29.7501                 3.2109

                     31                     32                     33
                      A                      A                      A
 Frequencies --   1241.0609              1300.9692              1348.3859
 Red. masses --      1.3350                 1.5033                 1.3699
 Frc consts  --      1.2114                 1.4991                 1.4675
 IR Inten    --      1.0043                 2.6273                16.6178

                     34                     35                     36
                      A                      A                      A
 Frequencies --   1356.4543              1395.5456              1433.9891
 Red. masses --      1.7592                 1.8843                 1.1995
 Frc consts  --      1.9071                 2.1622                 1.4533
 IR Inten    --     18.2716                 4.8183                 6.0820

                     37                     38                     39
                      A                      A                      A
 Frequencies --   1446.5215              1463.5522              1494.2329
 Red. masses --      1.0908                 1.0931                 1.5607
 Frc consts  --      1.3448                 1.3795                 2.0530
 IR Inten    --      2.2291                 3.6892                26.6740

                     40                     41                     42
                      A                      A                      A
 Frequencies --   1527.6164              1835.3352              2854.2626
 Red. masses --      1.1843                10.0667                 1.0814
 Frc consts  --      1.6283                19.9787                 5.1906
 IR Inten    --      1.2439               191.0308                99.0560

                     43                     44                     45
                      A                      A                      A
 Frequencies --   3014.3671              3019.9598              3058.9175
 Red. masses --      1.0594                 1.0625                 1.0959
 Frc consts  --      5.6718                 5.7095                 6.0417
 IR Inten    --     56.1051                16.4977                 5.9848

                     46                     47                     48
                      A                      A                      A
 Frequencies --   3074.0160              3095.6703              3126.1166
 Red. masses --      1.0965                 1.0988                 1.0507
 Frc consts  --      6.1046                 6.2039                 6.0500
 IR Inten    --     48.3684                14.6316                12.7480

                     49                     50                     51
                      A                      A                      A
 Frequencies --   3128.4754              3209.8719              3223.8165
 Red. masses --      1.0580                 1.1178                 1.1151
 Frc consts  --      6.1010                 6.7858                 6.8279
 IR Inten    --      3.4249                 0.1530                 8.7290

 - Thermochemistry -
 -------------------
 Temperature   298.150 Kelvin.  Pressure   1.00000 Atm.
 Atom     1 has atomic number  8 and mass  15.99491

 Molecular mass:   126.06808 amu.
 Principal axes and moments of inertia in atomic units:
                           1         2         3
     Eigenvalues --   537.093001914.507462228.83415
           X            0.99957   0.02871  -0.00665
           Y           -0.02863   0.99952   0.01224
           Z            0.00700  -0.01204   0.99990
 This molecule is an asymmetric top.
 Rotational symmetry number  1.
 Warning -- assumption of classical behavior for rotation
           may cause significant error
 Rotational temperatures (Kelvin)      0.16126     0.04524     0.03886
 Rotational constants (GHZ):           3.36020     0.94267     0.80972
 Zero-point vibrational energy     412420.9 (Joules/Mol)
                                   98.57097 (Kcal/Mol)
 Warning -- explicit consideration of  11 degrees of freedom as
           vibrations may cause significant error
 Vibrational temperatures:     68.48    94.02   105.56   206.15   346.78
          (Kelvin)            359.27   492.44   583.50   663.09   763.17
                              820.19  1089.86  1120.13  1200.90  1248.99
                             1259.64  1303.04  1356.18  1394.68  1410.65
                             1472.20  1508.01  1536.37  1539.86  1595.16
                             1629.26  1680.49  1707.74  1754.94  1777.20
                             1785.61  1871.80  1940.02  1951.63  2007.88
                             2063.19  2081.22  2105.72  2149.87  2197.90
                             2640.63  4106.64  4337.00  4345.04  4401.09
                             4422.82  4453.97  4497.78  4501.17  4618.28
                             4638.35

 Zero-point correction=                           0.157083 (Hartree/Particle)
 Thermal correction to Energy=                    0.166154
 Thermal correction to Enthalpy=                  0.167098
 Thermal correction to Gibbs Free Energy=         0.121781
 Sum of electronic and zero-point Energies=           -422.995382
 Sum of electronic and thermal Energies=              -422.986311
 Sum of electronic and thermal Enthalpies=            -422.985367
 Sum of electronic and thermal Free Energies=         -423.030684

                     E (Thermal)             CV                S
                      KCal/Mol        Cal/Mol-Kelvin    Cal/Mol-Kelvin
 Total                  104.263             32.583             95.378
 Electronic               0.000              0.000              0.000
 Translational            0.889              2.981             40.409
 Rotational               0.889              2.981             29.218
 Vibrational            102.486             26.621             25.752
 Vibration     1          0.595              1.978              4.915
 Vibration     2          0.597              1.971              4.289
 Vibration     3          0.599              1.967              4.061
 Vibration     4          0.616              1.910              2.760
 Vibration     5          0.658              1.778              1.795
 Vibration     6          0.662              1.763              1.733
 Vibration     7          0.721              1.591              1.202
 Vibration     8          0.771              1.458              0.942
 Vibration     9          0.819              1.337              0.764
 Vibration    10          0.885              1.183              0.586
 Vibration    11          0.926              1.096              0.504

 Optimization completed.
    -- Stationary point found.
 Normal termination of Gaussian 09 at Mon Jan 27 14:24:53 2020.
