 Gaussian 09, Revision D.01,
 Gaussian 09:  ES64L-G09RevD.01 24-Apr-2013

 -----------------------------
 # b3lyp 6-31G(2df,p) opt Freq
 -----------------------------

 -----
 titel
 -----
 Symbolic Z-matrix:
 Charge =  0 Multiplicity = 1

 SCF Done:  E(RB3LYP) =  -423.158469802     A.U. after   14 cycles
 Optimization completed.
    -- Stationary point found.
 Normal termination of Gaussian 09 at Tue Jan 28 14:30:23 2020.

 ----------------------------------------------------------------------
 #N Geom=AllCheck Guess=TCheck SCRF=Check GenChk RB3LYP/6-31G(2df,p) Fr
 eq
 ----------------------------------------------------------------------

 Structure from the checkpoint file:  "/scratch/puck/g09_a1389bcd-1843-4bda-bf77-eb2e8588fbd2/Gau-122481.chk"
 -----
 titel
 -----
 Charge =  0 Multiplicity = 1

                         Standard orientation:
 ---------------------------------------------------------------------
 Center     Atomic      Atomic             Coordinates (Angstroms)
 Number     Number       Type             X           Y           Z
 ---------------------------------------------------------------------
      1          8           0        4.565357   -0.221155    0.000072
      2          6           0        3.254999   -0.765439   -0.001553
      3          6           0        2.269593    0.396366    0.001214
      4          6           0        0.810918   -0.065084   -0.001287
      5          6           0       -0.172732    1.123158    0.002472
      6          6           0       -1.570097    0.718897    0.000529
      7          6           0       -2.718590    0.342675   -0.001113
      8          6           0       -4.100913   -0.056196   -0.003630
      9          8           0       -4.486746   -1.203357    0.003750
     10          1           0        5.194077   -0.948657    0.000075
     11          1           0        3.083757   -1.394996   -0.890122
     12          1           0        3.083438   -1.399559    0.883684
     13          1           0        2.470017    1.018442    0.882421
     14          1           0        2.471375    1.023609   -0.876015
     15          1           0        0.609950   -0.686888   -0.881333
     16          1           0        0.608847   -0.693223    0.873999
     17          1           0        0.013076    1.756451    0.880436
     18          1           0        0.014169    1.763204   -0.870321
     19          1           0       -4.816659    0.791458   -0.013184
 ---------------------------------------------------------------------

 SCF Done:  E(RB3LYP) =  -423.158469803     A.U. after    1 cycles

 The electronic state is 1-A.
 Alpha  occ. eigenvalues --  -19.13995 -19.13822 -10.28591 -10.23338 -10.22452
 Alpha  occ. eigenvalues --  -10.21067 -10.20092 -10.18961 -10.18956  -1.04561
 Alpha  occ. eigenvalues --   -1.01950  -0.82845  -0.78026  -0.73814  -0.66677
 Alpha  occ. eigenvalues --   -0.63503  -0.59578  -0.51503  -0.51334  -0.49642
 Alpha  occ. eigenvalues --   -0.48139  -0.45681  -0.44250  -0.42709  -0.40260
 Alpha  occ. eigenvalues --   -0.39002  -0.38203  -0.36470  -0.34484  -0.33175
 Alpha  occ. eigenvalues --   -0.28234  -0.27941  -0.27193  -0.26310
 Alpha virt. eigenvalues --   -0.05774   0.03109   0.07367   0.08502   0.09911
 Alpha virt. eigenvalues --    0.11195   0.12182   0.13450   0.13995   0.16494
 Alpha virt. eigenvalues --    0.17245   0.19031   0.19432   0.20390   0.20487

 Mulliken charges:
               1
     1  O   -0.420600
     2  C   -0.081441
     3  C   -0.163596
     4  C   -0.180903
     5  C   -0.369791
     6  C    0.074317
     7  C    0.054911
     8  C    0.022334
     9  O   -0.231999
    10  H    0.287559
    11  H    0.088053
    12  H    0.088084
    13  H    0.108438
    14  H    0.108479
    15  H    0.116397
    16  H    0.116455
    17  H    0.143509
    18  H    0.143392
    19  H    0.096401
 Sum of Mulliken charges =   0.00000

 Dipole moment (field-independent basis, Debye):
    X=              2.7575    Y=              1.1198    Z=             -0.0112  Tot=              2.9762
 Quadrupole moment (field-independent basis, Debye-Ang):
   XX=            -62.6879   YY=            -53.3439   ZZ=            -52.5203
   XY=            -15.9713   XZ=              0.0550   YZ=              0.0122

  Exact polarizability: 127.263   9.330  71.908   0.059  -0.039  55.599
 Approx polarizability: 165.739  30.491 116.298   0.066  -0.093  84.855

                      1                      2                      3
                      A                      A                      A
 Frequencies --     19.1245                49.1838                50.0892
 Red. masses --      2.4215                 6.5830                 3.1271
 Frc consts  --      0.0005                 0.0094                 0.0046
 IR Inten    --     11.0258                 2.7740                 0.1086

                      4                      5                      6
                      A                      A                      A
 Frequencies --     98.1986               129.3673               137.2888
 Red. masses --      2.1147                 2.3491                 5.5822
 Frc consts  --      0.0120                 0.0232                 0.0620
 IR Inten    --      1.1937                 6.0984                 0.4359

                      7                      8                      9
                      A                      A                      A
 Frequencies --    193.1503               228.7001               264.7097
 Red. masses --      2.9388                 5.8958                 1.0791
 Frc consts  --      0.0646                 0.1817                 0.0446
 IR Inten    --      3.1711                 6.9645               107.9335

                     10                     11                     12
                      A                      A                      A
 Frequencies --    317.8298               407.3016               413.9238
 Red. masses --      4.8897                 3.8402                 4.3756
 Frc consts  --      0.2910                 0.3753                 0.4417
 IR Inten    --      0.1112                 0.2192                 2.8913

                     13                     14                     15
                      A                      A                      A
 Frequencies --    500.8304               631.9401               737.7110
 Red. masses --      4.6898                 7.1039                 1.0972
 Frc consts  --      0.6931                 1.6715                 0.3518
 IR Inten    --     14.4986                 0.4631                 2.5152

                     16                     17                     18
                      A                      A                      A
 Frequencies --    792.4729               829.5731               919.1291
 Red. masses --      1.1827                 4.8658                 1.2695
 Frc consts  --      0.4376                 1.9730                 0.6319
 IR Inten    --      0.3834                83.3970                 0.1580

                     19                     20                     21
                      A                      A                      A
 Frequencies --    991.5001              1023.0157              1038.7419
 Red. masses --      3.9915                 1.7684                 3.6818
 Frc consts  --      2.3119                 1.0904                 2.3406
 IR Inten    --      6.5206                 0.8499                57.3308

                     22                     23                     24
                      A                      A                      A
 Frequencies --   1055.0974              1088.3731              1121.9939
 Red. masses --      2.4067                 5.1623                 1.4585
 Frc consts  --      1.5786                 3.6029                 1.0818
 IR Inten    --      2.9285                50.4044                 0.7927

                     25                     26                     27
                      A                      A                      A
 Frequencies --   1157.9897              1203.3205              1224.6154
 Red. masses --      3.7337                 1.3263                 1.1860
 Frc consts  --      2.9499                 1.1315                 1.0479
 IR Inten    --     53.5914                 1.2621                37.1125

                     28                     29                     30
                      A                      A                      A
 Frequencies --   1275.6602              1287.2133              1315.8091
 Red. masses --      1.2376                 1.3116                 1.0849
 Frc consts  --      1.1866                 1.2804                 1.1066
 IR Inten    --      0.1659                 7.0503                 1.1348

                     31                     32                     33
                      A                      A                      A
 Frequencies --   1323.3182              1345.1622              1393.0722
 Red. masses --      1.0924                 1.4460                 1.5579
 Frc consts  --      1.1271                 1.5415                 1.7813
 IR Inten    --      0.2207                38.4098                 0.1794

                     34                     35                     36
                      A                      A                      A
 Frequencies --   1423.4776              1458.4461              1462.2192
 Red. masses --      1.1998                 1.0830                 1.4737
 Frc consts  --      1.4323                 1.3573                 1.8565
 IR Inten    --     20.2825                 1.8177                10.4894

                     37                     38                     39
                      A                      A                      A
 Frequencies --   1489.3988              1503.4073              1528.8200
 Red. masses --      1.0790                 1.0925                 1.0886
 Frc consts  --      1.4102                 1.4549                 1.4990
 IR Inten    --      0.4498                 3.3561                 2.3977

                     40                     41                     42
                      A                      A                      A
 Frequencies --   1766.4412              2328.9932              2913.7150
 Red. masses --     10.5345                11.9333                 1.0814
 Frc consts  --     19.3669                38.1369                 5.4089
 IR Inten    --    244.3800               188.8431               107.4716

                     43                     44                     45
                      A                      A                      A
 Frequencies --   2959.8726              2985.6546              3015.5900
 Red. masses --      1.0542                 1.1058                 1.0583
 Frc consts  --      5.4414                 5.8078                 5.6705
 IR Inten    --     49.9688                49.1056                 4.1422

                     46                     47                     48
                      A                      A                      A
 Frequencies --   3026.2295              3040.3727              3043.2658
 Red. masses --      1.0583                 1.0591                 1.0994
 Frc consts  --      5.7105                 5.7684                 5.9992
 IR Inten    --      9.6288                41.5982                 2.1741

                     49                     50                     51
                      A                      A                      A
 Frequencies --   3061.7524              3088.1740              3831.9199
 Red. masses --      1.1034                 1.1056                 1.0664
 Frc consts  --      6.0943                 6.2122                 9.2256
 IR Inten    --      4.1229                56.2161                22.1724

 - Thermochemistry -
 -------------------
 Temperature   298.150 Kelvin.  Pressure   1.00000 Atm.
 Atom     1 has atomic number  8 and mass  15.99491

 Molecular mass:   126.06808 amu.
 Principal axes and moments of inertia in atomic units:
                           1         2         3
     Eigenvalues --   273.418884501.521804730.36165
           X            0.99994  -0.01086   0.00004
           Y            0.01086   0.99994   0.00011
           Z           -0.00004  -0.00011   1.00000
 This molecule is an asymmetric top.
 Rotational symmetry number  1.
 Rotational temperatures (Kelvin)      0.31678     0.01924     0.01831
 Rotational constants (GHZ):           6.60065     0.40092     0.38152
 Zero-point vibrational energy     409680.1 (Joules/Mol)
                                   97.91588 (Kcal/Mol)
 Warning -- explicit consideration of  13 degrees of freedom as
           vibrations may cause significant error
 Vibrational temperatures:     27.52    70.76    72.07   141.29   186.13
          (Kelvin)            197.53   277.90   329.05   380.86   457.29
                              586.02   595.54   720.58   909.22  1061.40
                             1140.19  1193.57  1322.42  1426.55  1471.89
                             1494.52  1518.05  1565.92  1614.30  1666.09
                             1731.31  1761.95  1835.39  1852.01  1893.15
                             1903.96  1935.39  2004.32  2048.06  2098.38
                             2103.80  2142.91  2163.07  2199.63  2541.51
                             3350.90  4192.18  4258.59  4295.69  4338.76
                             4354.06  4374.41  4378.58  4405.17  4443.19
                             5513.27

 Zero-point correction=                           0.156039 (Hartree/Particle)
 Thermal correction to Energy=                    0.167075
 Thermal correction to Enthalpy=                  0.168020
 Thermal correction to Gibbs Free Energy=         0.116810
 Sum of electronic and zero-point Energies=           -423.002431
 Sum of electronic and thermal Energies=              -422.991394
 Sum of electronic and thermal Enthalpies=            -422.990450
 Sum of electronic and thermal Free Energies=         -423.041659

                     E (Thermal)             CV                S
                      KCal/Mol        Cal/Mol-Kelvin    Cal/Mol-Kelvin
 Total                  104.841             36.250            107.779
 Electronic               0.000              0.000              0.000
 Translational            0.889              2.981             40.409
 Rotational               0.889              2.981             30.144
 Vibrational            103.064             30.288             37.226
 Vibration     1          0.593              1.986              6.723
 Vibration     2          0.595              1.978              4.850
 Vibration     3          0.595              1.978              4.814
 Vibration     4          0.604              1.950              3.490
 Vibration     5          0.612              1.924              2.955
 Vibration     6          0.614              1.916              2.841
 Vibration     7          0.635              1.849              2.197
 Vibration     8          0.651              1.797              1.889
 Vibration     9          0.671              1.738              1.631
 Vibration    10          0.704              1.640              1.321
 Vibration    11          0.772              1.454              0.936
 Vibration    12          0.778              1.440              0.913
 Vibration    13          0.856              1.248              0.656

 Normal termination of Gaussian 09 at Tue Jan 28 14:57:06 2020.
