 Gaussian 09, Revision D.01,
 Gaussian 09:  ES64L-G09RevD.01 24-Apr-2013

 -----------------------------
 # b3lyp 6-31G(2df,p) opt Freq
 -----------------------------

 -----
 titel
 -----
 Symbolic Z-matrix:
 Charge =  0 Multiplicity = 1

 SCF Done:  E(RB3LYP) =  -423.181119189     A.U. after   14 cycles
 Optimization completed.
    -- Stationary point found.
 Normal termination of Gaussian 09 at Tue Jan 28 03:55:49 2020.

 ----------------------------------------------------------------------
 #N Geom=AllCheck Guess=TCheck SCRF=Check GenChk RB3LYP/6-31G(2df,p) Fr
 eq
 ----------------------------------------------------------------------

 Structure from the checkpoint file:  "/scratch/puck/g09_f0bb1b02-fc8b-4cea-8977-b76fec6281fe/Gau-192754.chk"
 -----
 titel
 -----
 Charge =  0 Multiplicity = 1

                         Standard orientation:
 ---------------------------------------------------------------------
 Center     Atomic      Atomic             Coordinates (Angstroms)
 Number     Number       Type             X           Y           Z
 ---------------------------------------------------------------------
      1          8           0        1.259797   -1.443458   -0.920338
      2          6           0        1.327775   -0.810487    0.349957
      3          6           0        1.940794    0.600374    0.254007
      4          6           0        0.952869    1.639255   -0.206479
      5          6           0       -0.367004    1.443863   -0.224291
      6          6           0       -0.971747    0.164704    0.221233
      7          6           0       -2.429810    0.017387    0.324925
      8          8           0       -1.755147   -0.506723   -0.815737
      9          6           0       -0.053174   -0.743320    1.016285
     10          1           0        0.467388   -1.136946   -1.375261
     11          1           0        1.993624   -1.441568    0.948236
     12          1           0        2.356255    0.893815    1.229832
     13          1           0        2.790541    0.559602   -0.436682
     14          1           0        1.356489    2.590639   -0.544861
     15          1           0       -1.042599    2.205786   -0.602212
     16          1           0       -2.843287   -0.724030    1.008739
     17          1           0       -3.074006    0.875308    0.132606
     18          1           0        0.050859   -0.348289    2.034666
     19          1           0       -0.490692   -1.743528    1.079720
 ---------------------------------------------------------------------

 SCF Done:  E(RB3LYP) =  -423.181119189     A.U. after    1 cycles

 The electronic state is 1-A.
 Alpha  occ. eigenvalues --  -19.15331 -19.12488 -10.24761 -10.23768 -10.23244
 Alpha  occ. eigenvalues --  -10.19380 -10.18826 -10.18776 -10.18653  -1.06944
 Alpha  occ. eigenvalues --   -1.00959  -0.82672  -0.74806  -0.73244  -0.66561
 Alpha  occ. eigenvalues --   -0.61802  -0.60614  -0.53174  -0.50931  -0.48265
 Alpha  occ. eigenvalues --   -0.46860  -0.45555  -0.43862  -0.42305  -0.41080
 Alpha  occ. eigenvalues --   -0.39478  -0.38090  -0.35422  -0.34309  -0.33500
 Alpha  occ. eigenvalues --   -0.30077  -0.27608  -0.26037  -0.24772
 Alpha virt. eigenvalues --    0.00184   0.08296   0.09613   0.10456   0.12307
 Alpha virt. eigenvalues --    0.13259   0.13925   0.15500   0.16278   0.16795
 Alpha virt. eigenvalues --    0.16933   0.18265   0.18787   0.20305   0.22852

 Mulliken charges:
               1
     1  O   -0.445999
     2  C    0.114260
     3  C   -0.276318
     4  C   -0.067236
     5  C   -0.102036
     6  C    0.376051
     7  C   -0.244026
     8  O   -0.287789
     9  C   -0.310733
    10  H    0.300414
    11  H    0.080349
    12  H    0.107170
    13  H    0.120095
    14  H    0.096356
    15  H    0.091621
    16  H    0.113999
    17  H    0.114261
    18  H    0.105875
    19  H    0.113685
 Sum of Mulliken charges =   0.00000

 Dipole moment (field-independent basis, Debye):
    X=             -0.4911    Y=              1.8057    Z=              2.0778  Tot=              2.7963
 Quadrupole moment (field-independent basis, Debye-Ang):
   XX=            -51.1388   YY=            -54.3905   ZZ=            -53.8152
   XY=              1.4492   XZ=             -0.4401   YZ=             -3.4853

  Exact polarizability:  99.413   3.780  72.280   0.821  -4.770  60.367
 Approx polarizability: 144.913   8.116 103.601   3.938  -0.448  97.324

                      1                      2                      3
                      A                      A                      A
 Frequencies --     65.7948               147.1988               246.2684
 Red. masses --      3.2880                 4.5583                 1.1641
 Frc consts  --      0.0084                 0.0582                 0.0416
 IR Inten    --      3.8971                 1.7698                62.5629

                      4                      5                      6
                      A                      A                      A
 Frequencies --    269.0123               313.6755               343.5229
 Red. masses --      2.8900                 2.5571                 3.4985
 Frc consts  --      0.1232                 0.1482                 0.2432
 IR Inten    --     12.7247                 5.2351                 3.1822

                      7                      8                      9
                      A                      A                      A
 Frequencies --    365.4551               402.1818               483.2356
 Red. masses --      3.6615                 2.0357                 2.9602
 Frc consts  --      0.2881                 0.1940                 0.4073
 IR Inten    --      1.5337                 2.9292                 4.9030

                     10                     11                     12
                      A                      A                      A
 Frequencies --    523.6826               614.5627               681.7091
 Red. masses --      2.6208                 4.3489                 5.2375
 Frc consts  --      0.4235                 0.9677                 1.4341
 IR Inten    --     13.6378                 2.4442                 5.0728

                     13                     14                     15
                      A                      A                      A
 Frequencies --    730.0036               779.1565               814.9178
 Red. masses --      1.9626                 2.7481                 3.1507
 Frc consts  --      0.6162                 0.9830                 1.2328
 IR Inten    --     11.2426                20.2579                14.0074

                     16                     17                     18
                      A                      A                      A
 Frequencies --    883.2480               914.8871               926.3868
 Red. masses --      2.2553                 1.6818                 2.1295
 Frc consts  --      1.0366                 0.8294                 1.0767
 IR Inten    --      2.2667                 1.9069                 8.5985

                     19                     20                     21
                      A                      A                      A
 Frequencies --    952.7905               972.9461               997.7098
 Red. masses --      2.3781                 2.2728                 3.5062
 Frc consts  --      1.2720                 1.2676                 2.0564
 IR Inten    --      4.5295                 9.1495                41.8697

                     22                     23                     24
                      A                      A                      A
 Frequencies --   1003.5622              1065.1029              1087.0959
 Red. masses --      1.4220                 1.8548                 2.2042
 Frc consts  --      0.8438                 1.2397                 1.5348
 IR Inten    --     11.0081                14.5147                50.7868

                     25                     26                     27
                      A                      A                      A
 Frequencies --   1129.5235              1152.1888              1166.1424
 Red. masses --      1.2669                 1.1951                 1.3210
 Frc consts  --      0.9523                 0.9348                 1.0584
 IR Inten    --      3.2560                 2.7290                 1.5077

                     28                     29                     30
                      A                      A                      A
 Frequencies --   1209.6760              1229.5186              1282.1138
 Red. masses --      1.1059                 1.1304                 1.7602
 Frc consts  --      0.9535                 1.0068                 1.7048
 IR Inten    --      5.7820                34.1325                 3.3302

                     31                     32                     33
                      A                      A                      A
 Frequencies --   1300.3089              1337.2690              1345.9563
 Red. masses --      1.8074                 1.6956                 1.7766
 Frc consts  --      1.8005                 1.7865                 1.8962
 IR Inten    --      4.8673                 7.7290                12.0731

                     34                     35                     36
                      A                      A                      A
 Frequencies --   1380.5221              1390.4628              1437.0536
 Red. masses --      1.5235                 2.1321                 1.2095
 Frc consts  --      1.7107                 2.4287                 1.4717
 IR Inten    --      2.6615                 3.5143                51.6648

                     37                     38                     39
                      A                      A                      A
 Frequencies --   1444.7898              1455.3886              1468.1105
 Red. masses --      1.5226                 1.1897                 1.1461
 Frc consts  --      1.8726                 1.4847                 1.4554
 IR Inten    --      6.5918                 3.0530                14.8605

                     40                     41                     42
                      A                      A                      A
 Frequencies --   1526.0745              1711.6276              2999.2874
 Red. masses --      1.2890                 6.8629                 1.0695
 Frc consts  --      1.7687                11.8462                 5.6683
 IR Inten    --      1.2978                 3.9275                21.6026

                     43                     44                     45
                      A                      A                      A
 Frequencies --   3032.0111              3052.9989              3063.5674
 Red. masses --      1.0652                 1.0853                 1.0905
 Frc consts  --      5.7695                 5.9601                 6.0299
 IR Inten    --     10.6261                56.7681                15.5398

                     46                     47                     48
                      A                      A                      A
 Frequencies --   3072.8188              3097.3691              3150.3275
 Red. masses --      1.0505                 1.0994                 1.0850
 Frc consts  --      5.8441                 6.2144                 6.3441
 IR Inten    --     33.8836                15.7139                 9.5573

                     49                     50                     51
                      A                      A                      A
 Frequencies --   3157.8643              3176.1093              3808.1503
 Red. masses --      1.1188                 1.0966                 1.0661
 Frc consts  --      6.5736                 6.5178                 9.1087
 IR Inten    --     17.7922                24.2125                29.1440

 - Thermochemistry -
 -------------------
 Temperature   298.150 Kelvin.  Pressure   1.00000 Atm.
 Atom     1 has atomic number  8 and mass  15.99491

 Molecular mass:   126.06808 amu.
 Principal axes and moments of inertia in atomic units:
                           1         2         3
     Eigenvalues --   670.569281168.742431460.76147
           X            0.99992   0.01171  -0.00422
           Y           -0.01194   0.99819  -0.05887
           Z            0.00352   0.05892   0.99826
 This molecule is an asymmetric top.
 Rotational symmetry number  1.
 Warning -- assumption of classical behavior for rotation
           may cause significant error
 Rotational temperatures (Kelvin)      0.12916     0.07411     0.05929
 Rotational constants (GHZ):           2.69136     1.54417     1.23548
 Zero-point vibrational energy     419658.0 (Joules/Mol)
                                  100.30067 (Kcal/Mol)
 Warning -- explicit consideration of  11 degrees of freedom as
           vibrations may cause significant error
 Vibrational temperatures:     94.66   211.79   354.32   387.05   451.31
          (Kelvin)            494.25   525.81   578.65   695.27   753.46
                              884.22   980.83  1050.31  1121.03  1172.48
                             1270.80  1316.32  1332.86  1370.85  1399.85
                             1435.48  1443.90  1532.44  1564.09  1625.13
                             1657.74  1677.82  1740.45  1769.00  1844.67
                             1870.85  1924.03  1936.53  1986.26  2000.56
                             2067.60  2078.73  2093.98  2112.28  2195.68
                             2462.65  4315.30  4362.38  4392.58  4407.78
                             4421.10  4456.42  4532.61  4543.46  4569.71
                             5479.07

 Zero-point correction=                           0.159839 (Hartree/Particle)
 Thermal correction to Energy=                    0.168026
 Thermal correction to Enthalpy=                  0.168970
 Thermal correction to Gibbs Free Energy=         0.127152
 Sum of electronic and zero-point Energies=           -423.021280
 Sum of electronic and thermal Energies=              -423.013093
 Sum of electronic and thermal Enthalpies=            -423.012149
 Sum of electronic and thermal Free Energies=         -423.053967

                     E (Thermal)             CV                S
                      KCal/Mol        Cal/Mol-Kelvin    Cal/Mol-Kelvin
 Total                  105.438             32.033             88.013
 Electronic               0.000              0.000              0.000
 Translational            0.889              2.981             40.409
 Rotational               0.889              2.981             28.528
 Vibrational            103.661             26.071             19.077
 Vibration     1          0.597              1.971              4.275
 Vibration     2          0.617              1.906              2.708
 Vibration     3          0.661              1.769              1.757
 Vibration     4          0.673              1.730              1.603
 Vibration     5          0.702              1.648              1.343
 Vibration     6          0.722              1.588              1.196
 Vibration     7          0.739              1.543              1.099
 Vibration     8          0.768              1.465              0.955
 Vibration     9          0.839              1.287              0.701
 Vibration    10          0.879              1.198              0.601
 Vibration    11          0.974              1.001              0.425

 Optimization completed.
    -- Stationary point found.
 Normal termination of Gaussian 09 at Tue Jan 28 04:43:49 2020.
