 Gaussian 09, Revision D.01,
 Gaussian 09:  ES64L-G09RevD.01 24-Apr-2013

 -----------------------------
 # b3lyp 6-31G(2df,p) opt Freq
 -----------------------------

 -----
 titel
 -----
 Symbolic Z-matrix:
 Charge =  0 Multiplicity = 1

 SCF Done:  E(RB3LYP) =  -423.202156384     A.U. after   14 cycles
 Optimization completed.
    -- Stationary point found.
 Normal termination of Gaussian 09 at Tue Jan 28 12:40:14 2020.

 ----------------------------------------------------------------------
 #N Geom=AllCheck Guess=TCheck SCRF=Check GenChk RB3LYP/6-31G(2df,p) Fr
 eq
 ----------------------------------------------------------------------

 Structure from the checkpoint file:  "/scratch/puck/g09_f0729909-bdd2-4477-9270-402c5d5c6e4a/Gau-106576.chk"
 -----
 titel
 -----
 Charge =  0 Multiplicity = 1

                         Standard orientation:
 ---------------------------------------------------------------------
 Center     Atomic      Atomic             Coordinates (Angstroms)
 Number     Number       Type             X           Y           Z
 ---------------------------------------------------------------------
      1          6           0       -2.709195   -1.087644    0.084891
      2          6           0       -1.227025   -1.232765   -0.276248
      3          6           0       -0.347111   -0.237502    0.480311
      4          6           0       -0.439117    1.228151    0.034707
      5          8           0       -1.270502    2.073099   -0.066002
      6          8           0        0.893043    1.319957   -0.294748
      7          6           0        1.114521   -0.067223    0.073686
      8          6           0        2.389367   -0.495607    0.703525
      9          6           0        2.033778   -0.927098   -0.717137
     10          1           0       -2.878201   -1.293523    1.147482
     11          1           0       -3.060295   -0.072172   -0.118265
     12          1           0       -3.321285   -1.786151   -0.492740
     13          1           0       -0.881425   -2.249536   -0.050938
     14          1           0       -1.086746   -1.089673   -1.354007
     15          1           0       -0.487592   -0.336455    1.561988
     16          1           0        3.164719    0.254043    0.816144
     17          1           0        2.350567   -1.234473    1.497250
     18          1           0        2.576216   -0.458199   -1.530589
     19          1           0        1.752415   -1.960175   -0.892731
 ---------------------------------------------------------------------

 SCF Done:  E(RB3LYP) =  -423.202156384     A.U. after    1 cycles

 The electronic state is 1-A.
 Alpha  occ. eigenvalues --  -19.18060 -19.13367 -10.30576 -10.26095 -10.21330
 Alpha  occ. eigenvalues --  -10.20280 -10.20245 -10.20095 -10.18062  -1.10637
 Alpha  occ. eigenvalues --   -1.03253  -0.86911  -0.80770  -0.72414  -0.62914
 Alpha  occ. eigenvalues --   -0.61702  -0.60181  -0.53358  -0.52346  -0.49808
 Alpha  occ. eigenvalues --   -0.47576  -0.45425  -0.44239  -0.42365  -0.40710
 Alpha  occ. eigenvalues --   -0.39076  -0.38059  -0.36185  -0.35744  -0.34843
 Alpha  occ. eigenvalues --   -0.33970  -0.31041  -0.27278  -0.26898
 Alpha virt. eigenvalues --    0.01054   0.07464   0.08473   0.10148   0.10330
 Alpha virt. eigenvalues --    0.13099   0.13876   0.14590   0.15440   0.15726
 Alpha virt. eigenvalues --    0.17698   0.18558   0.19649   0.21307   0.21343

 Mulliken charges:
               1
     1  C   -0.387972
     2  C   -0.199246
     3  C   -0.291571
     4  C    0.459253
     5  O   -0.330099
     6  O   -0.268115
     7  C    0.452064
     8  C   -0.336157
     9  C   -0.332676
    10  H    0.116400
    11  H    0.151313
    12  H    0.116264
    13  H    0.102626
    14  H    0.112488
    15  H    0.112488
    16  H    0.136436
    17  H    0.124312
    18  H    0.136928
    19  H    0.125263
 Sum of Mulliken charges =   0.00000

 Dipole moment (field-independent basis, Debye):
    X=              1.3015    Y=             -3.6775    Z=              0.6817  Tot=              3.9601
 Quadrupole moment (field-independent basis, Debye-Ang):
   XX=            -53.0659   YY=            -59.2573   ZZ=            -51.2422
   XY=              3.0906   XZ=              0.2129   YZ=              0.7194

  Exact polarizability:  89.980  -4.205  74.141  -0.016   0.232  63.785
 Approx polarizability: 118.734 -10.860 110.902  -0.413  -1.106  97.768

                      1                      2                      3
                      A                      A                      A
 Frequencies --     93.3578               107.9794               137.9550
 Red. masses --      3.8479                 2.8058                 2.8997
 Frc consts  --      0.0198                 0.0193                 0.0325
 IR Inten    --      0.3799                 0.6878                 0.7145

                      4                      5                      6
                      A                      A                      A
 Frequencies --    185.5276               236.5719               259.5593
 Red. masses --      1.8533                 3.0489                 1.3534
 Frc consts  --      0.0376                 0.1005                 0.0537
 IR Inten    --      1.8546                 1.3477                 0.0479

                      7                      8                      9
                      A                      A                      A
 Frequencies --    324.0021               363.6418               481.6525
 Red. masses --      2.6234                 3.3862                 3.8939
 Frc consts  --      0.1623                 0.2638                 0.5322
 IR Inten    --      2.5905                 0.5671                 1.0122

                     10                     11                     12
                      A                      A                      A
 Frequencies --    522.0147               552.2167               699.2148
 Red. masses --      5.5721                 3.6234                 3.6129
 Frc consts  --      0.8946                 0.6510                 1.0407
 IR Inten    --      6.6832                 2.2346                 3.6300

                     13                     14                     15
                      A                      A                      A
 Frequencies --    760.7230               779.4239               814.1498
 Red. masses --      1.0582                 1.5396                 3.1876
 Frc consts  --      0.3608                 0.5511                 1.2449
 IR Inten    --      0.5325                 5.8972                 9.8100

                     16                     17                     18
                      A                      A                      A
 Frequencies --    863.9695               875.9940               907.8408
 Red. masses --      2.2984                 2.5292                 1.3319
 Frc consts  --      1.0108                 1.1435                 0.6468
 IR Inten    --     21.5847                33.3804                 2.3914

                     19                     20                     21
                      A                      A                      A
 Frequencies --    960.3987               981.3912               995.7713
 Red. masses --      2.6461                 2.2111                 3.2191
 Frc consts  --      1.4380                 1.2547                 1.8806
 IR Inten    --      9.1530                 5.3603                 7.6411

                     22                     23                     24
                      A                      A                      A
 Frequencies --   1052.6460              1075.1237              1079.5242
 Red. masses --      1.3870                 2.3612                 1.6298
 Frc consts  --      0.9055                 1.6081                 1.1190
 IR Inten    --     18.9413                43.4809                19.2642

                     25                     26                     27
                      A                      A                      A
 Frequencies --   1086.1648              1108.7429              1155.2484
 Red. masses --      2.5979                 1.8251                 2.5648
 Frc consts  --      1.8058                 1.3219                 2.0167
 IR Inten    --     79.3354                34.3685                 3.8875

                     28                     29                     30
                      A                      A                      A
 Frequencies --   1185.3161              1214.2256              1266.8848
 Red. masses --      1.2666                 1.5370                 2.1177
 Frc consts  --      1.0485                 1.3352                 2.0026
 IR Inten    --      0.2304                 1.1674                48.4060

                     31                     32                     33
                      A                      A                      A
 Frequencies --   1277.6429              1339.4733              1367.3014
 Red. masses --      1.5914                 1.4024                 1.5594
 Frc consts  --      1.5305                 1.4825                 1.7177
 IR Inten    --     16.5079                 4.3481                13.4712

                     34                     35                     36
                      A                      A                      A
 Frequencies --   1399.0541              1417.4326              1451.2140
 Red. masses --      1.9752                 1.2292                 1.0900
 Frc consts  --      2.2779                 1.4550                 1.3525
 IR Inten    --     16.7074                 1.2460                 2.3976

                     37                     38                     39
                      A                      A                      A
 Frequencies --   1491.3988              1499.3251              1505.9688
 Red. masses --      1.0620                 1.0462                 1.8193
 Frc consts  --      1.3917                 1.3856                 2.4311
 IR Inten    --      1.2185                 4.5950                32.4437

                     40                     41                     42
                      A                      A                      A
 Frequencies --   1511.5044              1931.5643              3026.2515
 Red. masses --      1.0818                12.8723                 1.0607
 Frc consts  --      1.4562                28.2959                 5.7232
 IR Inten    --      3.9796               406.5068                21.5555

                     43                     44                     45
                      A                      A                      A
 Frequencies --   3038.8611              3054.1749              3070.2918
 Red. masses --      1.0371                 1.0901                 1.0942
 Frc consts  --      5.6430                 5.9912                 6.0770
 IR Inten    --     23.0253                 4.7760                16.8465

                     46                     47                     48
                      A                      A                      A
 Frequencies --   3106.7558              3124.4139              3133.1058
 Red. masses --      1.1007                 1.1023                 1.0516
 Frc consts  --      6.2592                 6.3397                 6.0819
 IR Inten    --     33.3390                15.9051                 9.3266

                     49                     50                     51
                      A                      A                      A
 Frequencies --   3135.4114              3216.6380              3229.6420
 Red. masses --      1.0574                 1.1182                 1.1153
 Frc consts  --      6.1248                 6.8166                 6.8541
 IR Inten    --      3.8404                 0.2448                 5.3847

 - Thermochemistry -
 -------------------
 Temperature   298.150 Kelvin.  Pressure   1.00000 Atm.
 Atom     1 has atomic number  6 and mass  12.00000

 Molecular mass:   126.06808 amu.
 Principal axes and moments of inertia in atomic units:
                           1         2         3
     Eigenvalues --   737.287901313.192781840.52075
           X            0.99916   0.04086   0.00029
           Y           -0.04087   0.99913   0.00826
           Z            0.00005  -0.00827   0.99997
 This molecule is an asymmetric top.
 Rotational symmetry number  1.
 Warning -- assumption of classical behavior for rotation
           may cause significant error
 Rotational temperatures (Kelvin)      0.11748     0.06596     0.04706
 Rotational constants (GHZ):           2.44781     1.37432     0.98056
 Zero-point vibrational energy     415431.1 (Joules/Mol)
                                   99.29042 (Kcal/Mol)
 Warning -- explicit consideration of  11 degrees of freedom as
           vibrations may cause significant error
 Vibrational temperatures:    134.32   155.36   198.49   266.93   340.37
          (Kelvin)            373.45   466.17   523.20   692.99   751.06
                              794.52  1006.01  1094.51  1121.42  1171.38
                             1243.06  1260.36  1306.18  1381.80  1412.00
                             1432.69  1514.52  1546.86  1553.19  1562.75
                             1595.23  1662.14  1705.40  1747.00  1822.76
                             1838.24  1927.20  1967.24  2012.92  2039.37
                             2087.97  2145.79  2157.19  2166.75  2174.71
                             2779.09  4354.10  4372.24  4394.27  4417.46
                             4469.92  4495.33  4507.83  4511.15  4628.02
                             4646.73

 Zero-point correction=                           0.158229 (Hartree/Particle)
 Thermal correction to Energy=                    0.167056
 Thermal correction to Enthalpy=                  0.168000
 Thermal correction to Gibbs Free Energy=         0.124519
 Sum of electronic and zero-point Energies=           -423.043927
 Sum of electronic and thermal Energies=              -423.035100
 Sum of electronic and thermal Enthalpies=            -423.034156
 Sum of electronic and thermal Free Energies=         -423.077637

                     E (Thermal)             CV                S
                      KCal/Mol        Cal/Mol-Kelvin    Cal/Mol-Kelvin
 Total                  104.829             32.920             91.513
 Electronic               0.000              0.000              0.000
 Translational            0.889              2.981             40.409
 Rotational               0.889              2.981             28.968
 Vibrational            103.052             26.958             22.137
 Vibration     1          0.602              1.954              3.588
 Vibration     2          0.606              1.943              3.305
 Vibration     3          0.614              1.915              2.832
 Vibration     4          0.632              1.860              2.272
 Vibration     5          0.655              1.785              1.829
 Vibration     6          0.668              1.747              1.665
 Vibration     7          0.709              1.627              1.290
 Vibration     8          0.737              1.547              1.106
 Vibration     9          0.838              1.291              0.706
 Vibration    10          0.877              1.201              0.605
 Vibration    11          0.908              1.135              0.540

 Optimization completed.
    -- Stationary point found.
 Normal termination of Gaussian 09 at Tue Jan 28 13:20:48 2020.
