 Gaussian 09, Revision D.01,
 Gaussian 09:  ES64L-G09RevD.01 24-Apr-2013

 -----------------------------
 # b3lyp 6-31G(2df,p) opt Freq
 -----------------------------

 -----
 titel
 -----
 Symbolic Z-matrix:
 Charge =  0 Multiplicity = 1

 SCF Done:  E(RB3LYP) =  -423.155764065     A.U. after   14 cycles
 Optimization completed.
    -- Stationary point found.
 Normal termination of Gaussian 09 at Mon Jan 27 14:02:26 2020.

 ----------------------------------------------------------------------
 #N Geom=AllCheck Guess=TCheck SCRF=Check GenChk RB3LYP/6-31G(2df,p) Fr
 eq
 ----------------------------------------------------------------------

 Structure from the checkpoint file:  "/scratch/puck/g09_6b7a918a-5beb-42ce-a6f1-301798f7b98a/Gau-4280.chk"
 -----
 titel
 -----
 Charge =  0 Multiplicity = 1

                         Standard orientation:
 ---------------------------------------------------------------------
 Center     Atomic      Atomic             Coordinates (Angstroms)
 Number     Number       Type             X           Y           Z
 ---------------------------------------------------------------------
      1          6           0        3.241839   -1.876129   -0.176641
      2          6           0        2.271394   -0.810103    0.026036
      3          6           0        1.472581    0.075866    0.194166
      4          6           0        0.497228    1.155571    0.391178
      5          6           0        0.951583    2.467627   -0.248376
      6          8           0       -0.772420    0.842323   -0.179325
      7          6           0       -1.416502   -0.266615    0.398256
      8          6           0       -2.713246   -0.499198   -0.354168
      9          8           0       -3.558455   -1.278732   -0.002697
     10          1           0        3.188183   -2.623790    0.622019
     11          1           0        3.070540   -2.390765   -1.128254
     12          1           0        4.262951   -1.479923   -0.194062
     13          1           0        0.365845    1.312358    1.475579
     14          1           0        1.077332    2.334340   -1.325478
     15          1           0        0.200517    3.241795   -0.072144
     16          1           0        1.904402    2.786928    0.180339
     17          1           0       -0.801301   -1.178136    0.325937
     18          1           0       -1.641357   -0.109215    1.465822
     19          1           0       -2.809382    0.115565   -1.276284
 ---------------------------------------------------------------------

 SCF Done:  E(RB3LYP) =  -423.155764065     A.U. after    1 cycles

 The electronic state is 1-A.
 Alpha  occ. eigenvalues --  -19.15480 -19.14081 -10.27204 -10.26335 -10.23874
 Alpha  occ. eigenvalues --  -10.21159 -10.18699 -10.18489 -10.17538  -1.05459
 Alpha  occ. eigenvalues --   -1.04336  -0.80385  -0.77513  -0.71686  -0.69989
 Alpha  occ. eigenvalues --   -0.62862  -0.58337  -0.52557  -0.51142  -0.47164
 Alpha  occ. eigenvalues --   -0.46427  -0.45081  -0.43755  -0.43407  -0.43350
 Alpha  occ. eigenvalues --   -0.40415  -0.39080  -0.38299  -0.36715  -0.34322
 Alpha  occ. eigenvalues --   -0.27678  -0.26591  -0.25886  -0.25353
 Alpha virt. eigenvalues --   -0.02414   0.03544   0.04803   0.09727   0.10399
 Alpha virt. eigenvalues --    0.12497   0.13548   0.14932   0.15527   0.16999
 Alpha virt. eigenvalues --    0.17196   0.17607   0.18117   0.19090   0.20685

 Mulliken charges:
               1
     1  C   -0.498347
     2  C    0.006077
     3  C    0.124201
     4  C   -0.028572
     5  C   -0.392945
     6  O   -0.248762
     7  C   -0.148982
     8  C    0.141909
     9  O   -0.240849
    10  H    0.151960
    11  H    0.154297
    12  H    0.153529
    13  H    0.094047
    14  H    0.135561
    15  H    0.125062
    16  H    0.127014
    17  H    0.131781
    18  H    0.118579
    19  H    0.094440
 Sum of Mulliken charges =   0.00000

 Dipole moment (field-independent basis, Debye):
    X=              3.2696    Y=              0.6124    Z=              0.2870  Tot=              3.3389
 Quadrupole moment (field-independent basis, Debye-Ang):
   XX=            -59.1927   YY=            -51.2166   ZZ=            -52.0960
   XY=             -8.1544   XZ=             -0.0734   YZ=              1.5459

  Exact polarizability:  97.560  -8.910  87.219  -1.816  -0.510  61.494
 Approx polarizability: 128.800 -16.654 125.787  -5.171  -0.202  92.241

                      1                      2                      3
                      A                      A                      A
 Frequencies --     23.2143                43.0677                57.4864
 Red. masses --      1.0160                 4.7081                 2.1826
 Frc consts  --      0.0003                 0.0051                 0.0042
 IR Inten    --      0.0070                 0.4178                 7.9043

                      4                      5                      6
                      A                      A                      A
 Frequencies --     89.9424               129.4659               144.0759
 Red. masses --      3.0000                 3.1705                 3.1465
 Frc consts  --      0.0143                 0.0313                 0.0385
 IR Inten    --      2.8260                 5.2430                 2.9775

                      7                      8                      9
                      A                      A                      A
 Frequencies --    157.7383               233.6826               289.8018
 Red. masses --      3.5427                 1.1171                 3.7114
 Frc consts  --      0.0519                 0.0359                 0.1836
 IR Inten    --      5.7146                 0.9909                 4.1122

                     10                     11                     12
                      A                      A                      A
 Frequencies --    314.7203               362.3189               390.9579
 Red. masses --      3.6718                 3.8318                 5.2531
 Frc consts  --      0.2143                 0.2964                 0.4731
 IR Inten    --      8.5533                 3.0216                 0.8626

                     13                     14                     15
                      A                      A                      A
 Frequencies --    501.2664               575.4556               588.0430
 Red. masses --      4.8149                 4.1565                 4.8056
 Frc consts  --      0.7128                 0.8110                 0.9791
 IR Inten    --      7.7187                10.1659                 4.2819

                     16                     17                     18
                      A                      A                      A
 Frequencies --    722.1214               750.3864               896.7467
 Red. masses --      2.2874                 1.4703                 2.4540
 Frc consts  --      0.7028                 0.4878                 1.1627
 IR Inten    --      3.8627                 3.5452                26.0638

                     19                     20                     21
                      A                      A                      A
 Frequencies --   1002.4896              1044.6272              1051.5542
 Red. masses --      2.1956                 2.8936                 1.4357
 Frc consts  --      1.3000                 1.8604                 0.9354
 IR Inten    --      8.7402                52.3211                 0.4084

                     22                     23                     24
                      A                      A                      A
 Frequencies --   1054.6223              1091.2764              1116.2615
 Red. masses --      1.4046                 2.6205                 1.8278
 Frc consts  --      0.9204                 1.8387                 1.3419
 IR Inten    --      1.3889                 2.5798                 2.2861

                     25                     26                     27
                      A                      A                      A
 Frequencies --   1124.9804              1149.3148              1190.5729
 Red. masses --      2.5544                 7.0309                 2.5387
 Frc consts  --      1.9047                 5.4719                 2.1202
 IR Inten    --     13.6760               206.2488                16.5504

                     28                     29                     30
                      A                      A                      A
 Frequencies --   1236.3383              1326.7653              1353.5478
 Red. masses --      1.1204                 1.2057                 1.4704
 Frc consts  --      1.0091                 1.2505                 1.5872
 IR Inten    --      6.3568                19.6584                42.6878

                     31                     32                     33
                      A                      A                      A
 Frequencies --   1374.1506              1400.3603              1413.3210
 Red. masses --      1.2407                 1.2455                 1.3105
 Frc consts  --      1.3803                 1.4391                 1.5423
 IR Inten    --     17.0436                 6.9352                 7.6225

                     34                     35                     36
                      A                      A                      A
 Frequencies --   1415.1617              1476.3550              1478.0752
 Red. masses --      1.2590                 1.0397                 1.0398
 Frc consts  --      1.4855                 1.3351                 1.3384
 IR Inten    --      0.4292                 6.5265                 6.3706

                     37                     38                     39
                      A                      A                      A
 Frequencies --   1480.7961              1482.6596              1494.2587
 Red. masses --      1.0714                 1.0576                 1.0528
 Frc consts  --      1.3841                 1.3698                 1.3850
 IR Inten    --     12.3296                 2.8393                 1.9690

                     40                     41                     42
                      A                      A                      A
 Frequencies --   1843.3171              2364.4275              2897.6942
 Red. masses --     10.6462                11.8638                 1.0843
 Frc consts  --     21.3129                39.0776                 5.3642
 IR Inten    --    172.7564                20.6556                83.3713

                     43                     44                     45
                      A                      A                      A
 Frequencies --   2953.8464              2973.5899              3006.4986
 Red. masses --      1.0806                 1.0550                 1.1026
 Frc consts  --      5.5552                 5.4964                 5.8720
 IR Inten    --     37.0586                41.5025                18.3917

                     46                     47                     48
                      A                      A                      A
 Frequencies --   3030.3372              3052.7949              3092.4874
 Red. masses --      1.0347                 1.0336                 1.1004
 Frc consts  --      5.5984                 5.6756                 6.2003
 IR Inten    --     25.4206                14.1649                 8.4103

                     49                     50                     51
                      A                      A                      A
 Frequencies --   3093.1927              3133.5347              3137.3336
 Red. masses --      1.1001                 1.1030                 1.1027
 Frc consts  --      6.2014                 6.3814                 6.3950
 IR Inten    --      7.8884                19.4366                15.2003

 - Thermochemistry -
 -------------------
 Temperature   298.150 Kelvin.  Pressure   1.00000 Atm.
 Atom     1 has atomic number  6 and mass  12.00000

 Molecular mass:   126.06808 amu.
 Principal axes and moments of inertia in atomic units:
                           1         2         3
     Eigenvalues --   854.016822226.524052959.43919
           X            0.99951  -0.03127  -0.00325
           Y            0.03127   0.99951  -0.00091
           Z            0.00328   0.00081   0.99999
 This molecule is an asymmetric top.
 Rotational symmetry number  1.
 Warning -- assumption of classical behavior for rotation
           may cause significant error
 Rotational temperatures (Kelvin)      0.10142     0.03890     0.02927
 Rotational constants (GHZ):           2.11324     0.81056     0.60983
 Zero-point vibrational energy     404379.9 (Joules/Mol)
                                   96.64911 (Kcal/Mol)
 Warning -- explicit consideration of  15 degrees of freedom as
           vibrations may cause significant error
 Vibrational temperatures:     33.40    61.96    82.71   129.41   186.27
          (Kelvin)            207.29   226.95   336.22   416.96   452.81
                              521.30   562.50   721.21   827.95   846.06
                             1038.97  1079.64  1290.22  1442.36  1502.98
                             1512.95  1517.36  1570.10  1606.05  1618.59
                             1653.61  1712.97  1778.81  1908.92  1947.45
                             1977.09  2014.80  2033.45  2036.10  2124.14
                             2126.62  2130.53  2133.21  2149.90  2652.12
                             3401.88  4169.13  4249.92  4278.33  4325.68
                             4359.97  4392.29  4449.39  4450.41  4508.45
                             4513.92

 Zero-point correction=                           0.154020 (Hartree/Particle)
 Thermal correction to Energy=                    0.165287
 Thermal correction to Enthalpy=                  0.166231
 Thermal correction to Gibbs Free Energy=         0.114759
 Sum of electronic and zero-point Energies=           -423.001744
 Sum of electronic and thermal Energies=              -422.990477
 Sum of electronic and thermal Enthalpies=            -422.989533
 Sum of electronic and thermal Free Energies=         -423.041005

                     E (Thermal)             CV                S
                      KCal/Mol        Cal/Mol-Kelvin    Cal/Mol-Kelvin
 Total                  103.719             37.073            108.333
 Electronic               0.000              0.000              0.000
 Translational            0.889              2.981             40.409
 Rotational               0.889              2.981             30.110
 Vibrational            101.942             31.111             37.814
 Vibration     1          0.593              1.985              6.338
 Vibration     2          0.595              1.980              5.113
 Vibration     3          0.596              1.975              4.542
 Vibration     4          0.602              1.956              3.661
 Vibration     5          0.612              1.924              2.954
 Vibration     6          0.616              1.909              2.749
 Vibration     7          0.621              1.894              2.577
 Vibration     8          0.654              1.789              1.850
 Vibration     9          0.686              1.693              1.475
 Vibration    10          0.702              1.646              1.337
 Vibration    11          0.736              1.550              1.112
 Vibration    12          0.759              1.490              0.996
 Vibration    13          0.857              1.247              0.655
 Vibration    14          0.932              1.084              0.494
 Vibration    15          0.945              1.057              0.471

 Optimization completed on the basis of negligible forces.
    -- Stationary point found.
 Normal termination of Gaussian 09 at Mon Jan 27 15:24:57 2020.
