 Gaussian 09, Revision D.01,
 Gaussian 09:  ES64L-G09RevD.01 24-Apr-2013

 -----------------------------
 # b3lyp 6-31G(2df,p) opt Freq
 -----------------------------

 -----
 titel
 -----
 Symbolic Z-matrix:
 Charge =  0 Multiplicity = 1

 SCF Done:  E(RB3LYP) =  -423.134964542     A.U. after   14 cycles
 Optimization completed.
    -- Stationary point found.
 Normal termination of Gaussian 09 at Tue Jan 28 12:09:31 2020.

 ----------------------------------------------------------------------
 #N Geom=AllCheck Guess=TCheck SCRF=Check GenChk RB3LYP/6-31G(2df,p) Fr
 eq
 ----------------------------------------------------------------------

 Structure from the checkpoint file:  "/scratch/puck/g09_1f3bec20-47a1-4297-afdc-33c70c90a92e/Gau-18861.chk"
 -----
 titel
 -----
 Charge =  0 Multiplicity = 1

                         Standard orientation:
 ---------------------------------------------------------------------
 Center     Atomic      Atomic             Coordinates (Angstroms)
 Number     Number       Type             X           Y           Z
 ---------------------------------------------------------------------
      1          6           0        0.601912    2.414282    0.164826
      2          6           0        0.523746    0.935938    0.017451
      3          6           0       -0.486447    0.089491   -0.220303
      4          6           0       -1.940806    0.282337   -0.445699
      5          8           0       -2.647937   -0.548660    0.475669
      6          6           0        0.247114   -1.267431   -0.231662
      7          6           0        1.135545   -1.157442    1.039910
      8          6           0        1.712041   -0.052161    0.106030
      9          8           0        1.446482   -0.949318   -1.022026
     10          1           0        1.215158    2.862166   -0.627861
     11          1           0       -0.386765    2.880672    0.127391
     12          1           0        1.070327    2.693788    1.117102
     13          1           0       -2.211119    1.342481   -0.319807
     14          1           0       -2.195643    0.004400   -1.482750
     15          1           0       -3.573711   -0.558263    0.213577
     16          1           0       -0.280724   -2.169303   -0.537010
     17          1           0        0.667597   -0.865578    1.982106
     18          1           0        1.815378   -2.004787    1.156388
     19          1           0        2.732519    0.328173    0.158400
 ---------------------------------------------------------------------

 SCF Done:  E(RB3LYP) =  -423.134964542     A.U. after    1 cycles

 The electronic state is 1-A.
 Alpha  occ. eigenvalues --  -19.13668 -19.12061 -10.23493 -10.23454 -10.23252
 Alpha  occ. eigenvalues --  -10.18805 -10.18580 -10.18429 -10.17681  -1.03783
 Alpha  occ. eigenvalues --   -1.01573  -0.81429  -0.73623  -0.72600  -0.66446
 Alpha  occ. eigenvalues --   -0.65670  -0.54957  -0.51572  -0.50369  -0.49102
 Alpha  occ. eigenvalues --   -0.46679  -0.43988  -0.42174  -0.41299  -0.40034
 Alpha  occ. eigenvalues --   -0.39478  -0.37143  -0.35578  -0.33087  -0.32147
 Alpha  occ. eigenvalues --   -0.31535  -0.27310  -0.24276  -0.21867
 Alpha virt. eigenvalues --    0.00608   0.08241   0.09838   0.10703   0.12810
 Alpha virt. eigenvalues --    0.13491   0.14529   0.14947   0.15599   0.17015
 Alpha virt. eigenvalues --    0.18196   0.19388   0.19617   0.20438   0.22347

 Mulliken charges:
               1
     1  C   -0.520025
     2  C    0.208074
     3  C    0.285750
     4  C   -0.231499
     5  O   -0.421369
     6  C   -0.019110
     7  C   -0.217721
     8  C   -0.023886
     9  O   -0.290850
    10  H    0.134962
    11  H    0.127103
    12  H    0.130370
    13  H    0.092050
    14  H    0.098292
    15  H    0.287628
    16  H    0.080281
    17  H    0.101426
    18  H    0.104149
    19  H    0.074375
 Sum of Mulliken charges =   0.00000

 Dipole moment (field-independent basis, Debye):
    X=             -1.4237    Y=              1.4106    Z=              0.4694  Tot=              2.0584
 Quadrupole moment (field-independent basis, Debye-Ang):
   XX=            -46.3108   YY=            -51.2898   ZZ=            -56.0125
   XY=              1.8465   XZ=              5.9666   YZ=             -0.7337

  Exact polarizability:  89.525   5.761  83.762   5.158  -0.080  60.975
 Approx polarizability: 129.314  15.623 120.097   5.517   3.626  96.283

                      1                      2                      3
                      A                      A                      A
 Frequencies --     68.7184               126.2452               169.0327
 Red. masses --      3.7323                 3.9990                 1.0782
 Frc consts  --      0.0104                 0.0376                 0.0182
 IR Inten    --      1.7262                 5.0133                 0.2165

                      4                      5                      6
                      A                      A                      A
 Frequencies --    191.4281               218.5027               265.3282
 Red. masses --      2.8309                 1.7739                 1.3533
 Frc consts  --      0.0611                 0.0499                 0.0561
 IR Inten    --      0.6329                26.4868                65.6180

                      7                      8                      9
                      A                      A                      A
 Frequencies --    287.4640               426.3351               501.2989
 Red. masses --      2.8438                 3.5981                 2.5221
 Frc consts  --      0.1385                 0.3853                 0.3734
 IR Inten    --      9.6926                 3.1290                 1.2151

                     10                     11                     12
                      A                      A                      A
 Frequencies --    590.6234               595.1867               670.6738
 Red. masses --      3.8750                 4.9562                 4.9305
 Frc consts  --      0.7964                 1.0344                 1.3067
 IR Inten    --      2.9388                 5.2890                11.0277

                     13                     14                     15
                      A                      A                      A
 Frequencies --    719.1854               823.1020               836.1648
 Red. masses --      3.2384                 3.2920                 2.6667
 Frc consts  --      0.9869                 1.3141                 1.0985
 IR Inten    --     13.8926                 6.1314                30.1562

                     16                     17                     18
                      A                      A                      A
 Frequencies --    857.9039               904.5583               927.0681
 Red. masses --      2.6066                 3.7161                 4.1998
 Frc consts  --      1.1303                 1.7915                 2.1267
 IR Inten    --      1.1019                14.1286                24.6638

                     19                     20                     21
                      A                      A                      A
 Frequencies --    965.2745              1022.0896              1034.3606
 Red. masses --      1.8633                 1.9255                 2.0547
 Frc consts  --      1.0229                 1.1852                 1.2952
 IR Inten    --      5.6201                 9.7228                44.5131

                     22                     23                     24
                      A                      A                      A
 Frequencies --   1049.4490              1056.4218              1077.6088
 Red. masses --      1.6269                 2.0308                 2.1509
 Frc consts  --      1.0557                 1.3354                 1.4716
 IR Inten    --     14.5661                 4.3618                14.9805

                     25                     26                     27
                      A                      A                      A
 Frequencies --   1128.7479              1161.1343              1182.5097
 Red. masses --      1.7130                 1.5156                 2.4572
 Frc consts  --      1.2858                 1.2039                 2.0245
 IR Inten    --      2.4415                 3.9169                22.9659

                     28                     29                     30
                      A                      A                      A
 Frequencies --   1202.7367              1228.5245              1243.5680
 Red. masses --      1.5560                 1.2494                 1.2822
 Frc consts  --      1.3262                 1.1110                 1.1683
 IR Inten    --      5.1235                42.5263                 9.2227

                     31                     32                     33
                      A                      A                      A
 Frequencies --   1259.1997              1268.1484              1294.8298
 Red. masses --      1.5588                 1.2220                 1.4149
 Frc consts  --      1.4562                 1.1579                 1.3977
 IR Inten    --      3.4626                19.9596                 7.8624

                     34                     35                     36
                      A                      A                      A
 Frequencies --   1339.2012              1414.4468              1453.8752
 Red. masses --      2.2850                 1.3230                 1.5099
 Frc consts  --      2.4145                 1.5594                 1.8805
 IR Inten    --      6.4632                 0.9085                23.7517

                     37                     38                     39
                      A                      A                      A
 Frequencies --   1477.3573              1485.0402              1485.7638
 Red. masses --      1.0448                 1.1250                 1.0660
 Frc consts  --      1.3436                 1.4617                 1.3865
 IR Inten    --      5.5034                 1.6216                 5.1358

                     40                     41                     42
                      A                      A                      A
 Frequencies --   1510.3064              1738.7229              2951.5056
 Red. masses --      1.0878                 8.8214                 1.0624
 Frc consts  --      1.4619                15.7126                 5.4527
 IR Inten    --      2.2154                 7.2567                58.2179

                     43                     44                     45
                      A                      A                      A
 Frequencies --   2988.3804              3015.1113              3060.5860
 Red. masses --      1.0967                 1.0379                 1.0985
 Frc consts  --      5.7707                 5.5590                 6.0625
 IR Inten    --     51.8973                33.2683                15.3258

                     46                     47                     48
                      A                      A                      A
 Frequencies --   3064.2278              3103.5156              3121.1072
 Red. masses --      1.0552                 1.0987                 1.0912
 Frc consts  --      5.8376                 6.2348                 6.2629
 IR Inten    --     39.1910                18.4342                50.2153

                     49                     50                     51
                      A                      A                      A
 Frequencies --   3137.3118              3142.0975              3820.4184
 Red. masses --      1.1106                 1.0931                 1.0663
 Frc consts  --      6.4403                 6.3586                 9.1695
 IR Inten    --     27.5134                34.1213                15.5387

 - Thermochemistry -
 -------------------
 Temperature   298.150 Kelvin.  Pressure   1.00000 Atm.
 Atom     1 has atomic number  6 and mass  12.00000

 Molecular mass:   126.06808 amu.
 Principal axes and moments of inertia in atomic units:
                           1         2         3
     Eigenvalues --   780.085161201.665951647.79608
           X            0.99943   0.01355   0.03080
           Y           -0.01315   0.99982  -0.01333
           Z           -0.03097   0.01292   0.99944
 This molecule is an asymmetric top.
 Rotational symmetry number  1.
 Warning -- assumption of classical behavior for rotation
           may cause significant error
 Rotational temperatures (Kelvin)      0.11103     0.07208     0.05256
 Rotational constants (GHZ):           2.31352     1.50187     1.09525
 Zero-point vibrational energy     416673.7 (Joules/Mol)
                                   99.58740 (Kcal/Mol)
 Warning -- explicit consideration of  11 degrees of freedom as
           vibrations may cause significant error
 Vibrational temperatures:     98.87   181.64   243.20   275.42   314.38
          (Kelvin)            381.75   413.60   613.40   721.26   849.77
                              856.34   964.95  1034.75  1184.26  1203.05
                             1234.33  1301.46  1333.84  1388.81  1470.56
                             1488.21  1509.92  1519.95  1550.44  1624.01
                             1670.61  1701.37  1730.47  1767.57  1789.21
                             1811.71  1824.58  1862.97  1926.81  2035.07
                             2091.80  2125.58  2136.64  2137.68  2172.99
                             2501.63  4246.55  4299.61  4338.07  4403.50
                             4408.73  4465.26  4490.57  4513.89  4520.77
                             5496.72

 Zero-point correction=                           0.158703 (Hartree/Particle)
 Thermal correction to Energy=                    0.167390
 Thermal correction to Enthalpy=                  0.168335
 Thermal correction to Gibbs Free Energy=         0.125097
 Sum of electronic and zero-point Energies=           -422.976262
 Sum of electronic and thermal Energies=              -422.967574
 Sum of electronic and thermal Enthalpies=            -422.966630
 Sum of electronic and thermal Free Energies=         -423.009867

                     E (Thermal)             CV                S
                      KCal/Mol        Cal/Mol-Kelvin    Cal/Mol-Kelvin
 Total                  105.039             32.471             91.001
 Electronic               0.000              0.000              0.000
 Translational            0.889              2.981             40.409
 Rotational               0.889              2.981             28.826
 Vibrational            103.262             26.509             21.766
 Vibration     1          0.598              1.969              4.190
 Vibration     2          0.611              1.927              3.002
 Vibration     3          0.625              1.881              2.446
 Vibration     4          0.634              1.852              2.214
 Vibration     5          0.646              1.813              1.971
 Vibration     6          0.671              1.737              1.626
 Vibration     7          0.685              1.697              1.489
 Vibration     8          0.788              1.413              0.871
 Vibration     9          0.857              1.247              0.655
 Vibration    10          0.948              1.052              0.466
 Vibration    11          0.953              1.042              0.458

 Optimization completed.
    -- Stationary point found.
 Normal termination of Gaussian 09 at Tue Jan 28 13:01:19 2020.
