 Gaussian 09, Revision D.01,
 Gaussian 09:  ES64L-G09RevD.01 24-Apr-2013

 -----------------------------
 # b3lyp 6-31G(2df,p) opt Freq
 -----------------------------

 -----
 titel
 -----
 Symbolic Z-matrix:
 Charge =  0 Multiplicity = 1

 SCF Done:  E(RB3LYP) =  -423.134520521     A.U. after   12 cycles
 Optimization completed.
    -- Stationary point found.
 Normal termination of Gaussian 09 at Tue Jan 28 02:51:27 2020.

 ----------------------------------------------------------------------
 #N Geom=AllCheck Guess=TCheck SCRF=Check GenChk RB3LYP/6-31G(2df,p) Fr
 eq
 ----------------------------------------------------------------------

 Structure from the checkpoint file:  "/scratch/puck/g09_e35a895f-65d8-4e37-a521-56d9c952b056/Gau-112813.chk"
 -----
 titel
 -----
 Charge =  0 Multiplicity = 1

                         Standard orientation:
 ---------------------------------------------------------------------
 Center     Atomic      Atomic             Coordinates (Angstroms)
 Number     Number       Type             X           Y           Z
 ---------------------------------------------------------------------
      1          6           0       -2.310032    0.827330    0.000002
      2          6           0       -1.484871   -0.447965    0.000000
      3          8           0       -0.639337   -0.532400   -1.166887
      4          6           0        0.663656   -0.268012   -0.746396
      5          6           0        1.414260   -1.345574   -0.000003
      6          6           0        0.663659   -0.268015    0.746394
      7          6           0        1.382034    1.094607    0.787005
      8          6           0        1.382025    1.094613   -0.787005
      9          8           0       -0.639334   -0.532400    1.166889
     10          1           0       -1.660209    1.707049    0.000013
     11          1           0       -2.945777    0.859962   -0.889263
     12          1           0       -2.945792    0.859950    0.889257
     13          1           0       -2.128256   -1.335149    0.000002
     14          1           0        0.934238   -2.316237   -0.000002
     15          1           0        2.501349   -1.359658   -0.000005
     16          1           0        0.751975    1.879740    1.208079
     17          1           0        2.352753    1.110545    1.290743
     18          1           0        0.751961    1.879747   -1.208067
     19          1           0        2.352739    1.110556   -1.290751
 ---------------------------------------------------------------------

 SCF Done:  E(RB3LYP) =  -423.134520521     A.U. after    1 cycles

 The electronic state is 1-A.
 Alpha  occ. eigenvalues --  -19.15280 -19.15280 -10.28290 -10.22977 -10.22947
 Alpha  occ. eigenvalues --  -10.19541 -10.19525 -10.19525 -10.18073  -1.09093
 Alpha  occ. eigenvalues --   -0.99806  -0.88710  -0.75788  -0.73356  -0.65079
 Alpha  occ. eigenvalues --   -0.63541  -0.58254  -0.56003  -0.49566  -0.49395
 Alpha  occ. eigenvalues --   -0.46753  -0.43671  -0.41756  -0.41290  -0.40253
 Alpha  occ. eigenvalues --   -0.39869  -0.38432  -0.37476  -0.35443  -0.34181
 Alpha  occ. eigenvalues --   -0.34110  -0.27785  -0.25047  -0.22088
 Alpha virt. eigenvalues --    0.07516   0.07791   0.09846   0.12048   0.12700
 Alpha virt. eigenvalues --    0.13189   0.14335   0.15264   0.15940   0.16989
 Alpha virt. eigenvalues --    0.18062   0.18755   0.19156   0.21332   0.22510

 Mulliken charges:
               1
     1  C   -0.391750
     2  C    0.186092
     3  O   -0.302357
     4  C    0.302972
     5  C   -0.378524
     6  C    0.302972
     7  C   -0.288308
     8  C   -0.288308
     9  O   -0.302358
    10  H    0.121413
    11  H    0.128595
    12  H    0.128595
    13  H    0.097285
    14  H    0.129463
    15  H    0.112162
    16  H    0.116436
    17  H    0.104593
    18  H    0.116436
    19  H    0.104592
 Sum of Mulliken charges =   0.00000

 Dipole moment (field-independent basis, Debye):
    X=              0.2370    Y=              0.9466    Z=              0.0000  Tot=              0.9758
 Quadrupole moment (field-independent basis, Debye-Ang):
   XX=            -48.3589   YY=            -51.4014   ZZ=            -58.2747
   XY=             -0.1722   XZ=              0.0000   YZ=              0.0000

  Exact polarizability:  86.138  -0.696  72.320   0.000   0.000  62.566
 Approx polarizability: 114.485   0.088 102.933   0.000   0.000 104.810

                      1                      2                      3
                      A                      A                      A
 Frequencies --     69.2871               183.6045               240.7188
 Red. masses --      3.4438                 2.1067                 1.0285
 Frc consts  --      0.0097                 0.0418                 0.0351
 IR Inten    --      1.7558                 0.0007                 0.0883

                      4                      5                      6
                      A                      A                      A
 Frequencies --    307.8157               329.1384               391.1289
 Red. masses --      2.2540                 3.0144                 4.1562
 Frc consts  --      0.1258                 0.1924                 0.3746
 IR Inten    --      2.8502                 3.8578                 0.2324

                      7                      8                      9
                      A                      A                      A
 Frequencies --    401.5763               498.1450               546.9799
 Red. masses --      2.4607                 2.9741                 4.1862
 Frc consts  --      0.2338                 0.4348                 0.7379
 IR Inten    --      0.6835                13.8940                23.3049

                     10                     11                     12
                      A                      A                      A
 Frequencies --    639.0037               698.8970               756.6341
 Red. masses --      3.3046                 3.7337                 1.2024
 Frc consts  --      0.7950                 1.0745                 0.4056
 IR Inten    --      0.5574                 6.8063                 0.5634

                     13                     14                     15
                      A                      A                      A
 Frequencies --    768.1527               786.2579               844.5235
 Red. masses --      3.0336                 7.5720                 2.5433
 Frc consts  --      1.0546                 2.7580                 1.0687
 IR Inten    --      0.0893                 1.1858                15.1636

                     16                     17                     18
                      A                      A                      A
 Frequencies --    851.7505               853.9410               934.7228
 Red. masses --      2.8413                 3.5059                 1.9713
 Frc consts  --      1.2145                 1.5063                 1.0148
 IR Inten    --     28.6613                 4.0603                 4.6497

                     19                     20                     21
                      A                      A                      A
 Frequencies --    946.2068               957.7714               980.5315
 Red. masses --      2.4426                 2.3201                 2.4884
 Frc consts  --      1.2885                 1.2540                 1.4096
 IR Inten    --      3.9819                17.4646                 1.3073

                     22                     23                     24
                      A                      A                      A
 Frequencies --   1052.7202              1067.2173              1075.5257
 Red. masses --      1.3708                 1.5979                 1.4451
 Frc consts  --      0.8950                 1.0722                 0.9849
 IR Inten    --     15.2311                 5.6458                 8.4674

                     25                     26                     27
                      A                      A                      A
 Frequencies --   1110.1345              1141.4716              1154.9017
 Red. masses --      3.1969                 2.1776                 3.2962
 Frc consts  --      2.3213                 1.6717                 2.5904
 IR Inten    --    128.8370                28.9942                 0.2913

                     28                     29                     30
                      A                      A                      A
 Frequencies --   1198.0711              1232.8978              1235.2312
 Red. masses --      1.4596                 1.3530                 1.2913
 Frc consts  --      1.2344                 1.2117                 1.1608
 IR Inten    --      0.7533                 4.0755                 0.2567

                     31                     32                     33
                      A                      A                      A
 Frequencies --   1282.7006              1284.3088              1353.9716
 Red. masses --      1.7700                 5.0618                 2.4097
 Frc consts  --      1.7158                 4.9192                 2.6028
 IR Inten    --      2.2868                68.2515                98.9128

                     34                     35                     36
                      A                      A                      A
 Frequencies --   1359.0182              1394.6069              1409.8530
 Red. masses --      1.5748                 1.3099                 1.3779
 Frc consts  --      1.7136                 1.5011                 1.6137
 IR Inten    --      7.2198                 5.4462                20.8013

                     37                     38                     39
                      A                      A                      A
 Frequencies --   1461.9309              1468.2952              1482.2793
 Red. masses --      1.2680                 1.0805                 1.0534
 Frc consts  --      1.5967                 1.3724                 1.3636
 IR Inten    --     10.6037                 1.1088                 0.4738

                     40                     41                     42
                      A                      A                      A
 Frequencies --   1484.4659              1492.4004              3045.2951
 Red. masses --      1.0696                 1.1684                 1.0356
 Frc consts  --      1.3887                 1.5332                 5.6585
 IR Inten    --      4.0798                10.0051                 9.4216

                     43                     44                     45
                      A                      A                      A
 Frequencies --   3048.7439              3055.7108              3062.0259
 Red. masses --      1.0862                 1.0605                 1.0630
 Frc consts  --      5.9482                 5.8343                 5.8725
 IR Inten    --     45.3746                37.3590                46.0945

                     46                     47                     48
                      A                      A                      A
 Frequencies --   3115.9247              3116.9305              3125.3976
 Red. masses --      1.1051                 1.0592                 1.1021
 Frc consts  --      6.3214                 6.0627                 6.3428
 IR Inten    --      0.0414                14.9935                12.6930

                     49                     50                     51
                      A                      A                      A
 Frequencies --   3126.6292              3133.2335              3232.8305
 Red. masses --      1.1025                 1.1043                 1.1130
 Frc consts  --      6.3501                 6.3872                 6.8535
 IR Inten    --     42.1738                23.6534                 4.4628

 - Thermochemistry -
 -------------------
 Temperature   298.150 Kelvin.  Pressure   1.00000 Atm.
 Atom     1 has atomic number  6 and mass  12.00000

 Molecular mass:   126.06808 amu.
 Principal axes and moments of inertia in atomic units:
                           1         2         3
     Eigenvalues --   623.103481100.009031153.97330
           X            0.99982  -0.01909   0.00000
           Y            0.01909   0.99982   0.00000
           Z            0.00000   0.00000   1.00000
 This molecule is an asymmetric top.
 Rotational symmetry number  1.
 Warning -- assumption of classical behavior for rotation
           may cause significant error
 Rotational temperatures (Kelvin)      0.13900     0.07874     0.07506
 Rotational constants (GHZ):           2.89637     1.64066     1.56394
 Zero-point vibrational energy     417445.9 (Joules/Mol)
                                   99.77197 (Kcal/Mol)
 Warning -- explicit consideration of   9 degrees of freedom as
           vibrations may cause significant error
 Vibrational temperatures:     99.69   264.17   346.34   442.88   473.56
          (Kelvin)            562.75   577.78   716.72   786.98   919.38
                             1005.56  1088.63  1105.20  1131.25  1215.08
                             1225.48  1228.63  1344.86  1361.38  1378.02
                             1410.76  1514.63  1535.49  1547.44  1597.23
                             1642.32  1661.64  1723.75  1773.86  1777.22
                             1845.52  1847.83  1948.06  1955.32  2006.53
                             2028.46  2103.39  2112.55  2132.67  2135.81
                             2147.23  4381.49  4386.46  4396.48  4405.57
                             4483.12  4484.56  4496.74  4498.52  4508.02
                             4651.32

 Zero-point correction=                           0.158997 (Hartree/Particle)
 Thermal correction to Energy=                    0.166716
 Thermal correction to Enthalpy=                  0.167661
 Thermal correction to Gibbs Free Energy=         0.126949
 Sum of electronic and zero-point Energies=           -422.975524
 Sum of electronic and thermal Energies=              -422.967804
 Sum of electronic and thermal Enthalpies=            -422.966860
 Sum of electronic and thermal Free Energies=         -423.007571

                     E (Thermal)             CV                S
                      KCal/Mol        Cal/Mol-Kelvin    Cal/Mol-Kelvin
 Total                  104.616             30.958             85.684
 Electronic               0.000              0.000              0.000
 Translational            0.889              2.981             40.409
 Rotational               0.889              2.981             28.161
 Vibrational            102.839             24.996             17.115
 Vibration     1          0.598              1.969              4.174
 Vibration     2          0.631              1.862              2.291
 Vibration     3          0.658              1.778              1.798
 Vibration     4          0.698              1.659              1.374
 Vibration     5          0.712              1.617              1.264
 Vibration     6          0.759              1.489              0.996
 Vibration     7          0.767              1.467              0.957
 Vibration     8          0.854              1.254              0.663
 Vibration     9          0.902              1.146              0.550

 Optimization completed.
    -- Stationary point found.
 Normal termination of Gaussian 09 at Tue Jan 28 03:40:56 2020.
