 Gaussian 09, Revision D.01,
 Gaussian 09:  ES64L-G09RevD.01 24-Apr-2013

 -----------------------------
 # b3lyp 6-31G(2df,p) opt Freq
 -----------------------------

 -----
 titel
 -----
 Symbolic Z-matrix:
 Charge =  0 Multiplicity = 1

 SCF Done:  E(RB3LYP) =  -423.164062789     A.U. after   14 cycles
 Optimization completed.
    -- Stationary point found.
 Normal termination of Gaussian 09 at Mon Jan 27 22:00:50 2020.

 ----------------------------------------------------------------------
 #N Geom=AllCheck Guess=TCheck SCRF=Check GenChk RB3LYP/6-31G(2df,p) Fr
 eq
 ----------------------------------------------------------------------

 Structure from the checkpoint file:  "/scratch/puck/g09_f55b0090-83a9-465b-a691-63f49c11a3fa/Gau-179204.chk"
 -----
 titel
 -----
 Charge =  0 Multiplicity = 1

                         Standard orientation:
 ---------------------------------------------------------------------
 Center     Atomic      Atomic             Coordinates (Angstroms)
 Number     Number       Type             X           Y           Z
 ---------------------------------------------------------------------
      1          6           0       -0.285122    2.154144   -0.074578
      2          6           0       -0.100649    0.716515    0.380857
      3          6           0        0.950357   -0.190192   -0.360460
      4          6           0       -0.056549   -1.382685   -0.251871
      5          6           0       -1.145388   -0.353888    0.044851
      6          6           0       -2.448224   -0.192771   -0.602183
      7          8           0       -2.328147   -0.597572    0.772636
      8          6           0        2.273649   -0.361652    0.326294
      9          8           0        3.349528   -0.128406   -0.161298
     10          1           0       -1.130597    2.619990    0.442888
     11          1           0        0.606221    2.752311    0.140192
     12          1           0       -0.474283    2.207684   -1.151614
     13          1           0        0.094250    0.679584    1.461026
     14          1           0        1.111132    0.132546   -1.391163
     15          1           0       -0.167056   -2.022439   -1.129093
     16          1           0        0.149325   -2.007136    0.624373
     17          1           0       -2.863726    0.801577   -0.758129
     18          1           0       -2.811406   -0.960978   -1.283866
     19          1           0        2.186648   -0.732131    1.377225
 ---------------------------------------------------------------------

 SCF Done:  E(RB3LYP) =  -423.164062789     A.U. after    1 cycles

 The electronic state is 1-A.
 Alpha  occ. eigenvalues --  -19.15814 -19.14111 -10.27220 -10.25072 -10.24056
 Alpha  occ. eigenvalues --  -10.20952 -10.20589 -10.20293 -10.18939  -1.08014
 Alpha  occ. eigenvalues --   -1.04789  -0.86504  -0.74643  -0.69408  -0.66655
 Alpha  occ. eigenvalues --   -0.64064  -0.57962  -0.55291  -0.50068  -0.49692
 Alpha  occ. eigenvalues --   -0.47131  -0.45595  -0.43077  -0.42406  -0.41831
 Alpha  occ. eigenvalues --   -0.40221  -0.39018  -0.37696  -0.35349  -0.34149
 Alpha  occ. eigenvalues --   -0.32233  -0.30359  -0.26953  -0.25245
 Alpha virt. eigenvalues --   -0.02704   0.06911   0.08875   0.10224   0.10930
 Alpha virt. eigenvalues --    0.11576   0.12401   0.13878   0.15122   0.15678
 Alpha virt. eigenvalues --    0.16180   0.17269   0.17978   0.18919   0.21029

 Mulliken charges:
               1
     1  C   -0.422910
     2  C   -0.075550
     3  C   -0.082389
     4  C   -0.354928
     5  C    0.455898
     6  C   -0.267362
     7  O   -0.273067
     8  C    0.159337
     9  O   -0.252491
    10  H    0.129557
    11  H    0.130024
    12  H    0.120158
    13  H    0.092378
    14  H    0.093033
    15  H    0.120847
    16  H    0.121031
    17  H    0.119739
    18  H    0.118377
    19  H    0.068318
 Sum of Mulliken charges =   0.00000

 Dipole moment (field-independent basis, Debye):
    X=             -1.8414    Y=              0.3567    Z=             -0.8143  Tot=              2.0448
 Quadrupole moment (field-independent basis, Debye-Ang):
   XX=            -67.7569   YY=            -50.9339   ZZ=            -52.4601
   XY=             -2.0917   XZ=              6.4354   YZ=              1.1862

  Exact polarizability:  94.023  -0.723  72.334   3.467  -0.543  65.914
 Approx polarizability: 131.046   1.667  99.384  -2.515  -3.336 106.909

                      1                      2                      3
                      A                      A                      A
 Frequencies --     66.0769                67.3977               198.8459
 Red. masses --      4.1890                 5.3587                 2.0336
 Frc consts  --      0.0108                 0.0143                 0.0474
 IR Inten    --      3.3422                 5.8384                 0.7349

                      4                      5                      6
                      A                      A                      A
 Frequencies --    211.1985               221.0449               255.8987
 Red. masses --      1.6084                 1.9036                 2.2887
 Frc consts  --      0.0423                 0.0548                 0.0883
 IR Inten    --      1.9095                 2.3549                 0.3938

                      7                      8                      9
                      A                      A                      A
 Frequencies --    314.8310               342.2270               410.4170
 Red. masses --      3.1661                 2.4281                 8.4019
 Frc consts  --      0.1849                 0.1675                 0.8338
 IR Inten    --      5.0379                 2.2677                 1.5729

                     10                     11                     12
                      A                      A                      A
 Frequencies --    434.4667               517.5188               600.3688
 Red. masses --      2.4228                 2.7114                 3.7888
 Frc consts  --      0.2694                 0.4279                 0.8046
 IR Inten    --      1.9280                 7.5979                13.7565

                     13                     14                     15
                      A                      A                      A
 Frequencies --    723.2455               815.1346               863.3490
 Red. masses --      3.0922                 1.9708                 2.2944
 Frc consts  --      0.9530                 0.7715                 1.0076
 IR Inten    --      7.3782                 8.1184                 7.1077

                     16                     17                     18
                      A                      A                      A
 Frequencies --    873.7954               900.2748               913.7804
 Red. masses --      2.4494                 1.9129                 2.6484
 Frc consts  --      1.1019                 0.9134                 1.3029
 IR Inten    --     17.7206                12.3275                10.2616

                     19                     20                     21
                      A                      A                      A
 Frequencies --    961.4914              1044.3822              1054.1828
 Red. masses --      1.5497                 1.3384                 2.3247
 Frc consts  --      0.8441                 0.8601                 1.5221
 IR Inten    --      7.7289                 4.9154                23.1183

                     22                     23                     24
                      A                      A                      A
 Frequencies --   1077.0754              1100.3615              1125.2191
 Red. masses --      1.9825                 3.4028                 1.3107
 Frc consts  --      1.3551                 2.4275                 0.9778
 IR Inten    --      6.5854                11.1567                 2.0550

                     25                     26                     27
                      A                      A                      A
 Frequencies --   1145.7813              1158.0316              1170.4966
 Red. masses --      1.7981                 1.5126                 2.0219
 Frc consts  --      1.3908                 1.1951                 1.6321
 IR Inten    --     16.7585                 1.0997                19.6544

                     28                     29                     30
                      A                      A                      A
 Frequencies --   1205.2689              1237.1221              1238.1284
 Red. masses --      1.9961                 1.5354                 1.4415
 Frc consts  --      1.7084                 1.3845                 1.3020
 IR Inten    --      6.1474                 1.3454                 5.2707

                     31                     32                     33
                      A                      A                      A
 Frequencies --   1258.6717              1313.7718              1372.7061
 Red. masses --      1.2914                 1.5336                 1.5627
 Frc consts  --      1.2054                 1.5596                 1.7349
 IR Inten    --      1.0676                 1.3440                 2.0967

                     34                     35                     36
                      A                      A                      A
 Frequencies --   1406.7686              1426.7631              1438.0063
 Red. masses --      1.2999                 1.2899                 1.7420
 Frc consts  --      1.5157                 1.5470                 2.1224
 IR Inten    --      2.8848                 4.4256                23.5017

                     37                     38                     39
                      A                      A                      A
 Frequencies --   1482.4137              1493.6434              1496.8843
 Red. masses --      1.1367                 1.0461                 1.0677
 Frc consts  --      1.4717                 1.3751                 1.4096
 IR Inten    --      4.7152                 4.6256                 6.0629

                     40                     41                     42
                      A                      A                      A
 Frequencies --   1538.1204              1829.4769              2834.8835
 Red. masses --      1.6515                10.4625                 1.0808
 Frc consts  --      2.3021                20.6319                 5.1177
 IR Inten    --     14.8287               225.9058                95.3919

                     43                     44                     45
                      A                      A                      A
 Frequencies --   3022.5669              3032.2418              3052.0746
 Red. masses --      1.0825                 1.0350                 1.0622
 Frc consts  --      5.8268                 5.6069                 5.8297
 IR Inten    --     12.7690                17.5033                17.2067

                     46                     47                     48
                      A                      A                      A
 Frequencies --   3083.1255              3096.0649              3101.7518
 Red. masses --      1.0504                 1.0876                 1.1005
 Frc consts  --      5.8826                 6.1424                 6.2383
 IR Inten    --     21.4745                 5.6893                19.8538

                     49                     50                     51
                      A                      A                      A
 Frequencies --   3105.1385              3122.1314              3170.4615
 Red. masses --      1.1014                 1.1030                 1.1193
 Frc consts  --      6.2570                 6.3350                 6.6288
 IR Inten    --     23.0434                19.6599                20.3126

 - Thermochemistry -
 -------------------
 Temperature   298.150 Kelvin.  Pressure   1.00000 Atm.
 Atom     1 has atomic number  6 and mass  12.00000

 Molecular mass:   126.06808 amu.
 Principal axes and moments of inertia in atomic units:
                           1         2         3
     Eigenvalues --   556.732641725.616652060.47887
           X            0.99978  -0.01031   0.01842
           Y            0.01024   0.99994   0.00371
           Z           -0.01846  -0.00352   0.99982
 This molecule is an asymmetric top.
 Rotational symmetry number  1.
 Warning -- assumption of classical behavior for rotation
           may cause significant error
 Rotational temperatures (Kelvin)      0.15558     0.05019     0.04204
 Rotational constants (GHZ):           3.24167     1.04585     0.87588
 Zero-point vibrational energy     412263.5 (Joules/Mol)
                                   98.53335 (Kcal/Mol)
 Warning -- explicit consideration of  12 degrees of freedom as
           vibrations may cause significant error
 Vibrational temperatures:     95.07    96.97   286.09   303.87   318.03
          (Kelvin)            368.18   452.97   492.39   590.50   625.10
                              744.59   863.80  1040.59  1172.80  1242.17
                             1257.20  1295.29  1314.72  1383.37  1502.63
                             1516.73  1549.67  1583.17  1618.94  1648.52
                             1666.15  1684.08  1734.11  1779.94  1781.39
                             1810.95  1890.22  1975.02  2024.02  2052.79
                             2068.97  2132.86  2149.02  2153.68  2213.01
                             2632.21  4078.76  4348.79  4362.71  4391.25
                             4435.92  4454.54  4462.72  4467.60  4492.05
                             4561.58

 Zero-point correction=                           0.157023 (Hartree/Particle)
 Thermal correction to Energy=                    0.166049
 Thermal correction to Enthalpy=                  0.166993
 Thermal correction to Gibbs Free Energy=         0.122752
 Sum of electronic and zero-point Energies=           -423.007040
 Sum of electronic and thermal Energies=              -422.998014
 Sum of electronic and thermal Enthalpies=            -422.997069
 Sum of electronic and thermal Free Energies=         -423.041311

                     E (Thermal)             CV                S
                      KCal/Mol        Cal/Mol-Kelvin    Cal/Mol-Kelvin
 Total                  104.197             33.153             93.114
 Electronic               0.000              0.000              0.000
 Translational            0.889              2.981             40.409
 Rotational               0.889              2.981             29.072
 Vibrational            102.420             27.191             23.633
 Vibration     1          0.597              1.970              4.267
 Vibration     2          0.598              1.970              4.228
 Vibration     3          0.637              1.841              2.144
 Vibration     4          0.643              1.824              2.033
 Vibration     5          0.648              1.809              1.951
 Vibration     6          0.666              1.753              1.690
 Vibration     7          0.702              1.645              1.337
 Vibration     8          0.721              1.591              1.202
 Vibration     9          0.775              1.448              0.925
 Vibration    10          0.795              1.395              0.844
 Vibration    11          0.873              1.211              0.616
 Vibration    12          0.959              1.031              0.449

 Optimization completed.
    -- Stationary point found.
 Normal termination of Gaussian 09 at Mon Jan 27 22:45:07 2020.
