 Gaussian 09, Revision D.01,
 Gaussian 09:  ES64L-G09RevD.01 24-Apr-2013

 -----------------------------
 # b3lyp 6-31G(2df,p) opt Freq
 -----------------------------

 -----
 titel
 -----
 Symbolic Z-matrix:
 Charge =  0 Multiplicity = 1

 SCF Done:  E(RB3LYP) =  -423.158088961     A.U. after   14 cycles
 Optimization completed.
    -- Stationary point found.
 Normal termination of Gaussian 09 at Mon Jan 27 17:56:05 2020.

 ----------------------------------------------------------------------
 #N Geom=AllCheck Guess=TCheck SCRF=Check GenChk RB3LYP/6-31G(2df,p) Fr
 eq
 ----------------------------------------------------------------------

 Structure from the checkpoint file:  "/scratch/puck/g09_eabc6d2c-78af-4ec7-b443-2b13d190fbf1/Gau-51809.chk"
 -----
 titel
 -----
 Charge =  0 Multiplicity = 1

                         Standard orientation:
 ---------------------------------------------------------------------
 Center     Atomic      Atomic             Coordinates (Angstroms)
 Number     Number       Type             X           Y           Z
 ---------------------------------------------------------------------
      1          8           0        1.623211    1.649611   -0.413986
      2          6           0        1.332944    0.381890    0.058472
      3          6           0        2.389006   -0.576221    0.526325
      4          6           0        1.515098   -0.948779   -0.654570
      5          6           0        0.151341   -1.427116   -0.143207
      6          6           0       -0.061288   -0.040386    0.560502
      7          6           0       -1.198456    0.793659   -0.044376
      8          6           0       -2.539812    0.239287    0.368533
      9          8           0       -3.326900   -0.290261   -0.374272
     10          1           0        2.034977    2.154344    0.295963
     11          1           0        3.399746   -0.281600    0.261146
     12          1           0        2.301056   -1.107069    1.472727
     13          1           0        1.942056   -1.157591   -1.627232
     14          1           0       -0.581955   -1.599662   -0.934085
     15          1           0        0.173283   -2.302568    0.513435
     16          1           0       -0.165670   -0.077097    1.652911
     17          1           0       -1.114355    1.826944    0.317573
     18          1           0       -1.134248    0.806737   -1.136010
     19          1           0       -2.758374    0.328758    1.459562
 ---------------------------------------------------------------------

 SCF Done:  E(RB3LYP) =  -423.158088961     A.U. after    1 cycles

 The electronic state is 1-A.
 Alpha  occ. eigenvalues --  -19.15635 -19.13643 -10.26832 -10.24492 -10.20221
 Alpha  occ. eigenvalues --  -10.19476 -10.19136 -10.19128 -10.18886  -1.04288
 Alpha  occ. eigenvalues --   -1.04175  -0.89462  -0.78449  -0.70683  -0.64475
 Alpha  occ. eigenvalues --   -0.60266  -0.57211  -0.55120  -0.51905  -0.47963
 Alpha  occ. eigenvalues --   -0.47049  -0.45744  -0.43979  -0.42387  -0.40317
 Alpha  occ. eigenvalues --   -0.38724  -0.37785  -0.36084  -0.35591  -0.32927
 Alpha  occ. eigenvalues --   -0.31787  -0.26972  -0.25711  -0.24473
 Alpha virt. eigenvalues --   -0.01853   0.06919   0.10415   0.10527   0.11441
 Alpha virt. eigenvalues --    0.12065   0.13110   0.14951   0.15283   0.15548
 Alpha virt. eigenvalues --    0.16735   0.17146   0.19832   0.20952   0.23313

 Mulliken charges:
               1
     1  O   -0.456622
     2  C    0.397233
     3  C   -0.348576
     4  C   -0.095256
     5  C   -0.242133
     6  C   -0.084128
     7  C   -0.282504
     8  C    0.156331
     9  O   -0.241243
    10  H    0.288060
    11  H    0.114842
    12  H    0.103366
    13  H    0.096624
    14  H    0.123107
    15  H    0.099001
    16  H    0.064626
    17  H    0.112468
    18  H    0.125871
    19  H    0.068932
 Sum of Mulliken charges =   0.00000

 Dipole moment (field-independent basis, Debye):
    X=              2.7199    Y=              0.9575    Z=              2.1732  Tot=              3.6107
 Quadrupole moment (field-independent basis, Debye-Ang):
   XX=            -60.8790   YY=            -51.5262   ZZ=            -52.3585
   XY=             -1.5231   XZ=             -1.4140   YZ=              2.8517

  Exact polarizability:  90.354   1.886  71.363   1.499   2.666  68.119
 Approx polarizability: 117.209   6.983 108.277   7.254   6.788 109.669

                      1                      2                      3
                      A                      A                      A
 Frequencies --     43.8842                79.4162               132.2856
 Red. masses --      5.8424                 3.6801                 2.6953
 Frc consts  --      0.0066                 0.0137                 0.0278
 IR Inten    --      4.3918                 2.7129                 1.9112

                      4                      5                      6
                      A                      A                      A
 Frequencies --    178.4547               269.5917               281.6286
 Red. masses --      3.4098                 3.0403                 1.2712
 Frc consts  --      0.0640                 0.1302                 0.0594
 IR Inten    --      2.9192                33.5287                51.1207

                      7                      8                      9
                      A                      A                      A
 Frequencies --    377.1675               405.0677               435.0098
 Red. masses --      2.2495                 2.3911                 2.1871
 Frc consts  --      0.1885                 0.2312                 0.2439
 IR Inten    --     16.5419                 0.6658                 2.5700

                     10                     11                     12
                      A                      A                      A
 Frequencies --    470.5352               528.6357               625.4470
 Red. masses --      3.1145                 2.6751                 3.1864
 Frc consts  --      0.4063                 0.4405                 0.7344
 IR Inten    --     16.3320                 6.9228                 1.8990

                     13                     14                     15
                      A                      A                      A
 Frequencies --    759.7445               790.0978               854.1848
 Red. masses --      2.9471                 2.1141                 2.1420
 Frc consts  --      1.0023                 0.7776                 0.9208
 IR Inten    --      2.4433                 1.1527                 8.6580

                     16                     17                     18
                      A                      A                      A
 Frequencies --    869.8317               895.1712               933.4002
 Red. masses --      1.7526                 2.1637                 1.8302
 Frc consts  --      0.7813                 1.0215                 0.9395
 IR Inten    --      0.6140                 7.5263                 2.2032

                     19                     20                     21
                      A                      A                      A
 Frequencies --    936.5219               971.3779              1015.4370
 Red. masses --      2.3361                 1.3617                 1.3433
 Frc consts  --      1.2072                 0.7570                 0.8161
 IR Inten    --     14.6257                 3.3090                 0.4514

                     22                     23                     24
                      A                      A                      A
 Frequencies --   1027.6711              1049.0825              1080.3209
 Red. masses --      1.5523                 2.0785                 1.8680
 Frc consts  --      0.9659                 1.3478                 1.2845
 IR Inten    --      0.6772                28.9776                10.9566

                     25                     26                     27
                      A                      A                      A
 Frequencies --   1084.1184              1139.6590              1167.4413
 Red. masses --      1.7836                 2.6336                 1.4790
 Frc consts  --      1.2351                 2.0154                 1.1877
 IR Inten    --      1.2635                12.1892                11.7877

                     28                     29                     30
                      A                      A                      A
 Frequencies --   1211.2131              1222.4535              1228.9411
 Red. masses --      1.4456                 1.6175                 1.4081
 Frc consts  --      1.2495                 1.4242                 1.2530
 IR Inten    --     15.5049                39.5878                 3.7335

                     31                     32                     33
                      A                      A                      A
 Frequencies --   1258.5133              1281.8684              1297.2411
 Red. masses --      1.7516                 1.6231                 1.6921
 Frc consts  --      1.6345                 1.5714                 1.6777
 IR Inten    --     29.9665                51.0016                 7.5052

                     34                     35                     36
                      A                      A                      A
 Frequencies --   1317.5556              1370.7226              1396.3941
 Red. masses --      1.5713                 1.5363                 2.1065
 Frc consts  --      1.6071                 1.7007                 2.4201
 IR Inten    --     30.0382                 3.9513                24.5465

                     37                     38                     39
                      A                      A                      A
 Frequencies --   1428.3671              1464.4588              1483.3960
 Red. masses --      1.1967                 1.0978                 1.2178
 Frc consts  --      1.4386                 1.3872                 1.5789
 IR Inten    --      5.9790                 4.5742                 6.7372

                     40                     41                     42
                      A                      A                      A
 Frequencies --   1504.6082              1830.3116              2846.2773
 Red. masses --      1.2886                10.0679                 1.0814
 Frc consts  --      1.7188                19.8719                 5.1618
 IR Inten    --     10.2355               173.6152               117.6262

                     43                     44                     45
                      A                      A                      A
 Frequencies --   3012.6119              3028.5913              3051.7925
 Red. masses --      1.0835                 1.0629                 1.0619
 Frc consts  --      5.7937                 5.7440                 5.8272
 IR Inten    --     37.3851                15.0290                38.3366

                     46                     47                     48
                      A                      A                      A
 Frequencies --   3096.7466              3102.1786              3112.4638
 Red. masses --      1.0575                 1.0994                 1.1038
 Frc consts  --      5.9749                 6.2338                 6.3002
 IR Inten    --     20.5589                 8.7424                20.9355

                     49                     50                     51
                      A                      A                      A
 Frequencies --   3191.7677              3200.5830              3794.0114
 Red. masses --      1.1016                 1.1040                 1.0663
 Frc consts  --      6.6120                 6.6631                 9.0430
 IR Inten    --      4.4431                16.9298                25.7848

 - Thermochemistry -
 -------------------
 Temperature   298.150 Kelvin.  Pressure   1.00000 Atm.
 Atom     1 has atomic number  8 and mass  15.99491

 Molecular mass:   126.06808 amu.
 Principal axes and moments of inertia in atomic units:
                           1         2         3
     Eigenvalues --   517.851931780.412492072.86019
           X            0.99991  -0.01318  -0.00228
           Y            0.01321   0.99982   0.01366
           Z            0.00210  -0.01369   0.99990
 This molecule is an asymmetric top.
 Rotational symmetry number  1.
 Warning -- assumption of classical behavior for rotation
           may cause significant error
 Rotational temperatures (Kelvin)      0.16726     0.04865     0.04178
 Rotational constants (GHZ):           3.48505     1.01366     0.87065
 Zero-point vibrational energy     413514.7 (Joules/Mol)
                                   98.83237 (Kcal/Mol)
 Warning -- explicit consideration of  11 degrees of freedom as
           vibrations may cause significant error
 Vibrational temperatures:     63.14   114.26   190.33   256.76   387.88
          (Kelvin)            405.20   542.66   582.80   625.88   676.99
                              760.59   899.88  1093.10  1136.77  1228.98
                             1251.49  1287.95  1342.95  1347.44  1397.59
                             1460.99  1478.59  1509.39  1554.34  1559.80
                             1639.71  1679.69  1742.66  1758.84  1768.17
                             1810.72  1844.32  1866.44  1895.67  1972.16
                             2009.10  2055.10  2107.03  2134.27  2164.79
                             2633.41  4095.15  4334.47  4357.46  4390.84
                             4455.52  4463.34  4478.14  4592.24  4604.92
                             5458.73

 Zero-point correction=                           0.157499 (Hartree/Particle)
 Thermal correction to Energy=                    0.166451
 Thermal correction to Enthalpy=                  0.167395
 Thermal correction to Gibbs Free Energy=         0.122990
 Sum of electronic and zero-point Energies=           -423.000590
 Sum of electronic and thermal Energies=              -422.991638
 Sum of electronic and thermal Enthalpies=            -422.990694
 Sum of electronic and thermal Free Energies=         -423.035099

                     E (Thermal)             CV                S
                      KCal/Mol        Cal/Mol-Kelvin    Cal/Mol-Kelvin
 Total                  104.449             33.176             93.458
 Electronic               0.000              0.000              0.000
 Translational            0.889              2.981             40.409
 Rotational               0.889              2.981             29.037
 Vibrational            102.672             27.215             24.012
 Vibration     1          0.595              1.980              5.076
 Vibration     2          0.600              1.963              3.905
 Vibration     3          0.612              1.921              2.913
 Vibration     4          0.629              1.869              2.345
 Vibration     5          0.674              1.729              1.599
 Vibration     6          0.681              1.708              1.524
 Vibration     7          0.748              1.519              1.051
 Vibration     8          0.770              1.459              0.944
 Vibration     9          0.796              1.394              0.842
 Vibration    10          0.828              1.315              0.736
 Vibration    11          0.884              1.187              0.590

 Optimization completed.
    -- Stationary point found.
 Normal termination of Gaussian 09 at Mon Jan 27 18:36:39 2020.
