 Gaussian 09, Revision D.01,
 Gaussian 09:  ES64L-G09RevD.01 24-Apr-2013

 -----------------------------
 # b3lyp 6-31G(2df,p) opt Freq
 -----------------------------

 -----
 titel
 -----
 Symbolic Z-matrix:
 Charge =  0 Multiplicity = 1

 SCF Done:  E(RB3LYP) =  -423.225451672     A.U. after   14 cycles
 Optimization completed.
    -- Stationary point found.
 Normal termination of Gaussian 09 at Mon Jan 27 22:07:16 2020.

 ----------------------------------------------------------------------
 #N Geom=AllCheck Guess=TCheck SCRF=Check GenChk RB3LYP/6-31G(2df,p) Fr
 eq
 ----------------------------------------------------------------------

 Structure from the checkpoint file:  "/scratch/puck/g09_07090f24-574a-42a0-a706-1fa976442204/Gau-51234.chk"
 -----
 titel
 -----
 Charge =  0 Multiplicity = 1

                         Standard orientation:
 ---------------------------------------------------------------------
 Center     Atomic      Atomic             Coordinates (Angstroms)
 Number     Number       Type             X           Y           Z
 ---------------------------------------------------------------------
      1          6           0        2.562832   -0.937936   -0.225175
      2          6           0        1.136633   -0.553505    0.014458
      3          6           0        0.612933    0.680796    0.113216
      4          6           0        1.285932    2.009690   -0.009864
      5          6           0       -0.865450    0.626412    0.439962
      6          8           0       -1.667810    1.525621   -0.290062
      7          6           0       -1.201890   -0.831597    0.115600
      8          8           0       -2.290439   -1.191289   -0.256227
      9          6           0        0.086919   -1.637034    0.184997
     10          1           0        2.651019   -1.570914   -1.117522
     11          1           0        3.213333   -0.071268   -0.359594
     12          1           0        2.956675   -1.527896    0.612713
     13          1           0        0.746695    2.631535   -0.732400
     14          1           0        1.263152    2.550762    0.945203
     15          1           0        2.327173    1.928046   -0.328581
     16          1           0       -1.015612    0.788222    1.526065
     17          1           0       -2.457642    1.025175   -0.541399
     18          1           0        0.163367   -2.153906    1.153378
     19          1           0        0.110367   -2.415371   -0.586717
 ---------------------------------------------------------------------

 SCF Done:  E(RB3LYP) =  -423.225451672     A.U. after    1 cycles

 The electronic state is 1-A.
 Alpha  occ. eigenvalues --  -19.14684 -19.13511 -10.27545 -10.23676 -10.19992
 Alpha  occ. eigenvalues --  -10.19845 -10.19244 -10.19038 -10.18296  -1.06012
 Alpha  occ. eigenvalues --   -1.01560  -0.85539  -0.75119  -0.74307  -0.68282
 Alpha  occ. eigenvalues --   -0.63610  -0.56263  -0.51723  -0.49432  -0.48106
 Alpha  occ. eigenvalues --   -0.45674  -0.44661  -0.44443  -0.41743  -0.40283
 Alpha  occ. eigenvalues --   -0.39796  -0.39341  -0.37102  -0.36773  -0.35766
 Alpha  occ. eigenvalues --   -0.34430  -0.27356  -0.25214  -0.24024
 Alpha virt. eigenvalues --   -0.02433   0.01463   0.08496   0.10779   0.11940
 Alpha virt. eigenvalues --    0.12898   0.13970   0.16043   0.16228   0.16928
 Alpha virt. eigenvalues --    0.17961   0.18354   0.19979   0.21257   0.23952

 Mulliken charges:
               1
     1  C   -0.493032
     2  C    0.200426
     3  C    0.196418
     4  C   -0.501049
     5  C   -0.024011
     6  O   -0.442873
     7  C    0.358714
     8  O   -0.318726
     9  C   -0.411523
    10  H    0.130267
    11  H    0.129024
    12  H    0.128586
    13  H    0.151446
    14  H    0.128385
    15  H    0.121372
    16  H    0.089687
    17  H    0.293029
    18  H    0.132479
    19  H    0.131382
 Sum of Mulliken charges =   0.00000

 Dipole moment (field-independent basis, Debye):
    X=              2.5296    Y=             -0.6360    Z=              0.8766  Tot=              2.7517
 Quadrupole moment (field-independent basis, Debye-Ang):
   XX=            -55.6102   YY=            -54.8876   ZZ=            -52.0230
   XY=             -2.0321   XZ=             -1.1194   YZ=             -0.2772

  Exact polarizability:  89.434  -4.206  91.650   0.215   1.553  56.802
 Approx polarizability: 124.748  -8.263 137.301   3.487   3.202  90.149

                      1                      2                      3
                      A                      A                      A
 Frequencies --     70.8797               136.3659               147.5476
 Red. masses --      5.1639                 3.0068                 1.0349
 Frc consts  --      0.0153                 0.0329                 0.0133
 IR Inten    --      0.7595                 0.5784                 0.3303

                      4                      5                      6
                      A                      A                      A
 Frequencies --    169.5312               226.2219               265.2991
 Red. masses --      1.0310                 3.2662                 3.3635
 Frc consts  --      0.0175                 0.0985                 0.1395
 IR Inten    --      0.1538                11.7121                11.6770

                      7                      8                      9
                      A                      A                      A
 Frequencies --    288.2749               311.0788               356.7329
 Red. masses --      2.5474                 3.0198                 1.1770
 Frc consts  --      0.1247                 0.1722                 0.0882
 IR Inten    --      0.9853                 2.7096                65.8120

                     10                     11                     12
                      A                      A                      A
 Frequencies --    404.4238               465.9267               531.3470
 Red. masses --      4.0355                 2.5908                 3.7029
 Frc consts  --      0.3889                 0.3314                 0.6160
 IR Inten    --      6.6544                 5.6397                 1.1786

                     13                     14                     15
                      A                      A                      A
 Frequencies --    576.5486               601.6115               656.2656
 Red. masses --      4.1454                 3.7343                 4.1843
 Frc consts  --      0.8119                 0.7963                 1.0618
 IR Inten    --      7.2555                 0.3013                 2.9404

                     16                     17                     18
                      A                      A                      A
 Frequencies --    787.0771               801.6299               911.0349
 Red. masses --      3.2315                 2.3471                 1.9788
 Frc consts  --      1.1795                 0.8887                 0.9676
 IR Inten    --      1.0025                 7.3264                 6.3857

                     19                     20                     21
                      A                      A                      A
 Frequencies --    932.6058               990.8722              1037.4668
 Red. masses --      2.1037                 1.4867                 1.8555
 Frc consts  --      1.0780                 0.8600                 1.1767
 IR Inten    --      2.3150                 0.7333                18.7534

                     22                     23                     24
                      A                      A                      A
 Frequencies --   1058.9873              1079.9684              1098.6876
 Red. masses --      1.5128                 2.6073                 3.1528
 Frc consts  --      0.9996                 1.7917                 2.2423
 IR Inten    --      3.9296                 4.1203                76.5762

                     25                     26                     27
                      A                      A                      A
 Frequencies --   1142.9266              1187.5159              1206.8798
 Red. masses --      1.4567                 1.7471                 2.6200
 Frc consts  --      1.1212                 1.4516                 2.2485
 IR Inten    --     26.3994                18.9698                36.0837

                     28                     29                     30
                      A                      A                      A
 Frequencies --   1229.4812              1253.7758              1321.7393
 Red. masses --      1.6097                 2.1789                 2.4497
 Frc consts  --      1.4337                 2.0180                 2.5214
 IR Inten    --     29.2960                10.1713                28.0002

                     31                     32                     33
                      A                      A                      A
 Frequencies --   1340.6681              1401.1055              1416.0941
 Red. masses --      1.4002                 1.3445                 1.4823
 Frc consts  --      1.4828                 1.5551                 1.7513
 IR Inten    --     15.1038                16.9305                 6.9427

                     34                     35                     36
                      A                      A                      A
 Frequencies --   1420.7914              1454.8177              1474.2363
 Red. masses --      1.4246                 1.0908                 1.0450
 Frc consts  --      1.6943                 1.3603                 1.3381
 IR Inten    --      5.3838                 4.4657                 2.4884

                     37                     38                     39
                      A                      A                      A
 Frequencies --   1480.5395              1485.4448              1492.8100
 Red. masses --      1.0439                 1.0492                 1.0702
 Frc consts  --      1.3482                 1.3640                 1.4051
 IR Inten    --      9.9860                 3.8981                 4.7609

                     40                     41                     42
                      A                      A                      A
 Frequencies --   1727.0730              1847.0743              2900.5710
 Red. masses --      7.4852                12.5232                 1.0778
 Frc consts  --     13.1545                25.1730                 5.3428
 IR Inten    --      8.4051               206.1215                43.1306

                     43                     44                     45
                      A                      A                      A
 Frequencies --   3003.6738              3018.1054              3024.3510
 Red. masses --      1.0668                 1.0405                 1.0434
 Frc consts  --      5.6709                 5.5842                 5.6229
 IR Inten    --     17.4940                33.1950                20.4814

                     46                     47                     48
                      A                      A                      A
 Frequencies --   3060.2889              3060.9982              3081.0058
 Red. masses --      1.0924                 1.0981                 1.0916
 Frc consts  --      6.0279                 6.0622                 6.1050
 IR Inten    --     10.9881                20.0782                11.1849

                     49                     50                     51
                      A                      A                      A
 Frequencies --   3121.7482              3129.1256              3731.3261
 Red. masses --      1.0988                 1.0972                 1.0654
 Frc consts  --      6.3089                 6.3298                 8.7396
 IR Inten    --     10.0043                26.8967                42.7251

 - Thermochemistry -
 -------------------
 Temperature   298.150 Kelvin.  Pressure   1.00000 Atm.
 Atom     1 has atomic number  6 and mass  12.00000

 Molecular mass:   126.06808 amu.
 Principal axes and moments of inertia in atomic units:
                           1         2         3
     Eigenvalues --   790.294431169.873371862.46429
           X            0.99955  -0.02874  -0.00818
           Y            0.02876   0.99959   0.00156
           Z            0.00813  -0.00180   0.99997
 This molecule is an asymmetric top.
 Rotational symmetry number  1.
 Warning -- assumption of classical behavior for rotation
           may cause significant error
 Rotational temperatures (Kelvin)      0.10960     0.07404     0.04650
 Rotational constants (GHZ):           2.28363     1.54268     0.96901
 Zero-point vibrational energy     412236.4 (Joules/Mol)
                                   98.52688 (Kcal/Mol)
 Warning -- explicit consideration of  14 degrees of freedom as
           vibrations may cause significant error
 Vibrational temperatures:    101.98   196.20   212.29   243.92   325.48
          (Kelvin)            381.71   414.76   447.57   513.26   581.87
                              670.36   764.49   829.52   865.58   944.22
                             1132.43  1153.37  1310.77  1341.81  1425.64
                             1492.68  1523.64  1553.83  1580.76  1644.41
                             1708.57  1736.43  1768.95  1803.90  1901.69
                             1928.92  2015.88  2037.44  2044.20  2093.16
                             2121.09  2130.16  2137.22  2147.82  2484.87
                             2657.52  4173.27  4321.61  4342.38  4351.36
                             4403.07  4404.09  4432.87  4491.49  4502.11
                             5368.54

 Zero-point correction=                           0.157013 (Hartree/Particle)
 Thermal correction to Energy=                    0.166530
 Thermal correction to Enthalpy=                  0.167475
 Thermal correction to Gibbs Free Energy=         0.122812
 Sum of electronic and zero-point Energies=           -423.068439
 Sum of electronic and thermal Energies=              -423.058921
 Sum of electronic and thermal Enthalpies=            -423.057977
 Sum of electronic and thermal Free Energies=         -423.102640

                     E (Thermal)             CV                S
                      KCal/Mol        Cal/Mol-Kelvin    Cal/Mol-Kelvin
 Total                  104.499             35.005             94.001
 Electronic               0.000              0.000              0.000
 Translational            0.889              2.981             40.409
 Rotational               0.889              2.981             28.934
 Vibrational            102.722             29.044             24.659
 Vibration     1          0.598              1.968              4.129
 Vibration     2          0.614              1.917              2.854
 Vibration     3          0.617              1.905              2.704
 Vibration     4          0.625              1.880              2.441
 Vibration     5          0.650              1.801              1.909
 Vibration     6          0.671              1.737              1.627
 Vibration     7          0.685              1.696              1.484
 Vibration     8          0.700              1.653              1.357
 Vibration     9          0.732              1.561              1.136
 Vibration    10          0.770              1.461              0.947
 Vibration    11          0.823              1.326              0.749
 Vibration    12          0.886              1.181              0.584
 Vibration    13          0.933              1.082              0.492
 Vibration    14          0.960              1.028              0.447

 Normal termination of Gaussian 09 at Mon Jan 27 23:39:47 2020.
