 Gaussian 09, Revision D.01,
 Gaussian 09:  ES64L-G09RevD.01 24-Apr-2013

 -----------------------------
 # b3lyp 6-31G(2df,p) opt Freq
 -----------------------------

 -----
 titel
 -----
 Symbolic Z-matrix:
 Charge =  0 Multiplicity = 1

 SCF Done:  E(RB3LYP) =  -423.172550365     A.U. after   13 cycles
 Optimization completed.
    -- Stationary point found.
 Normal termination of Gaussian 09 at Mon Jan 27 12:17:48 2020.

 ----------------------------------------------------------------------
 #N Geom=AllCheck Guess=TCheck SCRF=Check GenChk RB3LYP/6-31G(2df,p) Fr
 eq
 ----------------------------------------------------------------------

 Structure from the checkpoint file:  "/scratch/puck/g09_e33a09c8-73d2-4405-9e85-0a69e7f4df6f/Gau-45268.chk"
 -----
 titel
 -----
 Charge =  0 Multiplicity = 1

                         Standard orientation:
 ---------------------------------------------------------------------
 Center     Atomic      Atomic             Coordinates (Angstroms)
 Number     Number       Type             X           Y           Z
 ---------------------------------------------------------------------
      1          6           0       -1.796779   -0.860556    0.280601
      2          8           0       -2.033892    0.501330   -0.169527
      3          6           0       -0.699991    0.571725   -0.738850
      4          6           0        0.304416    1.640488   -0.270058
      5          6           0        1.243318    0.722054    0.560340
      6          6           0        1.974829   -0.333465   -0.332003
      7          6           0        0.871705   -1.438917   -0.523010
      8          6           0       -0.296215   -0.671441    0.076125
      9          8           0        0.286562   -0.087167    1.251067
     10          1           0       -2.123944   -1.025177    1.310873
     11          1           0       -2.262559   -1.593992   -0.389702
     12          1           0       -0.744000    0.453650   -1.827927
     13          1           0        0.797157    2.156600   -1.098333
     14          1           0       -0.171316    2.378478    0.380142
     15          1           0        1.886998    1.236346    1.274305
     16          1           0        2.315908    0.087867   -1.281553
     17          1           0        2.846965   -0.733574    0.188546
     18          1           0        0.715990   -1.709997   -1.570126
     19          1           0        1.109738   -2.342829    0.042584
 ---------------------------------------------------------------------

 SCF Done:  E(RB3LYP) =  -423.172550365     A.U. after    1 cycles

 The electronic state is 1-A.
 Alpha  occ. eigenvalues --  -19.13785 -19.13195 -10.23532 -10.23293 -10.23135
 Alpha  occ. eigenvalues --  -10.22700 -10.19063 -10.19046 -10.18365  -1.06473
 Alpha  occ. eigenvalues --   -1.01656  -0.79223  -0.76234  -0.72964  -0.67358
 Alpha  occ. eigenvalues --   -0.61172  -0.57810  -0.54327  -0.51382  -0.49435
 Alpha  occ. eigenvalues --   -0.46659  -0.45246  -0.43439  -0.41347  -0.39723
 Alpha  occ. eigenvalues --   -0.37803  -0.36450  -0.35629  -0.34761  -0.33111
 Alpha  occ. eigenvalues --   -0.31471  -0.28757  -0.25678  -0.25000
 Alpha virt. eigenvalues --    0.06646   0.08871   0.10303   0.11876   0.13752
 Alpha virt. eigenvalues --    0.14015   0.15355   0.15640   0.16413   0.16472
 Alpha virt. eigenvalues --    0.17238   0.18234   0.19538   0.20162   0.21797

 Mulliken charges:
               1
     1  C   -0.188375
     2  O   -0.304804
     3  C    0.120145
     4  C   -0.261719
     5  C    0.070353
     6  C   -0.227283
     7  C   -0.311041
     8  C    0.377334
     9  O   -0.289720
    10  H    0.119270
    11  H    0.100322
    12  H    0.070496
    13  H    0.096285
    14  H    0.121787
    15  H    0.080090
    16  H    0.102929
    17  H    0.112184
    18  H    0.102336
    19  H    0.109412
 Sum of Mulliken charges =   0.00000

 Dipole moment (field-independent basis, Debye):
    X=              1.8432    Y=             -0.7586    Z=             -1.2749  Tot=              2.3661
 Quadrupole moment (field-independent basis, Debye-Ang):
   XX=            -54.8551   YY=            -50.9821   ZZ=            -53.8700
   XY=              3.8674   XZ=             -0.5026   YZ=              0.2392

  Exact polarizability:  79.548   4.571  74.617  -0.942  -0.039  65.899
 Approx polarizability: 109.174   5.187 106.538  -1.423  -1.515 105.245

                      1                      2                      3
                      A                      A                      A
 Frequencies --    171.3290               246.1760               315.1842
 Red. masses --      2.7429                 2.0672                 2.6775
 Frc consts  --      0.0474                 0.0738                 0.1567
 IR Inten    --      1.4969                 2.7051                 0.5732

                      4                      5                      6
                      A                      A                      A
 Frequencies --    361.0263               410.5217               468.0077
 Red. masses --      2.2096                 2.3630                 4.8411
 Frc consts  --      0.1697                 0.2346                 0.6247
 IR Inten    --      0.9766                 4.8530                 1.7820

                      7                      8                      9
                      A                      A                      A
 Frequencies --    567.8540               654.2761               717.0670
 Red. masses --      3.7243                 3.3132                 3.6386
 Frc consts  --      0.7076                 0.8356                 1.1023
 IR Inten    --      7.0187                 0.4956                 3.8470

                     10                     11                     12
                      A                      A                      A
 Frequencies --    791.8086               806.2064               844.1266
 Red. masses --      2.4107                 2.7801                 2.8752
 Frc consts  --      0.8905                 1.0646                 1.2071
 IR Inten    --      1.1300                 5.9702                10.7248

                     13                     14                     15
                      A                      A                      A
 Frequencies --    856.2758               859.6498               890.0942
 Red. masses --      1.9683                 3.5652                 2.3402
 Frc consts  --      0.8503                 1.5523                 1.0924
 IR Inten    --      6.5180                18.8189                13.3276

                     16                     17                     18
                      A                      A                      A
 Frequencies --    924.8324               937.1676               976.3782
 Red. masses --      2.5528                 2.3982                 4.3418
 Frc consts  --      1.2864                 1.2410                 2.4387
 IR Inten    --      6.4627                 3.0187                60.4546

                     19                     20                     21
                      A                      A                      A
 Frequencies --    991.0656              1012.5699              1035.3182
 Red. masses --      2.1800                 4.0506                 1.9299
 Frc consts  --      1.2616                 2.4469                 1.2188
 IR Inten    --     22.9037                24.5502                 3.1910

                     22                     23                     24
                      A                      A                      A
 Frequencies --   1054.8461              1096.9346              1105.2669
 Red. masses --      2.1949                 1.9718                 2.4588
 Frc consts  --      1.4390                 1.3979                 1.7697
 IR Inten    --     28.6763                 9.5432                15.8296

                     25                     26                     27
                      A                      A                      A
 Frequencies --   1156.3954              1168.2150              1195.2739
 Red. masses --      1.3378                 1.2573                 1.4571
 Frc consts  --      1.0541                 1.0110                 1.2265
 IR Inten    --      4.3734                 1.5797                 2.1050

                     28                     29                     30
                      A                      A                      A
 Frequencies --   1199.7881              1238.0576              1254.6224
 Red. masses --      1.3484                 1.8247                 1.2490
 Frc consts  --      1.1436                 1.6479                 1.1583
 IR Inten    --      1.0203                24.4749                 3.3861

                     31                     32                     33
                      A                      A                      A
 Frequencies --   1282.2188              1286.9404              1317.3275
 Red. masses --      1.6574                 1.6507                 1.3933
 Frc consts  --      1.6055                 1.6108                 1.4246
 IR Inten    --      7.8662                 1.6161                 7.7071

                     34                     35                     36
                      A                      A                      A
 Frequencies --   1321.3026              1332.9572              1355.1381
 Red. masses --      1.4725                 1.6191                 1.5496
 Frc consts  --      1.5146                 1.6950                 1.6766
 IR Inten    --      0.3472                 1.9202                11.2091

                     37                     38                     39
                      A                      A                      A
 Frequencies --   1377.0514              1470.7488              1484.0413
 Red. masses --      1.8398                 1.0963                 1.0890
 Frc consts  --      2.0555                 1.3972                 1.4131
 IR Inten    --      2.9648                 2.9865                 1.1224

                     40                     41                     42
                      A                      A                      A
 Frequencies --   1503.3251              1503.9339              3021.2435
 Red. masses --      1.1211                 1.1060                 1.0634
 Frc consts  --      1.4928                 1.4738                 5.7191
 IR Inten    --      3.8312                 0.8721                52.5376

                     43                     44                     45
                      A                      A                      A
 Frequencies --   3033.2232              3062.6074              3065.5660
 Red. masses --      1.0831                 1.0588                 1.0602
 Frc consts  --      5.8711                 5.8512                 5.8702
 IR Inten    --     43.0048                24.1296                28.8238

                     46                     47                     48
                      A                      A                      A
 Frequencies --   3071.3116              3096.1930              3105.8159
 Red. masses --      1.0612                 1.1045                 1.1053
 Frc consts  --      5.8976                 6.2382                 6.2820
 IR Inten    --     29.8484                22.9187                 5.2875

                     49                     50                     51
                      A                      A                      A
 Frequencies --   3118.7156              3120.2524              3126.6563
 Red. masses --      1.0953                 1.1059                 1.1023
 Frc consts  --      6.2769                 6.3435                 6.3490
 IR Inten    --     27.5554                 8.7470                52.2918

 - Thermochemistry -
 -------------------
 Temperature   298.150 Kelvin.  Pressure   1.00000 Atm.
 Atom     1 has atomic number  6 and mass  12.00000

 Molecular mass:   126.06808 amu.
 Principal axes and moments of inertia in atomic units:
                           1         2         3
     Eigenvalues --   594.18078 975.603391179.74744
           X            0.99938   0.03140  -0.01595
           Y           -0.03116   0.99940   0.01498
           Z            0.01641  -0.01447   0.99976
 This molecule is an asymmetric top.
 Rotational symmetry number  1.
 Warning -- assumption of classical behavior for rotation
           may cause significant error
 Rotational temperatures (Kelvin)      0.14577     0.08878     0.07342
 Rotational constants (GHZ):           3.03736     1.84987     1.52977
 Zero-point vibrational energy     426845.0 (Joules/Mol)
                                  102.01839 (Kcal/Mol)
 Warning -- explicit consideration of   7 degrees of freedom as
           vibrations may cause significant error
 Vibrational temperatures:    246.50   354.19   453.48   519.44   590.65
          (Kelvin)            673.36   817.01   941.36  1031.70  1139.23
                             1159.95  1214.51  1231.99  1236.84  1280.65
                             1330.63  1348.37  1404.79  1425.92  1456.86
                             1489.59  1517.69  1578.24  1590.23  1663.79
                             1680.80  1719.73  1726.23  1781.29  1805.12
                             1844.82  1851.62  1895.34  1901.06  1917.83
                             1949.74  1981.27  2116.08  2135.20  2162.95
                             2163.82  4346.89  4364.13  4406.40  4410.66
                             4418.93  4454.73  4468.57  4487.13  4489.34
                             4498.56

 Zero-point correction=                           0.162577 (Hartree/Particle)
 Thermal correction to Energy=                    0.169144
 Thermal correction to Enthalpy=                  0.170089
 Thermal correction to Gibbs Free Energy=         0.131965
 Sum of electronic and zero-point Energies=           -423.009974
 Sum of electronic and thermal Energies=              -423.003406
 Sum of electronic and thermal Enthalpies=            -423.002462
 Sum of electronic and thermal Free Energies=         -423.040585

                     E (Thermal)             CV                S
                      KCal/Mol        Cal/Mol-Kelvin    Cal/Mol-Kelvin
 Total                  106.140             27.701             80.237
 Electronic               0.000              0.000              0.000
 Translational            0.889              2.981             40.409
 Rotational               0.889              2.981             28.016
 Vibrational            104.362             21.740             11.813
 Vibration     1          0.626              1.878              2.421
 Vibration     2          0.661              1.769              1.758
 Vibration     3          0.703              1.645              1.335
 Vibration     4          0.735              1.553              1.118
 Vibration     5          0.775              1.447              0.925
 Vibration     6          0.825              1.321              0.743
 Vibration     7          0.924              1.101              0.508

 Normal termination of Gaussian 09 at Mon Jan 27 13:05:40 2020.
