 Gaussian 09, Revision D.01,
 Gaussian 09:  ES64L-G09RevD.01 24-Apr-2013

 -----------------------------
 # b3lyp 6-31G(2df,p) opt Freq
 -----------------------------

 -----
 titel
 -----
 Symbolic Z-matrix:
 Charge =  0 Multiplicity = 1

 SCF Done:  E(RB3LYP) =  -423.133188412     A.U. after   13 cycles
 Optimization completed.
    -- Stationary point found.
 Normal termination of Gaussian 09 at Mon Jan 27 12:14:53 2020.

 ----------------------------------------------------------------------
 #N Geom=AllCheck Guess=TCheck SCRF=Check GenChk RB3LYP/6-31G(2df,p) Fr
 eq
 ----------------------------------------------------------------------

 Structure from the checkpoint file:  "/scratch/puck/g09_d17a7903-98d2-4e14-b079-df7daa3bfa14/Gau-45183.chk"
 -----
 titel
 -----
 Charge =  0 Multiplicity = 1

                         Standard orientation:
 ---------------------------------------------------------------------
 Center     Atomic      Atomic             Coordinates (Angstroms)
 Number     Number       Type             X           Y           Z
 ---------------------------------------------------------------------
      1          6           0        2.484983   -0.554768    0.114155
      2          6           0        1.293252   -0.789664   -0.858749
      3          6           0        0.509160    0.267747   -0.067275
      4          6           0        1.831081    0.794544    0.528707
      5          8           0       -0.377737    1.193579   -0.744281
      6          6           0       -1.466423    0.893038    0.142605
      7          6           0       -2.319972   -0.299269   -0.318888
      8          8           0       -1.438645   -1.234525    0.360503
      9          6           0       -0.628979   -0.165788    0.880300
     10          1           0        2.496195   -1.277754    0.933631
     11          1           0        3.483987   -0.507941   -0.321975
     12          1           0        1.512587   -0.424820   -1.866161
     13          1           0        0.844323   -1.782789   -0.921347
     14          1           0        2.204198    1.630287   -0.069771
     15          1           0        1.836732    1.081983    1.584041
     16          1           0       -1.947199    1.780385    0.556546
     17          1           0       -3.332629   -0.339454    0.101414
     18          1           0       -2.352689   -0.454063   -1.402239
     19          1           0       -0.433054   -0.253310    1.950958
 ---------------------------------------------------------------------

 SCF Done:  E(RB3LYP) =  -423.133188412     A.U. after    1 cycles

 The electronic state is 1-A.
 Alpha  occ. eigenvalues --  -19.14047 -19.13795 -10.23963 -10.23696 -10.23526
 Alpha  occ. eigenvalues --  -10.23220 -10.18487 -10.18179 -10.17692  -1.06991
 Alpha  occ. eigenvalues --   -1.01277  -0.84023  -0.72076  -0.70962  -0.66260
 Alpha  occ. eigenvalues --   -0.63754  -0.56989  -0.52809  -0.50944  -0.50247
 Alpha  occ. eigenvalues --   -0.48354  -0.45265  -0.44378  -0.41240  -0.38858
 Alpha  occ. eigenvalues --   -0.37862  -0.36405  -0.35098  -0.33468  -0.31894
 Alpha  occ. eigenvalues --   -0.31313  -0.28713  -0.25559  -0.24263
 Alpha virt. eigenvalues --    0.05844   0.08934   0.09822   0.10989   0.12416
 Alpha virt. eigenvalues --    0.12869   0.14045   0.15269   0.15730   0.17211
 Alpha virt. eigenvalues --    0.18456   0.18998   0.19461   0.19736   0.20887

 Mulliken charges:
               1
     1  C   -0.215826
     2  C   -0.286814
     3  C    0.441690
     4  C   -0.294254
     5  O   -0.338208
     6  C    0.054521
     7  C   -0.097091
     8  O   -0.289527
     9  C   -0.022206
    10  H    0.108164
    11  H    0.104455
    12  H    0.112562
    13  H    0.116676
    14  H    0.114857
    15  H    0.096196
    16  H    0.090243
    17  H    0.104389
    18  H    0.115642
    19  H    0.084530
 Sum of Mulliken charges =   0.00000

 Dipole moment (field-independent basis, Debye):
    X=             -0.0073    Y=              0.5628    Z=              0.8815  Tot=              1.0458
 Quadrupole moment (field-independent basis, Debye-Ang):
   XX=            -48.6158   YY=            -57.0176   ZZ=            -52.3021
   XY=             -2.3268   XZ=              0.0252   YZ=              2.3532

  Exact polarizability:  91.095  -0.917  66.770   1.483   2.375  66.927
 Approx polarizability: 114.304  -0.474 102.700   2.077  -0.901 101.912

                      1                      2                      3
                      A                      A                      A
 Frequencies --    103.3692               120.7257               203.4686
 Red. masses --      3.3560                 2.3034                 2.9910
 Frc consts  --      0.0211                 0.0198                 0.0730
 IR Inten    --      2.4144                 0.3949                 1.8439

                      4                      5                      6
                      A                      A                      A
 Frequencies --    282.5870               342.4713               409.2093
 Red. masses --      2.6085                 2.3539                 3.8144
 Frc consts  --      0.1227                 0.1627                 0.3763
 IR Inten    --      3.8990                 1.3460                 4.6329

                      7                      8                      9
                      A                      A                      A
 Frequencies --    481.5522               522.0723               689.1938
 Red. masses --      3.5274                 3.9338                 1.6800
 Frc consts  --      0.4819                 0.6317                 0.4701
 IR Inten    --      5.3362                 1.2063                 3.8845

                     10                     11                     12
                      A                      A                      A
 Frequencies --    779.3181               786.8546               811.0775
 Red. masses --      3.0268                 1.2446                 1.7742
 Frc consts  --      1.0831                 0.4540                 0.6877
 IR Inten    --      7.8119                 0.4958                 7.6763

                     13                     14                     15
                      A                      A                      A
 Frequencies --    830.8254               882.7306               910.5649
 Red. masses --      1.7590                 2.4279                 2.3296
 Frc consts  --      0.7154                 1.1147                 1.1380
 IR Inten    --      4.2224                10.9387                16.8238

                     16                     17                     18
                      A                      A                      A
 Frequencies --    919.4511               946.7832               958.7723
 Red. masses --      2.6784                 3.9014                 3.3761
 Frc consts  --      1.3341                 2.0605                 1.8285
 IR Inten    --      0.9050                46.9582                10.0944

                     19                     20                     21
                      A                      A                      A
 Frequencies --    979.2635              1004.8335              1025.6667
 Red. masses --      2.8819                 5.7242                 1.1886
 Frc consts  --      1.6283                 3.4053                 0.7367
 IR Inten    --     11.1007                42.7428                 4.6650

                     22                     23                     24
                      A                      A                      A
 Frequencies --   1069.1490              1070.8372              1102.7505
 Red. masses --      2.7819                 3.1180                 3.7794
 Frc consts  --      1.8736                 2.1066                 2.7079
 IR Inten    --     91.3287                52.4350                12.1852

                     25                     26                     27
                      A                      A                      A
 Frequencies --   1145.7388              1162.4018              1179.9306
 Red. masses --      2.2983                 1.4334                 1.6121
 Frc consts  --      1.7776                 1.1411                 1.3224
 IR Inten    --     46.1696                 2.1426                 0.8723

                     28                     29                     30
                      A                      A                      A
 Frequencies --   1195.0596              1203.2137              1231.6865
 Red. masses --      1.3911                 1.5332                 2.1471
 Frc consts  --      1.1705                 1.3078                 1.9191
 IR Inten    --      1.9678                 0.1981                 2.5769

                     31                     32                     33
                      A                      A                      A
 Frequencies --   1241.7082              1260.9180              1271.1961
 Red. masses --      1.2084                 1.3225                 1.5440
 Frc consts  --      1.0977                 1.2389                 1.4700
 IR Inten    --      0.4096                 1.7006                 6.5323

                     34                     35                     36
                      A                      A                      A
 Frequencies --   1289.5569              1318.0251              1334.7845
 Red. masses --      1.5304                 1.7666                 1.6415
 Frc consts  --      1.4995                 1.8082                 1.7231
 IR Inten    --     18.2188                 2.3803                 9.1793

                     37                     38                     39
                      A                      A                      A
 Frequencies --   1358.0082              1468.2976              1483.4200
 Red. masses --      1.6303                 1.0894                 1.0862
 Frc consts  --      1.7714                 1.3838                 1.4083
 IR Inten    --      0.5625                 2.9416                 3.2310

                     40                     41                     42
                      A                      A                      A
 Frequencies --   1503.0467              1505.5593              3020.7292
 Red. masses --      1.1066                 1.1279                 1.0582
 Frc consts  --      1.4730                 1.5063                 5.6888
 IR Inten    --      1.5880                 1.8593                69.5121

                     43                     44                     45
                      A                      A                      A
 Frequencies --   3053.4643              3065.8013              3070.8184
 Red. masses --      1.0581                 1.0582                 1.0618
 Frc consts  --      5.8127                 5.8600                 5.8993
 IR Inten    --     32.8079                15.3362                27.9970

                     46                     47                     48
                      A                      A                      A
 Frequencies --   3084.2045              3088.3842              3104.9539
 Red. masses --      1.1047                 1.0907                 1.0993
 Frc consts  --      6.1914                 6.1296                 6.2440
 IR Inten    --     35.3129                21.0936                34.2631

                     49                     50                     51
                      A                      A                      A
 Frequencies --   3106.5245              3120.1841              3132.2334
 Red. masses --      1.1005                 1.1067                 1.1073
 Frc consts  --      6.2572                 6.3483                 6.4006
 IR Inten    --     33.9491                14.8820                34.3538

 - Thermochemistry -
 -------------------
 Temperature   298.150 Kelvin.  Pressure   1.00000 Atm.
 Atom     1 has atomic number  6 and mass  12.00000

 Molecular mass:   126.06808 amu.
 Principal axes and moments of inertia in atomic units:
                           1         2         3
     Eigenvalues --   494.872171308.078141461.94425
           X            0.99992  -0.01227   0.00422
           Y            0.01182   0.99546   0.09440
           Z           -0.00536  -0.09435   0.99552
 This molecule is an asymmetric top.
 Rotational symmetry number  1.
 Warning -- assumption of classical behavior for rotation
           may cause significant error
 Rotational temperatures (Kelvin)      0.17502     0.06621     0.05925
 Rotational constants (GHZ):           3.64688     1.37969     1.23448
 Zero-point vibrational energy     420088.9 (Joules/Mol)
                                  100.40365 (Kcal/Mol)
 Warning -- explicit consideration of   8 degrees of freedom as
           vibrations may cause significant error
 Vibrational temperatures:    148.73   173.70   292.75   406.58   492.74
          (Kelvin)            588.76   692.85   751.14   991.59  1121.26
                             1132.11  1166.96  1195.37  1270.05  1310.10
                             1322.88  1362.21  1379.46  1408.94  1445.73
                             1475.70  1538.27  1540.69  1586.61  1648.46
                             1672.43  1697.65  1719.42  1731.15  1772.12
                             1786.54  1814.18  1828.97  1855.38  1896.34
                             1920.45  1953.87  2112.55  2134.31  2162.55
                             2166.16  4346.15  4393.25  4411.00  4418.22
                             4437.48  4443.49  4467.33  4469.59  4489.24
                             4506.58

 Zero-point correction=                           0.160003 (Hartree/Particle)
 Thermal correction to Energy=                    0.167449
 Thermal correction to Enthalpy=                  0.168394
 Thermal correction to Gibbs Free Energy=         0.127979
 Sum of electronic and zero-point Energies=           -422.973185
 Sum of electronic and thermal Energies=              -422.965739
 Sum of electronic and thermal Enthalpies=            -422.964795
 Sum of electronic and thermal Free Energies=         -423.005210

                     E (Thermal)             CV                S
                      KCal/Mol        Cal/Mol-Kelvin    Cal/Mol-Kelvin
 Total                  105.076             29.374             85.060
 Electronic               0.000              0.000              0.000
 Translational            0.889              2.981             40.409
 Rotational               0.889              2.981             28.339
 Vibrational            103.299             23.412             16.313
 Vibration     1          0.605              1.947              3.390
 Vibration     2          0.609              1.932              3.089
 Vibration     3          0.639              1.835              2.102
 Vibration     4          0.682              1.706              1.518
 Vibration     5          0.722              1.591              1.201
 Vibration     6          0.774              1.450              0.929
 Vibration     7          0.838              1.291              0.706
 Vibration     8          0.877              1.201              0.605

 Optimization completed.
    -- Stationary point found.
 Normal termination of Gaussian 09 at Mon Jan 27 12:58:49 2020.
