 Gaussian 09, Revision D.01,
 Gaussian 09:  ES64L-G09RevD.01 24-Apr-2013

 -----------------------------
 # b3lyp 6-31G(2df,p) opt Freq
 -----------------------------

 -----
 titel
 -----
 Symbolic Z-matrix:
 Charge =  0 Multiplicity = 1

 SCF Done:  E(RB3LYP) =  -423.163784837     A.U. after   15 cycles
 Optimization completed.
    -- Stationary point found.
 Normal termination of Gaussian 09 at Mon Jan 27 14:04:35 2020.

 ----------------------------------------------------------------------
 #N Geom=AllCheck Guess=TCheck SCRF=Check GenChk RB3LYP/6-31G(2df,p) Fr
 eq
 ----------------------------------------------------------------------

 Structure from the checkpoint file:  "/scratch/puck/g09_e094f704-a67a-4c79-876d-24f0b4218732/Gau-4288.chk"
 -----
 titel
 -----
 Charge =  0 Multiplicity = 1

                         Standard orientation:
 ---------------------------------------------------------------------
 Center     Atomic      Atomic             Coordinates (Angstroms)
 Number     Number       Type             X           Y           Z
 ---------------------------------------------------------------------
      1          6           0        3.771206   -0.089833    0.107310
      2          6           0        2.329906    0.032167   -0.053949
      3          6           0        1.137038    0.108542   -0.201184
      4          6           0       -0.305107    0.273556   -0.333230
      5          6           0       -0.702755    1.608924    0.301061
      6          8           0       -1.425274    2.419204   -0.214701
      7          6           0       -1.097722   -0.898617    0.337915
      8          6           0       -2.601899   -0.779616    0.096768
      9          8           0       -0.598934   -2.153562   -0.083181
     10          1           0        4.084744   -1.138963    0.074843
     11          1           0        4.307191    0.443814   -0.685135
     12          1           0        4.099181    0.324726    1.066772
     13          1           0       -0.600951    0.324544   -1.389496
     14          1           0       -0.261958    1.772249    1.309419
     15          1           0       -0.890202   -0.868749    1.413906
     16          1           0       -3.117241   -1.612584    0.581327
     17          1           0       -3.006388    0.158956    0.485545
     18          1           0       -2.825382   -0.813961   -0.976599
     19          1           0       -0.779332   -2.245906   -1.025677
 ---------------------------------------------------------------------

 SCF Done:  E(RB3LYP) =  -423.163784837     A.U. after    1 cycles

 The electronic state is 1-A.
 Alpha  occ. eigenvalues --  -19.14666 -19.14419 -10.27788 -10.25084 -10.21826
 Alpha  occ. eigenvalues --  -10.20715 -10.18421 -10.18148 -10.17508  -1.05427
 Alpha  occ. eigenvalues --   -1.02919  -0.81634  -0.77317  -0.73639  -0.68141
 Alpha  occ. eigenvalues --   -0.62611  -0.59036  -0.52052  -0.49223  -0.47709
 Alpha  occ. eigenvalues --   -0.45867  -0.44377  -0.43547  -0.42981  -0.42838
 Alpha  occ. eigenvalues --   -0.41224  -0.38977  -0.38158  -0.37554  -0.33387
 Alpha  occ. eigenvalues --   -0.28685  -0.27242  -0.25584  -0.24198
 Alpha virt. eigenvalues --   -0.03108   0.04710   0.05721   0.07917   0.10794
 Alpha virt. eigenvalues --    0.11403   0.12657   0.14407   0.15323   0.16268
 Alpha virt. eigenvalues --    0.16379   0.17938   0.18219   0.20957   0.22385

 Mulliken charges:
               1
     1  C   -0.499911
     2  C    0.116570
     3  C    0.043332
     4  C   -0.295906
     5  C    0.163952
     6  O   -0.249748
     7  C    0.137001
     8  C   -0.414555
     9  O   -0.417986
    10  H    0.154060
    11  H    0.150739
    12  H    0.150651
    13  H    0.108152
    14  H    0.090846
    15  H    0.101867
    16  H    0.128438
    17  H    0.136989
    18  H    0.114939
    19  H    0.280571
 Sum of Mulliken charges =   0.00000

 Dipole moment (field-independent basis, Debye):
    X=              1.0578    Y=             -1.2835    Z=             -0.0693  Tot=              1.6647
 Quadrupole moment (field-independent basis, Debye-Ang):
   XX=            -46.3421   YY=            -62.1746   ZZ=            -50.1449
   XY=              5.0539   XZ=              0.4162   YZ=              4.4039

  Exact polarizability: 111.816  -4.552  73.246   4.146   1.294  62.595
 Approx polarizability: 154.188 -13.226 106.133  11.032  -1.464  97.281

                      1                      2                      3
                      A                      A                      A
 Frequencies --     31.5280                33.3154                58.9246
 Red. masses --      1.7300                 1.4553                 4.8896
 Frc consts  --      0.0010                 0.0010                 0.0100
 IR Inten    --      2.3914                 1.6308                 1.5316

                      4                      5                      6
                      A                      A                      A
 Frequencies --     86.7195               117.8693               222.4624
 Red. masses --      3.9436                 3.6394                 2.7816
 Frc consts  --      0.0175                 0.0298                 0.0811
 IR Inten    --      5.2719                 0.3157                 4.3572

                      7                      8                      9
                      A                      A                      A
 Frequencies --    227.4952               273.7097               286.6747
 Red. masses --      1.1166                 1.3611                 2.3052
 Frc consts  --      0.0340                 0.0601                 0.1116
 IR Inten    --      5.4210                55.8915                25.5218

                     10                     11                     12
                      A                      A                      A
 Frequencies --    308.0435               340.4727               378.1100
 Red. masses --      2.8114                 2.9077                 6.5305
 Frc consts  --      0.1572                 0.1986                 0.5501
 IR Inten    --     28.7110                 3.4100                19.9112

                     13                     14                     15
                      A                      A                      A
 Frequencies --    433.6806               495.9832               498.6364
 Red. masses --      4.0526                 4.7027                 3.9938
 Frc consts  --      0.4491                 0.6816                 0.5851
 IR Inten    --      9.7570                 0.4019                 9.9328

                     16                     17                     18
                      A                      A                      A
 Frequencies --    536.8069               809.9045               840.4037
 Red. masses --      3.5789                 3.4510                 2.3448
 Frc consts  --      0.6076                 1.3337                 0.9757
 IR Inten    --     16.0349                 1.1265                 1.8677

                     19                     20                     21
                      A                      A                      A
 Frequencies --    916.3430               999.0228              1049.0322
 Red. masses --      2.1314                 2.0575                 2.0009
 Frc consts  --      1.0545                 1.2099                 1.2973
 IR Inten    --     25.2644                 4.3435                17.7071

                     22                     23                     24
                      A                      A                      A
 Frequencies --   1052.4200              1056.3558              1068.5035
 Red. masses --      1.4393                 1.8652                 1.6843
 Frc consts  --      0.9392                 1.2263                 1.1330
 IR Inten    --      7.9940                19.3665                53.9008

                     25                     26                     27
                      A                      A                      A
 Frequencies --   1104.5872              1138.0790              1176.6814
 Red. masses --      3.0742                 2.4800                 2.4634
 Frc consts  --      2.2099                 1.8925                 2.0096
 IR Inten    --     26.0690                74.3892                 3.5354

                     28                     29                     30
                      A                      A                      A
 Frequencies --   1208.4233              1291.7862              1320.8883
 Red. masses --      1.2863                 1.6156                 1.4150
 Frc consts  --      1.1067                 1.5884                 1.4546
 IR Inten    --      1.1018                12.5231                 8.8357

                     31                     32                     33
                      A                      A                      A
 Frequencies --   1356.8204              1409.3787              1414.3632
 Red. masses --      1.3082                 1.2366                 1.2471
 Frc consts  --      1.4189                 1.4472                 1.4698
 IR Inten    --      5.0300                 7.9421                 5.4913

                     34                     35                     36
                      A                      A                      A
 Frequencies --   1416.2526              1430.7181              1477.2527
 Red. masses --      1.2104                 1.1716                 1.0393
 Frc consts  --      1.4304                 1.4130                 1.3363
 IR Inten    --     13.6287                31.0313                 5.5743

                     37                     38                     39
                      A                      A                      A
 Frequencies --   1477.9844              1488.1146              1493.2609
 Red. masses --      1.0396                 1.0574                 1.0488
 Frc consts  --      1.3380                 1.3796                 1.3779
 IR Inten    --      5.8414                 4.9106                 5.4467

                     40                     41                     42
                      A                      A                      A
 Frequencies --   1830.3806              2368.4788              2889.8940
 Red. masses --     10.2884                11.8540                 1.0839
 Frc consts  --     20.3086                39.1790                 5.3332
 IR Inten    --    191.7227                 6.2313                74.2400

                     43                     44                     45
                      A                      A                      A
 Frequencies --   3024.0330              3028.9567              3031.3779
 Red. masses --      1.0815                 1.0347                 1.0426
 Frc consts  --      5.8271                 5.5933                 5.6446
 IR Inten    --      7.9366                30.5304                 8.4035

                     46                     47                     48
                      A                      A                      A
 Frequencies --   3051.0355              3090.7453              3091.3553
 Red. masses --      1.0823                 1.1002                 1.1003
 Frc consts  --      5.9362                 6.1920                 6.1951
 IR Inten    --     27.7250                 9.1583                 8.4682

                     49                     50                     51
                      A                      A                      A
 Frequencies --   3104.9065              3129.4679              3795.0545
 Red. masses --      1.0956                 1.1026                 1.0659
 Frc consts  --      6.2232                 6.3625                 9.0449
 IR Inten    --     25.2692                15.2119                17.3691

 - Thermochemistry -
 -------------------
 Temperature   298.150 Kelvin.  Pressure   1.00000 Atm.
 Atom     1 has atomic number  6 and mass  12.00000

 Molecular mass:   126.06808 amu.
 Principal axes and moments of inertia in atomic units:
                           1         2         3
     Eigenvalues --   878.579271746.312712515.77632
           X            0.99956   0.02960   0.00292
           Y           -0.02964   0.99948   0.01303
           Z           -0.00254  -0.01311   0.99991
 This molecule is an asymmetric top.
 Rotational symmetry number  1.
 Warning -- assumption of classical behavior for rotation
           may cause significant error
 Rotational temperatures (Kelvin)      0.09858     0.04960     0.03443
 Rotational constants (GHZ):           2.05416     1.03346     0.71737
 Zero-point vibrational energy     405310.9 (Joules/Mol)
                                   96.87163 (Kcal/Mol)
 Warning -- explicit consideration of  16 degrees of freedom as
           vibrations may cause significant error
 Vibrational temperatures:     45.36    47.93    84.78   124.77   169.59
          (Kelvin)            320.07   327.31   393.81   412.46   443.21
                              489.86   544.02   623.97   713.61   717.43
                              772.34  1165.27  1209.15  1318.41  1437.37
                             1509.32  1514.20  1519.86  1537.34  1589.25
                             1637.44  1692.98  1738.65  1858.59  1900.46
                             1952.16  2027.78  2034.95  2037.67  2058.48
                             2125.43  2126.49  2141.06  2148.47  2633.51
                             3407.71  4157.91  4350.90  4357.99  4361.47
                             4389.75  4446.89  4447.77  4467.26  4502.60
                             5460.23

 Zero-point correction=                           0.154375 (Hartree/Particle)
 Thermal correction to Energy=                    0.165718
 Thermal correction to Enthalpy=                  0.166662
 Thermal correction to Gibbs Free Energy=         0.115618
 Sum of electronic and zero-point Energies=           -423.009410
 Sum of electronic and thermal Energies=              -422.998067
 Sum of electronic and thermal Enthalpies=            -422.997122
 Sum of electronic and thermal Free Energies=         -423.048167

                     E (Thermal)             CV                S
                      KCal/Mol        Cal/Mol-Kelvin    Cal/Mol-Kelvin
 Total                  103.990             38.123            107.433
 Electronic               0.000              0.000              0.000
 Translational            0.889              2.981             40.409
 Rotational               0.889              2.981             29.736
 Vibrational            102.212             32.162             37.289
 Vibration     1          0.594              1.983              5.731
 Vibration     2          0.594              1.983              5.622
 Vibration     3          0.596              1.974              4.493
 Vibration     4          0.601              1.958              3.733
 Vibration     5          0.608              1.934              3.135
 Vibration     6          0.648              1.807              1.939
 Vibration     7          0.651              1.799              1.899
 Vibration     8          0.676              1.722              1.573
 Vibration     9          0.684              1.698              1.494
 Vibration    10          0.698              1.658              1.373
 Vibration    11          0.720              1.595              1.210
 Vibration    12          0.748              1.517              1.047
 Vibration    13          0.794              1.397              0.847
 Vibration    14          0.852              1.259              0.668
 Vibration    15          0.854              1.253              0.662
 Vibration    16          0.892              1.169              0.572

 Optimization completed.
    -- Stationary point found.
 Normal termination of Gaussian 09 at Mon Jan 27 15:40:48 2020.
