 Gaussian 09, Revision D.01,
 Gaussian 09:  ES64L-G09RevD.01 24-Apr-2013

 -----------------------------
 # b3lyp 6-31G(2df,p) opt Freq
 -----------------------------

 -----
 titel
 -----
 Symbolic Z-matrix:
 Charge =  0 Multiplicity = 1

 SCF Done:  E(RB3LYP) =  -423.195857669     A.U. after   14 cycles
 Optimization completed.
    -- Stationary point found.
 Normal termination of Gaussian 09 at Mon Jan 27 17:23:30 2020.

 ----------------------------------------------------------------------
 #N Geom=AllCheck Guess=TCheck SCRF=Check GenChk RB3LYP/6-31G(2df,p) Fr
 eq
 ----------------------------------------------------------------------

 Structure from the checkpoint file:  "/scratch/puck/g09_1a4ca9ad-66f7-4c33-93f4-a958c5611486/Gau-66208.chk"
 -----
 titel
 -----
 Charge =  0 Multiplicity = 1

                         Standard orientation:
 ---------------------------------------------------------------------
 Center     Atomic      Atomic             Coordinates (Angstroms)
 Number     Number       Type             X           Y           Z
 ---------------------------------------------------------------------
      1          6           0       -0.743343    2.048390   -0.604409
      2          6           0       -0.742313    0.694727    0.049608
      3          6           0       -0.325873    0.478195    1.465255
      4          6           0        0.507175   -0.165170    0.348063
      5          6           0        0.126137   -1.574894   -0.064398
      6          6           0       -1.407754   -1.503007   -0.202178
      7          8           0       -1.729182   -0.139959   -0.488631
      8          6           0        1.865628    0.330909    0.074549
      9          8           0        2.721372   -0.293606   -0.508314
     10          1           0        0.038262    2.689269   -0.189947
     11          1           0       -0.589366    1.956116   -1.683223
     12          1           0       -1.708695    2.537494   -0.438967
     13          1           0        0.133122    1.318966    1.977222
     14          1           0       -0.897033   -0.179803    2.111052
     15          1           0        0.615163   -1.802712   -1.015324
     16          1           0        0.433653   -2.335769    0.658544
     17          1           0       -1.804347   -2.113144   -1.017305
     18          1           0       -1.902111   -1.819047    0.726524
     19          1           0        2.065895    1.362252    0.448039
 ---------------------------------------------------------------------

 SCF Done:  E(RB3LYP) =  -423.195857669     A.U. after    1 cycles

 The electronic state is 1-A.
 Alpha  occ. eigenvalues --  -19.15369 -19.13081 -10.26670 -10.26091 -10.23767
 Alpha  occ. eigenvalues --  -10.20765 -10.20322 -10.19377 -10.19087  -1.05796
 Alpha  occ. eigenvalues --   -1.03776  -0.86950  -0.78123  -0.71710  -0.67065
 Alpha  occ. eigenvalues --   -0.64623  -0.57458  -0.54115  -0.50684  -0.49519
 Alpha  occ. eigenvalues --   -0.46846  -0.44551  -0.43255  -0.42143  -0.41476
 Alpha  occ. eigenvalues --   -0.40048  -0.39486  -0.38120  -0.37428  -0.33906
 Alpha  occ. eigenvalues --   -0.32671  -0.29291  -0.25756  -0.23710
 Alpha virt. eigenvalues --   -0.01917   0.08117   0.09331   0.10754   0.11009
 Alpha virt. eigenvalues --    0.12799   0.13127   0.14824   0.15159   0.16710
 Alpha virt. eigenvalues --    0.17241   0.19468   0.20437   0.21564   0.22177

 Mulliken charges:
               1
     1  C   -0.464045
     2  C    0.416418
     3  C   -0.409329
     4  C    0.171188
     5  C   -0.301788
     6  C   -0.106278
     7  O   -0.287541
     8  C    0.076909
     9  O   -0.271344
    10  H    0.122834
    11  H    0.136222
    12  H    0.136301
    13  H    0.123298
    14  H    0.126477
    15  H    0.132707
    16  H    0.113662
    17  H    0.119262
    18  H    0.102381
    19  H    0.062663
 Sum of Mulliken charges =   0.00000

 Dipole moment (field-independent basis, Debye):
    X=             -1.8114    Y=              0.4878    Z=              1.5324  Tot=              2.4223
 Quadrupole moment (field-independent basis, Debye-Ang):
   XX=            -64.5411   YY=            -48.2235   ZZ=            -52.1639
   XY=              3.5861   XZ=              1.6595   YZ=             -0.0044

  Exact polarizability:  82.956   0.484  81.007  -2.785   3.116  66.801
 Approx polarizability: 128.166  -6.580 112.353  -7.361   7.431 104.406

                      1                      2                      3
                      A                      A                      A
 Frequencies --     99.8236               169.5043               207.9402
 Red. masses --      4.9650                 3.1242                 1.1230
 Frc consts  --      0.0291                 0.0529                 0.0286
 IR Inten    --      4.2965                 2.7595                 1.1159

                      4                      5                      6
                      A                      A                      A
 Frequencies --    213.5914               224.0279               274.9502
 Red. masses --      2.1791                 2.6776                 2.5006
 Frc consts  --      0.0586                 0.0792                 0.1114
 IR Inten    --      6.0967                 4.3319                 3.0706

                      7                      8                      9
                      A                      A                      A
 Frequencies --    365.9033               416.6510               460.8719
 Red. masses --      2.6510                 2.3619                 2.8985
 Frc consts  --      0.2091                 0.2416                 0.3627
 IR Inten    --      4.1388                 2.6121                 0.9091

                     10                     11                     12
                      A                      A                      A
 Frequencies --    482.7828               616.4153               659.5678
 Red. masses --      3.4154                 4.0555                 3.0400
 Frc consts  --      0.4690                 0.9079                 0.7792
 IR Inten    --      4.7980                22.0001                 4.4031

                     13                     14                     15
                      A                      A                      A
 Frequencies --    687.9786               764.7695               807.5078
 Red. masses --      4.5457                 3.3341                 2.7011
 Frc consts  --      1.2676                 1.1489                 1.0377
 IR Inten    --      4.3722                 5.0201                67.4391

                     16                     17                     18
                      A                      A                      A
 Frequencies --    882.0315               926.8496               941.2784
 Red. masses --      2.0927                 1.3164                 1.5661
 Frc consts  --      0.9592                 0.6663                 0.8176
 IR Inten    --     11.4040                13.2456                14.6815

                     19                     20                     21
                      A                      A                      A
 Frequencies --    957.2180               968.3086              1033.9623
 Red. masses --      1.6958                 2.1857                 1.7210
 Frc consts  --      0.9155                 1.2075                 1.0841
 IR Inten    --      7.3590                 9.5377                12.4539

                     22                     23                     24
                      A                      A                      A
 Frequencies --   1058.8230              1072.9414              1083.5871
 Red. masses --      1.6729                 2.6091                 2.2512
 Frc consts  --      1.1050                 1.7697                 1.5574
 IR Inten    --     13.1755                31.4400                47.1142

                     25                     26                     27
                      A                      A                      A
 Frequencies --   1105.4227              1156.8267              1217.3747
 Red. masses --      1.6761                 2.8944                 1.3390
 Frc consts  --      1.2067                 2.2822                 1.1692
 IR Inten    --     19.8940                 3.9340                 0.9447

                     28                     29                     30
                      A                      A                      A
 Frequencies --   1246.8446              1252.2418              1279.4822
 Red. masses --      1.2705                 2.7542                 1.7110
 Frc consts  --      1.1638                 2.5446                 1.6503
 IR Inten    --     20.0996                56.1427                17.8852

                     31                     32                     33
                      A                      A                      A
 Frequencies --   1358.4139              1362.1984              1395.8088
 Red. masses --      2.1563                 2.0923                 1.5246
 Frc consts  --      2.3443                 2.2875                 1.7500
 IR Inten    --     10.9144                13.3161                21.6237

                     34                     35                     36
                      A                      A                      A
 Frequencies --   1419.8492              1445.0366              1476.0180
 Red. masses --      1.3835                 1.3396                 1.1134
 Frc consts  --      1.6433                 1.6481                 1.4291
 IR Inten    --     14.1730                 4.3772                 8.5065

                     37                     38                     39
                      A                      A                      A
 Frequencies --   1478.3037              1496.5599              1504.5839
 Red. masses --      1.1755                 1.0819                 1.1343
 Frc consts  --      1.5136                 1.4277                 1.5129
 IR Inten    --     10.9909                 3.2375                 5.9672

                     40                     41                     42
                      A                      A                      A
 Frequencies --   1530.7591              1799.3954              2856.1194
 Red. masses --      1.0934                10.4649                 1.0813
 Frc consts  --      1.5095                19.9637                 5.1971
 IR Inten    --      1.2348               252.1632               105.7270

                     43                     44                     45
                      A                      A                      A
 Frequencies --   3007.7827              3044.7906              3063.8594
 Red. masses --      1.0710                 1.0358                 1.0601
 Frc consts  --      5.7086                 5.6578                 5.8632
 IR Inten    --     53.0284                19.5452                18.2917

                     46                     47                     48
                      A                      A                      A
 Frequencies --   3093.6636              3110.8896              3111.3151
 Red. masses --      1.0947                 1.1012                 1.1042
 Frc consts  --      6.1728                 6.2790                 6.2975
 IR Inten    --     25.3658                 9.4417                22.9766

                     49                     50                     51
                      A                      A                      A
 Frequencies --   3126.2353              3131.3239              3214.5759
 Red. masses --      1.0606                 1.0948                 1.1163
 Frc consts  --      6.1075                 6.3249                 6.7964
 IR Inten    --      4.8942                17.9231                 4.5099

 - Thermochemistry -
 -------------------
 Temperature   298.150 Kelvin.  Pressure   1.00000 Atm.
 Atom     1 has atomic number  6 and mass  12.00000

 Molecular mass:   126.06808 amu.
 Principal axes and moments of inertia in atomic units:
                           1         2         3
     Eigenvalues --   756.463681144.360121508.52802
           X            0.99964   0.02629   0.00505
           Y           -0.02625   0.99962  -0.00897
           Z           -0.00528   0.00884   0.99995
 This molecule is an asymmetric top.
 Rotational symmetry number  1.
 Warning -- assumption of classical behavior for rotation
           may cause significant error
 Rotational temperatures (Kelvin)      0.11450     0.07569     0.05742
 Rotational constants (GHZ):           2.38576     1.57707     1.19636
 Zero-point vibrational energy     416677.0 (Joules/Mol)
                                   99.58820 (Kcal/Mol)
 Warning -- explicit consideration of  11 degrees of freedom as
           vibrations may cause significant error
 Vibrational temperatures:    143.62   243.88   299.18   307.31   322.33
          (Kelvin)            395.59   526.45   599.47   663.09   694.62
                              886.88   948.97   989.85  1100.33  1161.82
                             1269.04  1333.53  1354.29  1377.22  1393.18
                             1487.64  1523.41  1543.72  1559.04  1590.45
                             1664.41  1751.53  1793.93  1801.69  1840.89
                             1954.45  1959.90  2008.26  2042.84  2079.08
                             2123.66  2126.95  2153.21  2164.76  2202.42
                             2588.93  4109.31  4327.52  4380.77  4408.20
                             4451.09  4475.87  4476.48  4497.95  4505.27
                             4625.05

 Zero-point correction=                           0.158704 (Hartree/Particle)
 Thermal correction to Energy=                    0.167157
 Thermal correction to Enthalpy=                  0.168102
 Thermal correction to Gibbs Free Energy=         0.125890
 Sum of electronic and zero-point Energies=           -423.037154
 Sum of electronic and thermal Energies=              -423.028700
 Sum of electronic and thermal Enthalpies=            -423.027756
 Sum of electronic and thermal Free Energies=         -423.069968

                     E (Thermal)             CV                S
                      KCal/Mol        Cal/Mol-Kelvin    Cal/Mol-Kelvin
 Total                  104.893             32.361             88.842
 Electronic               0.000              0.000              0.000
 Translational            0.889              2.981             40.409
 Rotational               0.889              2.981             28.659
 Vibrational            103.115             26.400             19.775
 Vibration     1          0.604              1.949              3.458
 Vibration     2          0.625              1.880              2.441
 Vibration     3          0.641              1.829              2.062
 Vibration     4          0.644              1.820              2.013
 Vibration     5          0.649              1.804              1.926
 Vibration     6          0.677              1.720              1.565
 Vibration     7          0.739              1.542              1.097
 Vibration     8          0.780              1.434              0.903
 Vibration     9          0.819              1.337              0.764
 Vibration    10          0.839              1.288              0.703
 Vibration    11          0.976              0.997              0.422

 Normal termination of Gaussian 09 at Mon Jan 27 18:10:41 2020.
