 Gaussian 09, Revision D.01,
 Gaussian 09:  ES64L-G09RevD.01 24-Apr-2013

 -----------------------------
 # b3lyp 6-31G(2df,p) opt Freq
 -----------------------------

 -----
 titel
 -----
 Symbolic Z-matrix:
 Charge =  0 Multiplicity = 1

 SCF Done:  E(RB3LYP) =  -423.177158239     A.U. after   13 cycles
 Optimization completed.
    -- Stationary point found.
 Normal termination of Gaussian 09 at Tue Jan 28 14:12:31 2020.

 ----------------------------------------------------------------------
 #N Geom=AllCheck Guess=TCheck SCRF=Check GenChk RB3LYP/6-31G(2df,p) Fr
 eq
 ----------------------------------------------------------------------

 Structure from the checkpoint file:  "/scratch/puck/g09_a442f330-ac74-4860-8e79-1b1b2ea2ec39/Gau-61190.chk"
 -----
 titel
 -----
 Charge =  0 Multiplicity = 1

                         Standard orientation:
 ---------------------------------------------------------------------
 Center     Atomic      Atomic             Coordinates (Angstroms)
 Number     Number       Type             X           Y           Z
 ---------------------------------------------------------------------
      1          8           0       -2.048561    0.202031    1.186630
      2          6           0       -2.104805   -0.350593   -0.114204
      3          6           0       -0.728099   -0.353985   -0.815737
      4          6           0       -0.244204    1.061549   -1.000578
      5          6           0        0.760253    1.614362   -0.320519
      6          6           0        1.610837    0.884977    0.683585
      7          6           0        1.381064   -0.609064    0.691579
      8          8           0        1.585645   -1.288985   -0.552033
      9          6           0        0.254343   -1.205674   -0.035201
     10          1           0       -1.652494    1.077656    1.101291
     11          1           0       -2.464177   -1.378346    0.007341
     12          1           0       -2.832407    0.178923   -0.749752
     13          1           0       -0.876080   -0.815654   -1.803706
     14          1           0       -0.795602    1.662254   -1.721126
     15          1           0        1.019547    2.654333   -0.504512
     16          1           0        2.672877    1.087944    0.487571
     17          1           0        1.421236    1.274485    1.694287
     18          1           0        1.779343   -1.139016    1.557112
     19          1           0       -0.145253   -2.156374    0.321170
 ---------------------------------------------------------------------

 SCF Done:  E(RB3LYP) =  -423.177158239     A.U. after    1 cycles

 The electronic state is 1-A.
 Alpha  occ. eigenvalues --  -19.14355 -19.13492 -10.23473 -10.23312 -10.23184
 Alpha  occ. eigenvalues --  -10.19717 -10.19569 -10.19277 -10.18891  -1.06637
 Alpha  occ. eigenvalues --   -1.01788  -0.82241  -0.77252  -0.71147  -0.65995
 Alpha  occ. eigenvalues --   -0.61213  -0.60803  -0.52520  -0.50652  -0.49276
 Alpha  occ. eigenvalues --   -0.46844  -0.45750  -0.44066  -0.42818  -0.42021
 Alpha  occ. eigenvalues --   -0.39240  -0.37511  -0.36388  -0.33889  -0.31948
 Alpha  occ. eigenvalues --   -0.29481  -0.27473  -0.25974  -0.25234
 Alpha virt. eigenvalues --    0.01255   0.08085   0.09797   0.10006   0.11725
 Alpha virt. eigenvalues --    0.12466   0.13944   0.14933   0.16039   0.17056
 Alpha virt. eigenvalues --    0.17502   0.18465   0.19219   0.20049   0.22149

 Mulliken charges:
               1
     1  O   -0.421152
     2  C   -0.075354
     3  C   -0.106686
     4  C   -0.079735
     5  C   -0.056617
     6  C   -0.294798
     7  C    0.056310
     8  O   -0.272950
     9  C    0.078181
    10  H    0.281796
    11  H    0.110093
    12  H    0.088216
    13  H    0.090833
    14  H    0.091557
    15  H    0.093267
    16  H    0.121857
    17  H    0.116903
    18  H    0.089741
    19  H    0.088537
 Sum of Mulliken charges =   0.00000

 Dipole moment (field-independent basis, Debye):
    X=             -0.3283    Y=              1.4150    Z=              0.0214  Tot=              1.4527
 Quadrupole moment (field-independent basis, Debye-Ang):
   XX=            -56.0916   YY=            -50.3098   ZZ=            -54.4518
   XY=              3.0073   XZ=              7.2741   YZ=             -0.6413

  Exact polarizability:  83.648   8.790  75.618  11.620   0.445  68.184
 Approx polarizability: 121.495  15.150 108.842  16.406   7.082 109.707

                      1                      2                      3
                      A                      A                      A
 Frequencies --     64.0385               115.7930               195.0501
 Red. masses --      3.7316                 4.2742                 3.0656
 Frc consts  --      0.0090                 0.0338                 0.0687
 IR Inten    --      2.5796                 4.1716                 1.8288

                      4                      5                      6
                      A                      A                      A
 Frequencies --    269.4720               329.1078               345.1875
 Red. masses --      2.2278                 3.1053                 3.2756
 Frc consts  --      0.0953                 0.1982                 0.2300
 IR Inten    --      4.7797                 0.3875                29.5404

                      7                      8                      9
                      A                      A                      A
 Frequencies --    402.9229               436.3720               526.5342
 Red. masses --      1.5644                 1.9130                 5.6111
 Frc consts  --      0.1496                 0.2146                 0.9165
 IR Inten    --     48.3577                64.3170                 1.1108

                     10                     11                     12
                      A                      A                      A
 Frequencies --    557.5669               637.0908               732.3595
 Red. masses --      4.6256                 2.2436                 1.9637
 Frc consts  --      0.8473                 0.5365                 0.6206
 IR Inten    --      8.6772                 6.1461                14.5106

                     13                     14                     15
                      A                      A                      A
 Frequencies --    792.4375               835.7786               868.3413
 Red. masses --      3.6918                 3.2785                 2.7527
 Frc consts  --      1.3659                 1.3493                 1.2229
 IR Inten    --      8.9815                38.1790                 6.2489

                     16                     17                     18
                      A                      A                      A
 Frequencies --    899.6956               918.6978               928.2824
 Red. masses --      2.4447                 3.4976                 2.2616
 Frc consts  --      1.1659                 1.7393                 1.1482
 IR Inten    --     10.0397                 9.0139                16.9787

                     19                     20                     21
                      A                      A                      A
 Frequencies --    984.4593               995.7936              1011.8059
 Red. masses --      1.8499                 2.3796                 1.3950
 Frc consts  --      1.0563                 1.3903                 0.8414
 IR Inten    --      2.2981                13.8656                 4.2951

                     22                     23                     24
                      A                      A                      A
 Frequencies --   1040.2911              1082.3495              1087.8683
 Red. masses --      2.0425                 1.2668                 1.9762
 Frc consts  --      1.3023                 0.8744                 1.3780
 IR Inten    --      2.4198                 3.4213                27.5791

                     25                     26                     27
                      A                      A                      A
 Frequencies --   1102.3830              1162.6988              1205.9739
 Red. masses --      2.8401                 1.3372                 1.0933
 Frc consts  --      2.0335                 1.0651                 0.9368
 IR Inten    --     29.1149                 0.7825                11.5841

                     28                     29                     30
                      A                      A                      A
 Frequencies --   1210.9333              1238.4138              1261.8865
 Red. masses --      1.1536                 1.2040                 1.3521
 Frc consts  --      0.9966                 1.0879                 1.2685
 IR Inten    --     13.7976                 6.5956                 3.2550

                     31                     32                     33
                      A                      A                      A
 Frequencies --   1300.3174              1358.4360              1365.7301
 Red. masses --      1.2809                 1.2542                 1.6314
 Frc consts  --      1.2761                 1.3637                 1.7928
 IR Inten    --      1.3419                 0.7761                 3.2627

                     34                     35                     36
                      A                      A                      A
 Frequencies --   1377.8354              1393.8218              1418.3220
 Red. masses --      2.0498                 1.4594                 1.3015
 Frc consts  --      2.2927                 1.6704                 1.5425
 IR Inten    --      2.8537                 1.0782                44.0983

                     37                     38                     39
                      A                      A                      A
 Frequencies --   1438.6174              1464.5467              1484.1944
 Red. masses --      1.4049                 1.1212                 2.8130
 Frc consts  --      1.7132                 1.4169                 3.6509
 IR Inten    --     15.6299                 3.9117                 9.7819

                     40                     41                     42
                      A                      A                      A
 Frequencies --   1508.7548              1725.3239              2975.5185
 Red. masses --      1.1044                 6.6766                 1.0702
 Frc consts  --      1.4812                11.7098                 5.5828
 IR Inten    --      2.5307                 1.5591                52.9337

                     43                     44                     45
                      A                      A                      A
 Frequencies --   2997.4250              3006.3897              3030.8861
 Red. masses --      1.0818                 1.0606                 1.0988
 Frc consts  --      5.7264                 5.6481                 5.9470
 IR Inten    --     45.2722                27.2234                16.3044

                     46                     47                     48
                      A                      A                      A
 Frequencies --   3067.2221              3093.8044              3109.9227
 Red. masses --      1.0928                 1.0854                 1.0910
 Frc consts  --      6.0575                 6.1209                 6.2171
 IR Inten    --     26.7973                29.2881                52.7918

                     49                     50                     51
                      A                      A                      A
 Frequencies --   3138.9439              3163.2165              3779.3623
 Red. masses --      1.0834                 1.0960                 1.0654
 Frc consts  --      6.2892                 6.4615                 8.9656
 IR Inten    --      6.5773                29.6230                20.7934

 - Thermochemistry -
 -------------------
 Temperature   298.150 Kelvin.  Pressure   1.00000 Atm.
 Atom     1 has atomic number  8 and mass  15.99491

 Molecular mass:   126.06808 amu.
 Principal axes and moments of inertia in atomic units:
                           1         2         3
     Eigenvalues --   721.918701198.278431394.01163
           X            0.99775   0.04731   0.04759
           Y           -0.04636   0.99871  -0.02081
           Z           -0.04851   0.01855   0.99865
 This molecule is an asymmetric top.
 Rotational symmetry number  1.
 Warning -- assumption of classical behavior for rotation
           may cause significant error
 Rotational temperatures (Kelvin)      0.11998     0.07228     0.06213
 Rotational constants (GHZ):           2.49992     1.50611     1.29464
 Zero-point vibrational energy     421313.9 (Joules/Mol)
                                  100.69643 (Kcal/Mol)
 Warning -- explicit consideration of  10 degrees of freedom as
           vibrations may cause significant error
 Vibrational temperatures:     92.14   166.60   280.63   387.71   473.51
          (Kelvin)            496.65   579.72   627.84   757.56   802.21
                              916.63  1053.70  1140.14  1202.50  1249.35
                             1294.46  1321.80  1335.59  1416.42  1432.72
                             1455.76  1496.75  1557.26  1565.20  1586.08
                             1672.86  1735.13  1742.26  1781.80  1815.57
                             1870.86  1954.48  1964.98  1982.40  2005.40
                             2040.65  2069.85  2107.15  2135.42  2170.76
                             2482.35  4281.10  4312.62  4325.52  4360.76
                             4413.04  4451.29  4474.48  4516.23  4551.16
                             5437.65

 Zero-point correction=                           0.160470 (Hartree/Particle)
 Thermal correction to Energy=                    0.168545
 Thermal correction to Enthalpy=                  0.169489
 Thermal correction to Gibbs Free Energy=         0.127595
 Sum of electronic and zero-point Energies=           -423.016688
 Sum of electronic and thermal Energies=              -423.008614
 Sum of electronic and thermal Enthalpies=            -423.007669
 Sum of electronic and thermal Free Energies=         -423.049563

                     E (Thermal)             CV                S
                      KCal/Mol        Cal/Mol-Kelvin    Cal/Mol-Kelvin
 Total                  105.763             31.172             88.172
 Electronic               0.000              0.000              0.000
 Translational            0.889              2.981             40.409
 Rotational               0.889              2.981             28.580
 Vibrational            103.986             25.210             19.184
 Vibration     1          0.597              1.971              4.329
 Vibration     2          0.608              1.936              3.169
 Vibration     3          0.636              1.847              2.179
 Vibration     4          0.674              1.729              1.600
 Vibration     5          0.712              1.617              1.264
 Vibration     6          0.724              1.585              1.188
 Vibration     7          0.768              1.464              0.952
 Vibration     8          0.797              1.391              0.838
 Vibration     9          0.881              1.191              0.595
 Vibration    10          0.913              1.123              0.529

 Normal termination of Gaussian 09 at Tue Jan 28 14:59:38 2020.
