 Gaussian 09, Revision D.01,
 Gaussian 09:  ES64L-G09RevD.01 24-Apr-2013

 -----------------------------
 # b3lyp 6-31G(2df,p) opt Freq
 -----------------------------

 -----
 titel
 -----
 Symbolic Z-matrix:
 Charge =  0 Multiplicity = 1

 SCF Done:  E(RB3LYP) =  -423.180928257     A.U. after   14 cycles
 Optimization completed.
    -- Stationary point found.
 Normal termination of Gaussian 09 at Mon Jan 27 16:24:25 2020.

 ----------------------------------------------------------------------
 #N Geom=AllCheck Guess=TCheck SCRF=Check GenChk RB3LYP/6-31G(2df,p) Fr
 eq
 ----------------------------------------------------------------------

 Structure from the checkpoint file:  "/scratch/puck/g09_b4738d95-a381-4ad2-826f-2f873ca78e03/Gau-69797.chk"
 -----
 titel
 -----
 Charge =  0 Multiplicity = 1

                         Standard orientation:
 ---------------------------------------------------------------------
 Center     Atomic      Atomic             Coordinates (Angstroms)
 Number     Number       Type             X           Y           Z
 ---------------------------------------------------------------------
      1          6           0        1.221649    0.000505    1.629899
      2          6           0        0.891644   -0.000092    0.146087
      3          6           0        1.807143    0.754809   -0.787252
      4          6           0        1.806826   -0.756163   -0.786631
      5          6           0       -0.606475    0.000039   -0.242201
      6          6           0       -1.274465   -1.263001    0.274413
      7          8           0       -1.478619   -2.233711   -0.406711
      8          6           0       -1.274162    1.263404    0.274041
      9          8           0       -1.477502    2.234184   -0.407226
     10          1           0        0.828575   -0.884971    2.141451
     11          1           0        2.306348    0.000253    1.770084
     12          1           0        0.829089    0.886700    2.140606
     13          1           0        1.364973    1.270690   -1.631998
     14          1           0        2.656633    1.268764   -0.350267
     15          1           0        1.364410   -1.272527   -1.630955
     16          1           0        2.656089   -1.270137   -0.349234
     17          1           0       -0.680610   -0.000120   -1.332540
     18          1           0       -1.554613   -1.252618    1.352370
     19          1           0       -1.554887    1.253185    1.351848
 ---------------------------------------------------------------------

 SCF Done:  E(RB3LYP) =  -423.180928257     A.U. after    1 cycles

 The electronic state is 1-A.
 Alpha  occ. eigenvalues --  -19.15322 -19.15322 -10.28513 -10.28513 -10.22636
 Alpha  occ. eigenvalues --  -10.21422 -10.19772 -10.19696 -10.19671  -1.06170
 Alpha  occ. eigenvalues --   -1.05856  -0.88704  -0.78501  -0.72641  -0.62218
 Alpha  occ. eigenvalues --   -0.60645  -0.60476  -0.55931  -0.50426  -0.49809
 Alpha  occ. eigenvalues --   -0.48347  -0.45655  -0.44382  -0.42268  -0.41641
 Alpha  occ. eigenvalues --   -0.40759  -0.40204  -0.39335  -0.37401  -0.35420
 Alpha  occ. eigenvalues --   -0.31109  -0.30373  -0.27382  -0.24648
 Alpha virt. eigenvalues --   -0.05329  -0.01972   0.08159   0.08933   0.10418
 Alpha virt. eigenvalues --    0.11301   0.13056   0.13193   0.13616   0.14513
 Alpha virt. eigenvalues --    0.17716   0.18941   0.19566   0.19998   0.21540

 Mulliken charges:
               1
     1  C   -0.484909
     2  C    0.350286
     3  C   -0.308823
     4  C   -0.308841
     5  C   -0.226401
     6  C    0.151478
     7  O   -0.244103
     8  C    0.151468
     9  O   -0.244109
    10  H    0.125679
    11  H    0.127804
    12  H    0.125694
    13  H    0.131695
    14  H    0.117811
    15  H    0.131698
    16  H    0.117811
    17  H    0.117943
    18  H    0.083911
    19  H    0.083910
 Sum of Mulliken charges =   0.00000

 Dipole moment (field-independent basis, Debye):
    X=              1.8600    Y=             -0.0002    Z=              1.9866  Tot=              2.7214
 Quadrupole moment (field-independent basis, Debye-Ang):
   XX=            -53.4363   YY=            -65.3522   ZZ=            -51.5903
   XY=             -0.0034   XZ=             -2.2270   YZ=              0.0020

  Exact polarizability:  75.933   0.002  80.214  -2.905   0.001  74.023
 Approx polarizability: 103.538   0.008 127.505  -1.816  -0.002 112.768

                      1                      2                      3
                      A                      A                      A
 Frequencies --     35.0755                52.7521                68.2003
 Red. masses --      3.6604                 6.9180                 4.2979
 Frc consts  --      0.0027                 0.0113                 0.0118
 IR Inten    --      0.1835                12.1586                 0.1988

                      4                      5                      6
                      A                      A                      A
 Frequencies --    186.7413               211.4332               227.9400
 Red. masses --      4.2508                 1.6716                 1.3007
 Frc consts  --      0.0873                 0.0440                 0.0398
 IR Inten    --      8.5476                 0.5160                 0.2173

                      7                      8                      9
                      A                      A                      A
 Frequencies --    264.8558               331.1815               353.6988
 Red. masses --      2.2051                 1.8470                 2.6121
 Frc consts  --      0.0911                 0.1194                 0.1925
 IR Inten    --      4.1707                 0.2960                 0.0565

                     10                     11                     12
                      A                      A                      A
 Frequencies --    379.3869               430.2725               470.2299
 Red. masses --      3.6069                 3.0114                 4.9079
 Frc consts  --      0.3059                 0.3285                 0.6394
 IR Inten    --     11.0446                 0.0821                 0.1325

                     13                     14                     15
                      A                      A                      A
 Frequencies --    576.6078               705.0011               783.7291
 Red. masses --      3.4242                 3.8090                 1.0304
 Frc consts  --      0.6708                 1.1154                 0.3729
 IR Inten    --     29.9880                 4.7220                 0.9559

                     16                     17                     18
                      A                      A                      A
 Frequencies --    871.6996               897.7066               930.0447
 Red. masses --      2.4318                 2.2670                 1.3294
 Frc consts  --      1.0887                 1.0764                 0.6775
 IR Inten    --      5.6792                 3.4257                 0.2100

                     19                     20                     21
                      A                      A                      A
 Frequencies --    941.9783               952.9818              1013.8597
 Red. masses --      2.3577                 1.7694                 1.6963
 Frc consts  --      1.2326                 0.9468                 1.0273
 IR Inten    --     31.8900                 3.2649                17.5692

                     22                     23                     24
                      A                      A                      A
 Frequencies --   1051.2524              1077.6447              1080.0797
 Red. masses --      1.3275                 2.0716                 1.4058
 Frc consts  --      0.8644                 1.4174                 0.9662
 IR Inten    --      1.1901                11.8299                 1.5642

                     25                     26                     27
                      A                      A                      A
 Frequencies --   1082.8763              1119.8446              1134.4355
 Red. masses --      1.9726                 4.3511                 1.8504
 Frc consts  --      1.3628                 3.2149                 1.4031
 IR Inten    --      5.3324                39.4450                 8.8223

                     28                     29                     30
                      A                      A                      A
 Frequencies --   1185.2491              1236.4896              1252.1951
 Red. masses --      1.3171                 1.5587                 1.3461
 Frc consts  --      1.0901                 1.4041                 1.2435
 IR Inten    --      0.0454                 2.2165                 2.8566

                     31                     32                     33
                      A                      A                      A
 Frequencies --   1285.0690              1366.1169              1425.3706
 Red. masses --      2.5568                 1.9759                 1.2132
 Frc consts  --      2.4877                 2.1726                 1.4522
 IR Inten    --     16.1311                 1.7550                 4.1823

                     34                     35                     36
                      A                      A                      A
 Frequencies --   1427.0516              1439.5153              1472.2548
 Red. masses --      1.2976                 1.1837                 1.0837
 Frc consts  --      1.5569                 1.4452                 1.3840
 IR Inten    --      4.5649                 5.4111                 4.7112

                     37                     38                     39
                      A                      A                      A
 Frequencies --   1496.8807              1499.8725              1507.2220
 Red. masses --      1.0457                 1.0599                 1.3114
 Frc consts  --      1.3805                 1.4048                 1.7552
 IR Inten    --      1.8437                 4.5970                 2.4092

                     40                     41                     42
                      A                      A                      A
 Frequencies --   1812.5674              1844.5404              2856.9582
 Red. masses --     10.0516                10.5193                 1.0803
 Frc consts  --     19.4570                21.0869                 5.1950
 IR Inten    --    248.7505                88.4509                 2.8004

                     43                     44                     45
                      A                      A                      A
 Frequencies --   2877.5333              3030.7755              3089.5981
 Red. masses --      1.0834                 1.0366                 1.0850
 Frc consts  --      5.2853                 5.6100                 6.1020
 IR Inten    --    172.5015                25.1688                 3.3479

                     46                     47                     48
                      A                      A                      A
 Frequencies --   3090.9125              3107.3664              3134.8053
 Red. masses --      1.1012                 1.0999                 1.0509
 Frc consts  --      6.1984                 6.2574                 6.0844
 IR Inten    --     20.4913                17.4041                11.6481

                     49                     50                     51
                      A                      A                      A
 Frequencies --   3138.6771              3214.6482              3227.3934
 Red. masses --      1.0593                 1.1179                 1.1155
 Frc consts  --      6.1486                 6.8062                 6.8457
 IR Inten    --      7.1780                 0.0854                10.3646

 - Thermochemistry -
 -------------------
 Temperature   298.150 Kelvin.  Pressure   1.00000 Atm.
 Atom     1 has atomic number  6 and mass  12.00000

 Molecular mass:   126.06808 amu.
 Principal axes and moments of inertia in atomic units:
                           1         2         3
     Eigenvalues --  1075.144501167.092601683.88452
           X            0.99995  -0.00013  -0.01017
           Y            0.00013   1.00000   0.00003
           Z            0.01017  -0.00003   0.99995
 This molecule is an asymmetric top.
 Rotational symmetry number  1.
 Warning -- assumption of classical behavior for rotation
           may cause significant error
 Rotational temperatures (Kelvin)      0.08056     0.07421     0.05144
 Rotational constants (GHZ):           1.67860     1.54636     1.07177
 Zero-point vibrational energy     408229.1 (Joules/Mol)
                                   97.56909 (Kcal/Mol)
 Warning -- explicit consideration of  13 degrees of freedom as
           vibrations may cause significant error
 Vibrational temperatures:     50.47    75.90    98.12   268.68   304.20
          (Kelvin)            327.95   381.07   476.50   508.89   545.85
                              619.07   676.56   829.61  1014.34  1127.61
                             1254.18  1291.60  1338.13  1355.29  1371.13
                             1458.72  1512.52  1550.49  1553.99  1558.02
                             1611.20  1632.20  1705.31  1779.03  1801.63
                             1848.93  1965.54  2050.79  2053.21  2071.14
                             2118.24  2153.67  2157.98  2168.55  2607.88
                             2653.88  4110.52  4140.12  4360.60  4445.24
                             4447.13  4470.80  4510.28  4515.85  4625.16
                             4643.49

 Zero-point correction=                           0.155486 (Hartree/Particle)
 Thermal correction to Energy=                    0.165438
 Thermal correction to Enthalpy=                  0.166382
 Thermal correction to Gibbs Free Energy=         0.119228
 Sum of electronic and zero-point Energies=           -423.025442
 Sum of electronic and thermal Energies=              -423.015490
 Sum of electronic and thermal Enthalpies=            -423.014546
 Sum of electronic and thermal Free Energies=         -423.061700

                     E (Thermal)             CV                S
                      KCal/Mol        Cal/Mol-Kelvin    Cal/Mol-Kelvin
 Total                  103.814             35.060             99.245
 Electronic               0.000              0.000              0.000
 Translational            0.889              2.981             40.409
 Rotational               0.889              2.981             29.137
 Vibrational            102.037             29.098             29.700
 Vibration     1          0.594              1.982              5.519
 Vibration     2          0.596              1.977              4.711
 Vibration     3          0.598              1.969              4.205
 Vibration     4          0.632              1.858              2.260
 Vibration     5          0.643              1.823              2.031
 Vibration     6          0.651              1.798              1.895
 Vibration     7          0.671              1.737              1.630
 Vibration     8          0.714              1.613              1.254
 Vibration     9          0.730              1.568              1.150
 Vibration    10          0.749              1.514              1.042
 Vibration    11          0.791              1.404              0.858
 Vibration    12          0.827              1.316              0.737
 Vibration    13          0.933              1.082              0.492

 Optimization completed.
    -- Stationary point found.
 Normal termination of Gaussian 09 at Mon Jan 27 17:17:51 2020.
