 Gaussian 09, Revision D.01,
 Gaussian 09:  ES64L-G09RevD.01 24-Apr-2013

 -----------------------------
 # b3lyp 6-31G(2df,p) opt Freq
 -----------------------------

 -----
 titel
 -----
 Symbolic Z-matrix:
 Charge =  0 Multiplicity = 1

 SCF Done:  E(RB3LYP) =  -423.166662692     A.U. after   13 cycles
 Optimization completed.
    -- Stationary point found.
 Normal termination of Gaussian 09 at Mon Jan 27 23:53:13 2020.

 ----------------------------------------------------------------------
 #N Geom=AllCheck Guess=TCheck SCRF=Check GenChk RB3LYP/6-31G(2df,p) Fr
 eq
 ----------------------------------------------------------------------

 Structure from the checkpoint file:  "/scratch/puck/g09_7a9b7194-42b0-4f39-af6a-fcd145c2e78f/Gau-194139.chk"
 -----
 titel
 -----
 Charge =  0 Multiplicity = 1

                         Standard orientation:
 ---------------------------------------------------------------------
 Center     Atomic      Atomic             Coordinates (Angstroms)
 Number     Number       Type             X           Y           Z
 ---------------------------------------------------------------------
      1          6           0        2.731486   -0.383711    0.168913
      2          6           0        1.452628    0.446211    0.199125
      3          6           0        0.470020    0.341673   -0.998356
      4          8           0       -0.530245    1.311421   -0.643323
      5          6           0       -0.932578    0.803536    0.656594
      6          6           0       -2.106421   -0.125044    0.363178
      7          8           0       -1.501873   -1.155971   -0.438857
      8          6           0       -0.110708   -0.965183   -0.344119
      9          6           0        0.239236   -0.172518    0.948094
     10          1           0        3.439088    0.026904   -0.559258
     11          1           0        3.222461   -0.369218    1.147920
     12          1           0        2.557183   -1.431200   -0.092772
     13          1           0        1.676568    1.485021    0.458421
     14          1           0        0.752059    0.452701   -2.044657
     15          1           0       -1.117607    1.622364    1.352762
     16          1           0       -2.554355   -0.561065    1.268828
     17          1           0       -2.881911    0.382523   -0.217790
     18          1           0        0.408952   -1.896476   -0.554314
     19          1           0        0.292533   -0.624946    1.937725
 ---------------------------------------------------------------------

 SCF Done:  E(RB3LYP) =  -423.166662692     A.U. after    1 cycles

 The electronic state is 1-A.
 Alpha  occ. eigenvalues --  -19.13798 -19.13652 -10.23583 -10.23286 -10.23028
 Alpha  occ. eigenvalues --  -10.22459 -10.19448 -10.19294 -10.18303  -1.06662
 Alpha  occ. eigenvalues --   -1.01004  -0.83639  -0.75700  -0.72520  -0.65724
 Alpha  occ. eigenvalues --   -0.62084  -0.56794  -0.54631  -0.53482  -0.49253
 Alpha  occ. eigenvalues --   -0.47045  -0.44656  -0.41841  -0.41090  -0.39342
 Alpha  occ. eigenvalues --   -0.38623  -0.37727  -0.35440  -0.34244  -0.33875
 Alpha  occ. eigenvalues --   -0.31563  -0.30806  -0.25786  -0.22512
 Alpha virt. eigenvalues --    0.08614   0.09624   0.11554   0.12058   0.12396
 Alpha virt. eigenvalues --    0.14638   0.14892   0.15376   0.15841   0.16240
 Alpha virt. eigenvalues --    0.17769   0.18379   0.19451   0.20576   0.21506

 Mulliken charges:
               1
     1  C   -0.429509
     2  C    0.008018
     3  C    0.037431
     4  O   -0.285255
     5  C    0.046336
     6  C   -0.075994
     7  O   -0.280537
     8  C    0.125366
     9  C   -0.115351
    10  H    0.121422
    11  H    0.121263
    12  H    0.120173
    13  H    0.078805
    14  H    0.078343
    15  H    0.081525
    16  H    0.088574
    17  H    0.116128
    18  H    0.090115
    19  H    0.073147
 Sum of Mulliken charges =   0.00000

 Dipole moment (field-independent basis, Debye):
    X=              1.2992    Y=             -0.1261    Z=              1.5057  Tot=              1.9927
 Quadrupole moment (field-independent basis, Debye-Ang):
   XX=            -51.7134   YY=            -56.1718   ZZ=            -51.7596
   XY=             -2.2043   XZ=             -3.2754   YZ=              1.0313

  Exact polarizability:  87.823  -1.819  65.579  -3.914   0.279  67.883
 Approx polarizability: 113.532  -1.693 103.811  -4.127   0.261 106.387

                      1                      2                      3
                      A                      A                      A
 Frequencies --    189.1387               222.4956               234.5474
 Red. masses --      1.0325                 3.2045                 2.4136
 Frc consts  --      0.0218                 0.0935                 0.0782
 IR Inten    --      0.0345                 0.7468                 1.2662

                      4                      5                      6
                      A                      A                      A
 Frequencies --    286.6422               406.8434               442.5856
 Red. masses --      3.1743                 3.2627                 3.4737
 Frc consts  --      0.1537                 0.3182                 0.4009
 IR Inten    --      3.5916                 0.3484                 3.1857

                      7                      8                      9
                      A                      A                      A
 Frequencies --    504.2822               621.9775               704.9600
 Red. masses --      4.4480                 4.5224                 4.7571
 Frc consts  --      0.6664                 1.0308                 1.3929
 IR Inten    --      2.5601                 0.6829                 5.2336

                     10                     11                     12
                      A                      A                      A
 Frequencies --    777.9170               804.2055               825.0028
 Red. masses --      4.5470                 2.0818                 2.7333
 Frc consts  --      1.6212                 0.7933                 1.0961
 IR Inten    --      9.4206                 6.6384                 2.7070

                     13                     14                     15
                      A                      A                      A
 Frequencies --    855.1401               883.5747               924.3051
 Red. masses --      2.5952                 2.4233                 2.4930
 Frc consts  --      1.1182                 1.1147                 1.2549
 IR Inten    --     21.1667                10.0174                14.3259

                     16                     17                     18
                      A                      A                      A
 Frequencies --    929.8282               948.5300               973.0826
 Red. masses --      3.0820                 1.6384                 2.6221
 Frc consts  --      1.5700                 0.8685                 1.4628
 IR Inten    --      6.0692                 4.8937                16.4914

                     19                     20                     21
                      A                      A                      A
 Frequencies --    997.9420              1025.7626              1039.9496
 Red. masses --      4.5300                 1.9002                 2.0860
 Frc consts  --      2.6580                 1.1780                 1.3292
 IR Inten    --     42.6848                 5.2439                 4.3769

                     22                     23                     24
                      A                      A                      A
 Frequencies --   1069.9790              1078.2545              1105.8829
 Red. masses --      1.7919                 1.6296                 2.1908
 Frc consts  --      1.2087                 1.1163                 1.5786
 IR Inten    --     19.8080                 4.5499                11.6808

                     25                     26                     27
                      A                      A                      A
 Frequencies --   1115.6657              1137.0748              1183.1382
 Red. masses --      2.9479                 2.8899                 1.5195
 Frc consts  --      2.1619                 2.2015                 1.2532
 IR Inten    --     86.9327                30.4096                 3.8365

                     28                     29                     30
                      A                      A                      A
 Frequencies --   1196.2570              1224.7725              1234.9726
 Red. masses --      1.1905                 1.4848                 1.5605
 Frc consts  --      1.0037                 1.3123                 1.4022
 IR Inten    --      1.3884                 4.2427                 4.0715

                     31                     32                     33
                      A                      A                      A
 Frequencies --   1257.1057              1268.3731              1287.4537
 Red. masses --      1.5725                 1.4426                 1.6324
 Frc consts  --      1.4642                 1.3674                 1.5942
 IR Inten    --      0.9258                 5.7943                 1.8799

                     34                     35                     36
                      A                      A                      A
 Frequencies --   1327.9928              1329.8233              1384.1923
 Red. masses --      1.4101                 1.4031                 1.5806
 Frc consts  --      1.4652                 1.4619                 1.7843
 IR Inten    --      6.1288                 4.7964                 1.5344

                     37                     38                     39
                      A                      A                      A
 Frequencies --   1391.4121              1417.9057              1496.1760
 Red. masses --      1.5034                 1.2304                 1.0478
 Frc consts  --      1.7149                 1.4574                 1.3819
 IR Inten    --      5.3408                 1.5932                 2.9931

                     40                     41                     42
                      A                      A                      A
 Frequencies --   1502.5102              1505.8691              2992.2835
 Red. masses --      1.0488                 1.0977                 1.0683
 Frc consts  --      1.3950                 1.4666                 5.6356
 IR Inten    --      4.5009                 0.2992                77.9041

                     43                     44                     45
                      A                      A                      A
 Frequencies --   3034.6511              3064.0300              3085.0386
 Red. masses --      1.0363                 1.0855                 1.0960
 Frc consts  --      5.6231                 6.0045                 6.1460
 IR Inten    --     28.4723                16.7479                25.1766

                     46                     47                     48
                      A                      A                      A
 Frequencies --   3094.3773              3109.9511              3112.0286
 Red. masses --      1.1011                 1.0993                 1.0895
 Frc consts  --      6.2119                 6.2641                 6.2169
 IR Inten    --     20.3886                26.6984                32.3461

                     49                     50                     51
                      A                      A                      A
 Frequencies --   3125.3317              3131.9263              3156.6729
 Red. masses --      1.0894                 1.0917                 1.0908
 Frc consts  --      6.2697                 6.3090                 6.4041
 IR Inten    --     50.6461                21.5727                24.4726

 - Thermochemistry -
 -------------------
 Temperature   298.150 Kelvin.  Pressure   1.00000 Atm.
 Atom     1 has atomic number  6 and mass  12.00000

 Molecular mass:   126.06808 amu.
 Principal axes and moments of inertia in atomic units:
                           1         2         3
     Eigenvalues --   502.101831165.342341274.50713
           X            0.99964  -0.02316  -0.01373
           Y            0.02348   0.99945   0.02356
           Z            0.01317  -0.02387   0.99963
 This molecule is an asymmetric top.
 Rotational symmetry number  1.
 Warning -- assumption of classical behavior for rotation
           may cause significant error
 Rotational temperatures (Kelvin)      0.17250     0.07432     0.06796
 Rotational constants (GHZ):           3.59437     1.54868     1.41603
 Zero-point vibrational energy     424792.8 (Joules/Mol)
                                  101.52792 (Kcal/Mol)
 Warning -- explicit consideration of   7 degrees of freedom as
           vibrations may cause significant error
 Vibrational temperatures:    272.13   320.12   337.46   412.41   585.36
          (Kelvin)            636.78   725.55   894.89  1014.28  1119.25
                             1157.07  1186.99  1230.35  1271.27  1329.87
                             1337.81  1364.72  1400.05  1435.81  1475.84
                             1496.25  1539.46  1551.37  1591.12  1605.19
                             1635.99  1702.27  1721.14  1762.17  1776.85
                             1808.69  1824.90  1852.36  1910.68  1913.32
                             1991.54  2001.93  2040.05  2152.66  2161.77
                             2166.61  4305.22  4366.18  4408.45  4438.68
                             4452.11  4474.52  4477.51  4496.65  4506.14
                             4541.74

 Zero-point correction=                           0.161795 (Hartree/Particle)
 Thermal correction to Energy=                    0.168655
 Thermal correction to Enthalpy=                  0.169599
 Thermal correction to Gibbs Free Energy=         0.130874
 Sum of electronic and zero-point Energies=           -423.004868
 Sum of electronic and thermal Energies=              -422.998008
 Sum of electronic and thermal Enthalpies=            -422.997064
 Sum of electronic and thermal Free Energies=         -423.035789

                     E (Thermal)             CV                S
                      KCal/Mol        Cal/Mol-Kelvin    Cal/Mol-Kelvin
 Total                  105.833             28.351             81.504
 Electronic               0.000              0.000              0.000
 Translational            0.889              2.981             40.409
 Rotational               0.889              2.981             28.102
 Vibrational            104.055             22.390             12.994
 Vibration     1          0.633              1.855              2.236
 Vibration     2          0.648              1.807              1.939
 Vibration     3          0.654              1.788              1.844
 Vibration     4          0.684              1.699              1.494
 Vibration     5          0.772              1.455              0.938
 Vibration     6          0.802              1.377              0.819
 Vibration     7          0.860              1.241              0.648

 Normal termination of Gaussian 09 at Tue Jan 28 00:39:32 2020.
