 Gaussian 09, Revision D.01,
 Gaussian 09:  ES64L-G09RevD.01 24-Apr-2013

 -----------------------------
 # b3lyp 6-31G(2df,p) opt Freq
 -----------------------------

 -----
 titel
 -----
 Symbolic Z-matrix:
 Charge =  0 Multiplicity = 1

 SCF Done:  E(RB3LYP) =  -423.121056782     A.U. after   13 cycles
 Optimization completed.
    -- Stationary point found.
 Normal termination of Gaussian 09 at Mon Jan 27 17:39:30 2020.

 ----------------------------------------------------------------------
 #N Geom=AllCheck Guess=TCheck SCRF=Check GenChk RB3LYP/6-31G(2df,p) Fr
 eq
 ----------------------------------------------------------------------

 Structure from the checkpoint file:  "/scratch/puck/g09_20344c73-45c1-48b5-aad3-d9570c22d97d/Gau-39963.chk"
 -----
 titel
 -----
 Charge =  0 Multiplicity = 1

                         Standard orientation:
 ---------------------------------------------------------------------
 Center     Atomic      Atomic             Coordinates (Angstroms)
 Number     Number       Type             X           Y           Z
 ---------------------------------------------------------------------
      1          6           0        2.405987    0.353750   -0.260237
      2          6           0        1.011069   -0.145033   -0.061116
      3          8           0        0.685979   -1.446330   -0.556094
      4          6           0        0.425944   -1.179027    0.826279
      5          6           0       -0.915031   -0.397632    0.902486
      6          8           0       -1.915005   -0.766782   -0.056638
      7          6           0       -1.418785    0.206264   -1.012599
      8          6           0       -0.318144    0.685604   -0.030030
      9          6           0       -0.222916    2.146423    0.342763
     10          1           0        2.563397    0.662703   -1.300143
     11          1           0        2.614969    1.214990    0.381387
     12          1           0        3.124360   -0.437525   -0.030256
     13          1           0        0.878958   -1.850392    1.548914
     14          1           0       -1.304543   -0.195222    1.904472
     15          1           0       -1.077195   -0.266761   -1.937246
     16          1           0       -2.181354    0.963878   -1.232605
     17          1           0        0.216484    2.737580   -0.469499
     18          1           0       -1.212575    2.560814    0.559862
     19          1           0        0.400959    2.292738    1.231690
 ---------------------------------------------------------------------

 SCF Done:  E(RB3LYP) =  -423.121056781     A.U. after    1 cycles

 The electronic state is 1-A.
 Alpha  occ. eigenvalues --  -19.15269 -19.12879 -10.24558 -10.23357 -10.23300
 Alpha  occ. eigenvalues --  -10.22356 -10.19934 -10.19143 -10.18865  -1.08571
 Alpha  occ. eigenvalues --   -1.02650  -0.80474  -0.74240  -0.72618  -0.67948
 Alpha  occ. eigenvalues --   -0.61043  -0.59283  -0.51827  -0.50678  -0.48920
 Alpha  occ. eigenvalues --   -0.46275  -0.44594  -0.42676  -0.41792  -0.40513
 Alpha  occ. eigenvalues --   -0.40433  -0.39271  -0.37796  -0.34321  -0.33814
 Alpha  occ. eigenvalues --   -0.30253  -0.26573  -0.25749  -0.23910
 Alpha virt. eigenvalues --    0.05621   0.08653   0.09732   0.12131   0.12390
 Alpha virt. eigenvalues --    0.13323   0.13551   0.13985   0.15212   0.16127
 Alpha virt. eigenvalues --    0.16170   0.17160   0.18137   0.20440   0.22072

 Mulliken charges:
               1
     1  C   -0.511504
     2  C    0.357391
     3  O   -0.266335
     4  C   -0.076891
     5  C    0.045853
     6  O   -0.285705
     7  C   -0.122110
     8  C    0.210161
     9  C   -0.501202
    10  H    0.132332
    11  H    0.126832
    12  H    0.137812
    13  H    0.101638
    14  H    0.075301
    15  H    0.112781
    16  H    0.093374
    17  H    0.123438
    18  H    0.126781
    19  H    0.120054
 Sum of Mulliken charges =   0.00000

 Dipole moment (field-independent basis, Debye):
    X=              1.6800    Y=              2.4214    Z=              1.1469  Tot=              3.1625
 Quadrupole moment (field-independent basis, Debye-Ang):
   XX=            -54.8638   YY=            -54.9306   ZZ=            -50.4382
   XY=             -2.0691   XZ=              0.6634   YZ=             -3.0545

  Exact polarizability:  78.797  -1.392  74.421   0.109  -4.455  69.686
 Approx polarizability: 107.607   0.999 109.571  -1.858  -5.545 109.887

                      1                      2                      3
                      A                      A                      A
 Frequencies --    150.6258               189.3991               210.7398
 Red. masses --      2.7598                 1.1579                 1.5968
 Frc consts  --      0.0369                 0.0245                 0.0418
 IR Inten    --      0.7680                 0.1741                 0.1998

                      4                      5                      6
                      A                      A                      A
 Frequencies --    235.1132               258.4839               281.7678
 Red. masses --      1.3746                 3.0320                 2.6432
 Frc consts  --      0.0448                 0.1194                 0.1236
 IR Inten    --      1.1534                 1.7397                 1.9019

                      7                      8                      9
                      A                      A                      A
 Frequencies --    341.8458               380.5436               492.5364
 Red. masses --      2.8379                 3.7268                 2.7123
 Frc consts  --      0.1954                 0.3180                 0.3877
 IR Inten    --      0.7199                 1.8430                 2.7428

                     10                     11                     12
                      A                      A                      A
 Frequencies --    549.3582               594.1093               703.2632
 Red. masses --      4.1891                 3.9408                 5.3799
 Frc consts  --      0.7449                 0.8195                 1.5677
 IR Inten    --      8.7745                 4.3434                 9.2516

                     13                     14                     15
                      A                      A                      A
 Frequencies --    768.4984               797.8665               834.3732
 Red. masses --      3.6372                 3.7717                 2.7825
 Frc consts  --      1.2656                 1.4146                 1.1413
 IR Inten    --      2.0869                 3.6550                16.2429

                     16                     17                     18
                      A                      A                      A
 Frequencies --    882.6868               890.6454               907.0734
 Red. masses --      1.9529                 2.3270                 2.0459
 Frc consts  --      0.8965                 1.0876                 0.9918
 IR Inten    --      9.7690                12.2316                 5.7915

                     19                     20                     21
                      A                      A                      A
 Frequencies --    977.3266               992.9534              1000.4405
 Red. masses --      1.4727                 3.3870                 2.1253
 Frc consts  --      0.8288                 1.9675                 1.2533
 IR Inten    --      2.5720                35.1460                 4.2793

                     22                     23                     24
                      A                      A                      A
 Frequencies --   1026.4408              1032.9675              1097.4150
 Red. masses --      3.9495                 2.1204                 1.7286
 Frc consts  --      2.4517                 1.3330                 1.2265
 IR Inten    --     31.2493                22.2888                18.0151

                     25                     26                     27
                      A                      A                      A
 Frequencies --   1141.5983              1149.7608              1170.9363
 Red. masses --      1.7676                 1.7291                 1.9400
 Frc consts  --      1.3572                 1.3468                 1.5672
 IR Inten    --      5.3434                 8.1636                 0.4940

                     28                     29                     30
                      A                      A                      A
 Frequencies --   1177.8811              1234.4050              1257.6580
 Red. masses --      1.6931                 2.4028                 1.5648
 Frc consts  --      1.3840                 2.1571                 1.4583
 IR Inten    --      4.5667                 3.9756                 8.4731

                     31                     32                     33
                      A                      A                      A
 Frequencies --   1288.6776              1300.5222              1367.4698
 Red. masses --      1.5392                 2.1331                 1.8531
 Frc consts  --      1.5060                 2.1257                 2.0416
 IR Inten    --      6.1644                 7.8156                 1.2298

                     34                     35                     36
                      A                      A                      A
 Frequencies --   1399.3596              1415.0118              1447.3851
 Red. masses --      1.3297                 1.2715                 3.1746
 Frc consts  --      1.5341                 1.5000                 3.9184
 IR Inten    --      4.6081                 1.0603                12.6264

                     37                     38                     39
                      A                      A                      A
 Frequencies --   1480.8132              1488.6488              1495.4746
 Red. masses --      1.0963                 1.0920                 1.0711
 Frc consts  --      1.4164                 1.4258                 1.4114
 IR Inten    --      7.0527                 4.3999                 5.1528

                     40                     41                     42
                      A                      A                      A
 Frequencies --   1497.0722              1506.6985              3018.9361
 Red. masses --      1.0538                 1.1162                 1.0571
 Frc consts  --      1.3915                 1.4929                 5.6765
 IR Inten    --      3.8760                 1.2726                52.1912

                     43                     44                     45
                      A                      A                      A
 Frequencies --   3024.5550              3034.6687              3070.4944
 Red. masses --      1.0402                 1.0373                 1.0889
 Frc consts  --      5.6067                 5.6285                 6.0484
 IR Inten    --     36.3749                23.5979                39.5652

                     46                     47                     48
                      A                      A                      A
 Frequencies --   3085.3563              3092.0687              3097.5275
 Red. masses --      1.1002                 1.1032                 1.0995
 Frc consts  --      6.1705                 6.2144                 6.2157
 IR Inten    --     17.7001                16.3957                24.1556

                     49                     50                     51
                      A                      A                      A
 Frequencies --   3099.4313              3122.9781              3166.0060
 Red. masses --      1.0999                 1.1014                 1.0943
 Frc consts  --      6.2257                 6.3287                 6.4625
 IR Inten    --     25.3197                12.2145                25.2808

 - Thermochemistry -
 -------------------
 Temperature   298.150 Kelvin.  Pressure   1.00000 Atm.
 Atom     1 has atomic number  6 and mass  12.00000

 Molecular mass:   126.06808 amu.
 Principal axes and moments of inertia in atomic units:
                           1         2         3
     Eigenvalues --   725.21842 972.505491320.43280
           X            0.99988  -0.01453   0.00577
           Y            0.01460   0.99981  -0.01307
           Z           -0.00557   0.01316   0.99990
 This molecule is an asymmetric top.
 Rotational symmetry number  1.
 Warning -- assumption of classical behavior for rotation
           may cause significant error
 Rotational temperatures (Kelvin)      0.11943     0.08906     0.06560
 Rotational constants (GHZ):           2.48855     1.85576     1.36678
 Zero-point vibrational energy     414074.6 (Joules/Mol)
                                   98.96621 (Kcal/Mol)
 Warning -- explicit consideration of  11 degrees of freedom as
           vibrations may cause significant error
 Vibrational temperatures:    216.72   272.50   303.21   338.28   371.90
          (Kelvin)            405.40   491.84   547.52   708.65   790.40
                              854.79  1011.84  1105.70  1147.95  1200.48
                             1269.99  1281.44  1305.07  1406.15  1428.64
                             1439.41  1476.82  1486.21  1578.93  1642.50
                             1654.25  1684.71  1694.71  1776.03  1809.49
                             1854.12  1871.16  1967.48  2013.36  2035.88
                             2082.46  2130.56  2141.83  2151.65  2153.95
                             2167.80  4343.57  4351.65  4366.21  4417.75
                             4439.13  4448.79  4456.65  4459.38  4493.26
                             4555.17

 Zero-point correction=                           0.157713 (Hartree/Particle)
 Thermal correction to Energy=                    0.165920
 Thermal correction to Enthalpy=                  0.166864
 Thermal correction to Gibbs Free Energy=         0.125550
 Sum of electronic and zero-point Energies=           -422.963344
 Sum of electronic and thermal Energies=              -422.955137
 Sum of electronic and thermal Enthalpies=            -422.954192
 Sum of electronic and thermal Free Energies=         -422.995506

                     E (Thermal)             CV                S
                      KCal/Mol        Cal/Mol-Kelvin    Cal/Mol-Kelvin
 Total                  104.117             32.169             86.953
 Electronic               0.000              0.000              0.000
 Translational            0.889              2.981             40.409
 Rotational               0.889              2.981             28.323
 Vibrational            102.339             26.207             18.221
 Vibration     1          0.618              1.902              2.664
 Vibration     2          0.633              1.854              2.234
 Vibration     3          0.643              1.824              2.037
 Vibration     4          0.655              1.787              1.840
 Vibration     5          0.667              1.748              1.672
 Vibration     6          0.681              1.707              1.523
 Vibration     7          0.721              1.592              1.204
 Vibration     8          0.750              1.512              1.037
 Vibration     9          0.848              1.267              0.677
 Vibration    10          0.905              1.141              0.546
 Vibration    11          0.952              1.044              0.460

 Normal termination of Gaussian 09 at Mon Jan 27 18:40:55 2020.
