 Gaussian 09, Revision D.01,
 Gaussian 09:  ES64L-G09RevD.01 24-Apr-2013

 -----------------------------
 # b3lyp 6-31G(2df,p) opt Freq
 -----------------------------

 -----
 titel
 -----
 Symbolic Z-matrix:
 Charge =  0 Multiplicity = 1

 SCF Done:  E(RB3LYP) =  -423.131979169     A.U. after   14 cycles
 Optimization completed.
    -- Stationary point found.
 Normal termination of Gaussian 09 at Tue Jan 28 04:02:02 2020.

 ----------------------------------------------------------------------
 #N Geom=AllCheck Guess=TCheck SCRF=Check GenChk RB3LYP/6-31G(2df,p) Fr
 eq
 ----------------------------------------------------------------------

 Structure from the checkpoint file:  "/scratch/puck/g09_a2d2d46d-38ca-4eae-848d-ea47688b51c5/Gau-93605.chk"
 -----
 titel
 -----
 Charge =  0 Multiplicity = 1

                         Standard orientation:
 ---------------------------------------------------------------------
 Center     Atomic      Atomic             Coordinates (Angstroms)
 Number     Number       Type             X           Y           Z
 ---------------------------------------------------------------------
      1          6           0        0.084273   -0.356529    1.724327
      2          6           0        0.203214   -0.488409    0.215552
      3          6           0       -1.064123   -1.070484   -0.437508
      4          6           0       -2.200928   -0.163243   -0.345139
      5          6           0       -3.108602    0.621961   -0.265070
      6          8           0        1.356488   -1.292901   -0.156041
      7          6           0        2.048077   -0.148915   -0.701749
      8          6           0        0.813517    0.742788   -0.527428
      9          8           0        1.072387    1.914328    0.201450
     10          1           0       -0.000794   -1.352349    2.170933
     11          1           0        0.962561    0.142026    2.138228
     12          1           0       -0.803422    0.221852    1.997444
     13          1           0       -0.840410   -1.285541   -1.489031
     14          1           0       -1.301844   -2.032484    0.033295
     15          1           0       -3.928817    1.293046   -0.197493
     16          1           0        2.888602    0.169027   -0.072742
     17          1           0        2.400120   -0.325707   -1.723380
     18          1           0        0.288818    0.962181   -1.465662
     19          1           0        0.251605    2.413518    0.267214
 ---------------------------------------------------------------------

 SCF Done:  E(RB3LYP) =  -423.131979169     A.U. after    1 cycles

 The electronic state is 1-A.
 Alpha  occ. eigenvalues --  -19.14875 -19.13229 -10.24174 -10.23805 -10.22724
 Alpha  occ. eigenvalues --  -10.20917 -10.19025 -10.17891 -10.17272  -1.04822
 Alpha  occ. eigenvalues --   -1.02053  -0.80746  -0.74263  -0.72581  -0.69884
 Alpha  occ. eigenvalues --   -0.63567  -0.54737  -0.53469  -0.52555  -0.49506
 Alpha  occ. eigenvalues --   -0.47789  -0.44569  -0.43636  -0.43127  -0.40861
 Alpha  occ. eigenvalues --   -0.38625  -0.37146  -0.36630  -0.33820  -0.30917
 Alpha  occ. eigenvalues --   -0.28259  -0.27253  -0.26292  -0.24766
 Alpha virt. eigenvalues --    0.04090   0.05001   0.07115   0.08894   0.11186
 Alpha virt. eigenvalues --    0.12044   0.12429   0.13873   0.14937   0.15787
 Alpha virt. eigenvalues --    0.17316   0.18652   0.18853   0.19765   0.22382

 Mulliken charges:
               1
     1  C   -0.434705
     2  C    0.376134
     3  C   -0.404806
     4  C    0.302744
     5  C   -0.460180
     6  O   -0.326348
     7  C   -0.094595
     8  C    0.026965
     9  O   -0.421007
    10  H    0.122044
    11  H    0.132137
    12  H    0.124036
    13  H    0.133391
    14  H    0.136376
    15  H    0.198841
    16  H    0.112342
    17  H    0.105370
    18  H    0.080187
    19  H    0.291074
 Sum of Mulliken charges =   0.00000

 Dipole moment (field-independent basis, Debye):
    X=             -1.2778    Y=              1.1574    Z=             -0.4662  Tot=              1.7860
 Quadrupole moment (field-independent basis, Debye-Ang):
   XX=            -53.0501   YY=            -53.2303   ZZ=            -52.3428
   XY=             -2.6438   XZ=             -1.8152   YZ=             -0.2739

  Exact polarizability:  91.891  -9.521  71.366  -2.702   0.895  65.463
 Approx polarizability: 127.107 -22.217 114.480  -4.164   3.140  92.705

                      1                      2                      3
                      A                      A                      A
 Frequencies --     55.5324                76.7722               135.5225
 Red. masses --      4.0255                 2.7530                 3.6114
 Frc consts  --      0.0073                 0.0096                 0.0391
 IR Inten    --      0.7823                 0.6983                 1.1338

                      4                      5                      6
                      A                      A                      A
 Frequencies --    199.2258               238.7973               273.5101
 Red. masses --      1.1190                 2.6733                 2.8605
 Frc consts  --      0.0262                 0.0898                 0.1261
 IR Inten    --      0.0706                 0.4892                11.5886

                      7                      8                      9
                      A                      A                      A
 Frequencies --    317.1971               330.8255               358.0499
 Red. masses --      1.5516                 2.1961                 2.5352
 Frc consts  --      0.0920                 0.1416                 0.1915
 IR Inten    --     61.6012                38.8613                 5.6317

                     10                     11                     12
                      A                      A                      A
 Frequencies --    382.0346               431.5047               486.8643
 Red. masses --      3.9315                 2.6771                 4.7320
 Frc consts  --      0.3381                 0.2937                 0.6609
 IR Inten    --     10.5517                 9.5297                 3.3079

                     13                     14                     15
                      A                      A                      A
 Frequencies --    545.3504               627.0723               648.2076
 Red. masses --      4.1970                 1.2161                 1.2705
 Frc consts  --      0.7354                 0.2817                 0.3145
 IR Inten    --      6.7193                44.5551                39.5631

                     16                     17                     18
                      A                      A                      A
 Frequencies --    692.9325               781.9246               875.0438
 Red. masses --      3.2390                 2.9570                 2.3261
 Frc consts  --      0.9163                 1.0652                 1.0494
 IR Inten    --      7.8780                 3.1058                15.0967

                     19                     20                     21
                      A                      A                      A
 Frequencies --    918.8325               948.8634               956.8297
 Red. masses --      1.7433                 2.0692                 2.4772
 Frc consts  --      0.8671                 1.0976                 1.3362
 IR Inten    --      7.4782                10.0385                 1.7685

                     22                     23                     24
                      A                      A                      A
 Frequencies --    974.5323              1006.7442              1034.4416
 Red. masses --      2.3127                 3.9356                 2.7100
 Frc consts  --      1.2941                 2.3502                 1.7086
 IR Inten    --      5.6494                64.7528                73.3304

                     25                     26                     27
                      A                      A                      A
 Frequencies --   1122.5415              1132.8320              1151.0125
 Red. masses --      2.6071                 1.7221                 1.6483
 Frc consts  --      1.9356                 1.3021                 1.2866
 IR Inten    --     37.6213                15.5417                33.1571

                     28                     29                     30
                      A                      A                      A
 Frequencies --   1169.3659              1219.9437              1242.9457
 Red. masses --      1.5154                 2.3203                 1.2711
 Frc consts  --      1.2209                 2.0346                 1.1570
 IR Inten    --     18.8939                14.5224                58.9006

                     31                     32                     33
                      A                      A                      A
 Frequencies --   1296.1788              1311.7853              1327.2363
 Red. masses --      1.8107                 1.5496                 1.4873
 Frc consts  --      1.7924                 1.5711                 1.5436
 IR Inten    --      6.5678                 1.9957                28.0682

                     34                     35                     36
                      A                      A                      A
 Frequencies --   1343.6327              1403.4356              1446.2097
 Red. masses --      1.4529                 1.3045                 1.4520
 Frc consts  --      1.5454                 1.5138                 1.7893
 IR Inten    --      2.2907                 9.5559                 9.9651

                     37                     38                     39
                      A                      A                      A
 Frequencies --   1466.5874              1483.1017              1493.5407
 Red. masses --      1.0797                 1.0604                 1.0681
 Frc consts  --      1.3683                 1.3742                 1.4038
 IR Inten    --      3.2159                 4.4263                 6.6274

                     40                     41                     42
                      A                      A                      A
 Frequencies --   1518.1534              2232.8030              3022.1570
 Red. masses --      1.1114                 5.9452                 1.0808
 Frc consts  --      1.5093                17.4630                 5.8158
 IR Inten    --      1.4227                 2.4535                39.0811

                     43                     44                     45
                      A                      A                      A
 Frequencies --   3025.7833              3029.6330              3044.3234
 Red. masses --      1.0603                 1.0599                 1.0366
 Frc consts  --      5.7193                 5.7316                 5.6605
 IR Inten    --     53.7398                13.5361                 8.9869

                     46                     47                     48
                      A                      A                      A
 Frequencies --   3065.8769              3078.7146              3113.5185
 Red. masses --      1.1019                 1.1094                 1.1009
 Frc consts  --      6.1025                 6.1955                 6.2877
 IR Inten    --      8.4254                44.5288                14.4754

                     49                     50                     51
                      A                      A                      A
 Frequencies --   3138.0913              3504.7453              3816.0279
 Red. masses --      1.1006                 1.1615                 1.0661
 Frc consts  --      6.3859                 8.4059                 9.1469
 IR Inten    --     13.0440                67.8761                22.8725

 - Thermochemistry -
 -------------------
 Temperature   298.150 Kelvin.  Pressure   1.00000 Atm.
 Atom     1 has atomic number  6 and mass  12.00000

 Molecular mass:   126.06808 amu.
 Principal axes and moments of inertia in atomic units:
                           1         2         3
     Eigenvalues --   727.226641429.278381642.76984
           X            0.99995  -0.00420  -0.00873
           Y            0.00408   0.99990  -0.01330
           Z            0.00879   0.01326   0.99987
 This molecule is an asymmetric top.
 Rotational symmetry number  1.
 Warning -- assumption of classical behavior for rotation
           may cause significant error
 Rotational temperatures (Kelvin)      0.11910     0.06060     0.05272
 Rotational constants (GHZ):           2.48168     1.26269     1.09860
 Zero-point vibrational energy     409701.8 (Joules/Mol)
                                   97.92107 (Kcal/Mol)
 Warning -- explicit consideration of  13 degrees of freedom as
           vibrations may cause significant error
 Vibrational temperatures:     79.90   110.46   194.99   286.64   343.58
          (Kelvin)            393.52   456.38   475.98   515.15   549.66
                              620.84   700.49   784.64   902.22   932.63
                              996.97  1125.01  1258.99  1321.99  1365.20
                             1376.66  1402.13  1448.48  1488.33  1615.08
                             1629.89  1656.05  1682.45  1755.22  1788.32
                             1864.91  1887.36  1909.59  1933.19  2019.23
                             2080.77  2110.09  2133.85  2148.87  2184.28
                             3212.50  4348.20  4353.42  4358.96  4380.10
                             4411.11  4429.58  4479.65  4515.01  5042.54
                             5490.41

 Zero-point correction=                           0.156047 (Hartree/Particle)
 Thermal correction to Energy=                    0.165815
 Thermal correction to Enthalpy=                  0.166760
 Thermal correction to Gibbs Free Energy=         0.121282
 Sum of electronic and zero-point Energies=           -422.975932
 Sum of electronic and thermal Energies=              -422.966164
 Sum of electronic and thermal Enthalpies=            -422.965220
 Sum of electronic and thermal Free Energies=         -423.010698

                     E (Thermal)             CV                S
                      KCal/Mol        Cal/Mol-Kelvin    Cal/Mol-Kelvin
 Total                  104.051             36.154             95.716
 Electronic               0.000              0.000              0.000
 Translational            0.889              2.981             40.409
 Rotational               0.889              2.981             28.925
 Vibrational            102.273             30.192             26.382
 Vibration     1          0.596              1.975              4.610
 Vibration     2          0.599              1.965              3.972
 Vibration     3          0.613              1.918              2.866
 Vibration     4          0.637              1.841              2.140
 Vibration     5          0.657              1.781              1.812
 Vibration     6          0.676              1.722              1.574
 Vibration     7          0.704              1.641              1.325
 Vibration     8          0.713              1.614              1.256
 Vibration     9          0.733              1.559              1.131
 Vibration    10          0.751              1.508              1.031
 Vibration    11          0.793              1.402              0.854
 Vibration    12          0.843              1.279              0.692
 Vibration    13          0.901              1.150              0.554

 Optimization completed.
    -- Stationary point found.
 Normal termination of Gaussian 09 at Tue Jan 28 04:44:45 2020.
