 Gaussian 09, Revision D.01,
 Gaussian 09:  ES64L-G09RevD.01 24-Apr-2013

 -----------------------------
 # b3lyp 6-31G(2df,p) opt Freq
 -----------------------------

 -----
 titel
 -----
 Symbolic Z-matrix:
 Charge =  0 Multiplicity = 1

 SCF Done:  E(RB3LYP) =  -423.160310176     A.U. after   14 cycles
 Optimization completed.
    -- Stationary point found.
 Normal termination of Gaussian 09 at Tue Jan 28 00:43:46 2020.

 ----------------------------------------------------------------------
 #N Geom=AllCheck Guess=TCheck SCRF=Check GenChk RB3LYP/6-31G(2df,p) Fr
 eq
 ----------------------------------------------------------------------

 Structure from the checkpoint file:  "/scratch/puck/g09_758ea8b1-b13f-4eec-8ca7-89690c002380/Gau-167056.chk"
 -----
 titel
 -----
 Charge =  0 Multiplicity = 1

                         Standard orientation:
 ---------------------------------------------------------------------
 Center     Atomic      Atomic             Coordinates (Angstroms)
 Number     Number       Type             X           Y           Z
 ---------------------------------------------------------------------
      1          6           0       -2.181631   -0.844701    0.874157
      2          6           0       -1.403978   -0.446916   -0.363368
      3          8           0       -0.412210   -1.445882   -0.739181
      4          6           0        0.663019   -0.493120   -0.703374
      5          6           0        1.737845   -0.865683    0.296731
      6          8           0        2.746029   -0.225056    0.452992
      7          6           0       -0.301634    0.610533   -0.246637
      8          6           0       -0.315807    2.052321   -0.639813
      9          6           0       -0.086789    1.660228    0.801937
     10          1           0       -2.729521   -1.773890    0.689457
     11          1           0       -1.512789   -0.998845    1.725815
     12          1           0       -2.909776   -0.069181    1.135972
     13          1           0       -2.088274   -0.265042   -1.203817
     14          1           0        1.120430   -0.328342   -1.688583
     15          1           0        1.496698   -1.767410    0.903998
     16          1           0        0.527417    2.433899   -1.206325
     17          1           0       -1.271928    2.492589   -0.906383
     18          1           0        0.914547    1.768871    1.204946
     19          1           0       -0.883511    1.838884    1.516644
 ---------------------------------------------------------------------

 SCF Done:  E(RB3LYP) =  -423.160310176     A.U. after    1 cycles

 The electronic state is 1-A.
 Alpha  occ. eigenvalues --  -19.14529 -19.14422 -10.27212 -10.24491 -10.24463
 Alpha  occ. eigenvalues --  -10.21319 -10.19762 -10.19688 -10.18509  -1.05704
 Alpha  occ. eigenvalues --   -1.04496  -0.86813  -0.76441  -0.71713  -0.65833
 Alpha  occ. eigenvalues --   -0.61430  -0.58651  -0.54181  -0.50877  -0.50708
 Alpha  occ. eigenvalues --   -0.47954  -0.45583  -0.43551  -0.42738  -0.39935
 Alpha  occ. eigenvalues --   -0.39108  -0.38607  -0.37180  -0.36724  -0.32595
 Alpha  occ. eigenvalues --   -0.30706  -0.29009  -0.27718  -0.24242
 Alpha virt. eigenvalues --   -0.03229   0.07292   0.08854   0.10207   0.10513
 Alpha virt. eigenvalues --    0.12079   0.13525   0.14161   0.15274   0.15910
 Alpha virt. eigenvalues --    0.17294   0.17622   0.20089   0.21656   0.22049

 Mulliken charges:
               1
     1  C   -0.401045
     2  C    0.089445
     3  O   -0.317527
     4  C   -0.016189
     5  C    0.129664
     6  O   -0.248881
     7  C    0.265083
     8  C   -0.324576
     9  C   -0.328309
    10  H    0.131826
    11  H    0.121619
    12  H    0.118352
    13  H    0.081861
    14  H    0.105534
    15  H    0.090454
    16  H    0.126421
    17  H    0.117180
    18  H    0.140173
    19  H    0.118917
 Sum of Mulliken charges =   0.00000

 Dipole moment (field-independent basis, Debye):
    X=             -2.4605    Y=              0.9213    Z=             -0.0209  Tot=              2.6274
 Quadrupole moment (field-independent basis, Debye-Ang):
   XX=            -57.9023   YY=            -54.3838   ZZ=            -52.4046
   XY=             -1.8395   XZ=             -2.5159   YZ=             -1.8943

  Exact polarizability:  83.833   1.535  76.152   0.088  -3.192  67.320
 Approx polarizability: 118.726   5.008 109.578   2.624  -1.263 100.376

                      1                      2                      3
                      A                      A                      A
 Frequencies --     46.7811                69.0678               163.7382
 Red. masses --      4.0348                 3.7844                 2.9365
 Frc consts  --      0.0052                 0.0106                 0.0464
 IR Inten    --      5.5406                 6.4351                 2.2853

                      4                      5                      6
                      A                      A                      A
 Frequencies --    196.3401               209.6108               228.7425
 Red. masses --      2.7505                 2.0525                 1.0784
 Frc consts  --      0.0625                 0.0531                 0.0332
 IR Inten    --      0.3659                 0.8746                 0.5573

                      7                      8                      9
                      A                      A                      A
 Frequencies --    318.6141               374.1301               416.5201
 Red. masses --      3.3887                 2.8548                 2.9272
 Frc consts  --      0.2027                 0.2354                 0.2992
 IR Inten    --      9.6540                 3.7959                 5.7801

                     10                     11                     12
                      A                      A                      A
 Frequencies --    462.7497               529.7863               589.4868
 Red. masses --      4.6455                 3.2587                 4.7290
 Frc consts  --      0.5861                 0.5389                 0.9682
 IR Inten    --      0.2579                 8.6034                10.0408

                     13                     14                     15
                      A                      A                      A
 Frequencies --    770.1899               787.2620               843.5648
 Red. masses --      1.1769                 2.1771                 2.3238
 Frc consts  --      0.4113                 0.7950                 0.9743
 IR Inten    --      0.2446                 1.3447                11.4366

                     16                     17                     18
                      A                      A                      A
 Frequencies --    886.9709               904.2029               918.4651
 Red. masses --      2.2726                 1.9936                 1.3866
 Frc consts  --      1.0534                 0.9603                 0.6892
 IR Inten    --     19.0344                 2.0797                 3.7096

                     19                     20                     21
                      A                      A                      A
 Frequencies --    977.2039              1014.2992              1045.0197
 Red. masses --      3.3324                 1.7727                 4.3936
 Frc consts  --      1.8749                 1.0745                 2.8270
 IR Inten    --      8.3064                 5.3848               105.1156

                     22                     23                     24
                      A                      A                      A
 Frequencies --   1056.3017              1080.0596              1083.1973
 Red. masses --      1.3411                 2.2513                 1.4816
 Frc consts  --      0.8816                 1.5473                 1.0242
 IR Inten    --      4.9398                20.4926                 0.3291

                     25                     26                     27
                      A                      A                      A
 Frequencies --   1097.6600              1103.6457              1141.9547
 Red. masses --      2.3327                 2.6070                 2.3677
 Frc consts  --      1.6560                 1.8709                 1.8192
 IR Inten    --     19.5908                 5.1297                 3.6314

                     28                     29                     30
                      A                      A                      A
 Frequencies --   1190.6509              1217.7998              1247.5171
 Red. masses --      1.2855                 1.3556                 2.3120
 Frc consts  --      1.0737                 1.1845                 2.1200
 IR Inten    --      0.0861                 2.3485                 5.0503

                     31                     32                     33
                      A                      A                      A
 Frequencies --   1290.1272              1306.6077              1368.9662
 Red. masses --      1.4144                 1.3762                 1.4299
 Frc consts  --      1.3870                 1.3843                 1.5788
 IR Inten    --      7.3383                10.8240                 5.1866

                     34                     35                     36
                      A                      A                      A
 Frequencies --   1392.4904              1401.6528              1408.9526
 Red. masses --      1.3431                 1.6651                 1.4935
 Frc consts  --      1.5344                 1.9274                 1.7468
 IR Inten    --      9.0366                 5.5200                16.3007

                     37                     38                     39
                      A                      A                      A
 Frequencies --   1459.7602              1485.4579              1490.0784
 Red. masses --      1.0897                 1.0635                 1.0808
 Frc consts  --      1.3681                 1.3827                 1.4139
 IR Inten    --      2.7855                 1.1134                 2.3559

                     40                     41                     42
                      A                      A                      A
 Frequencies --   1503.8293              1823.3950              2884.7505
 Red. masses --      1.5509                10.7647                 1.0843
 Frc consts  --      2.0664                21.0870                 5.3164
 IR Inten    --      2.7128               128.1476                91.3799

                     43                     44                     45
                      A                      A                      A
 Frequencies --   3003.5498              3015.6087              3035.9359
 Red. masses --      1.0837                 1.0847                 1.0353
 Frc consts  --      5.7603                 5.8120                 5.6219
 IR Inten    --     48.4877                35.7352                10.4887

                     46                     47                     48
                      A                      A                      A
 Frequencies --   3107.1157              3118.8235              3124.0153
 Red. masses --      1.1002                 1.1026                 1.0529
 Frc consts  --      6.2582                 6.3191                 6.0543
 IR Inten    --     17.0084                22.1269                14.1288

                     49                     50                     51
                      A                      A                      A
 Frequencies --   3130.7585              3205.4457              3221.1573
 Red. masses --      1.0556                 1.1177                 1.1157
 Frc consts  --      6.0958                 6.7664                 6.8206
 IR Inten    --      6.8312                 1.1355                 7.6932

 - Thermochemistry -
 -------------------
 Temperature   298.150 Kelvin.  Pressure   1.00000 Atm.
 Atom     1 has atomic number  6 and mass  12.00000

 Molecular mass:   126.06808 amu.
 Principal axes and moments of inertia in atomic units:
                           1         2         3
     Eigenvalues --   822.621071201.239011603.74668
           X            0.99952   0.01692  -0.02600
           Y           -0.01783   0.99922  -0.03534
           Z            0.02538   0.03579   0.99904
 This molecule is an asymmetric top.
 Rotational symmetry number  1.
 Warning -- assumption of classical behavior for rotation
           may cause significant error
 Rotational temperatures (Kelvin)      0.10529     0.07210     0.05401
 Rotational constants (GHZ):           2.19389     1.50240     1.12533
 Zero-point vibrational energy     411216.4 (Joules/Mol)
                                   98.28307 (Kcal/Mol)
 Warning -- explicit consideration of  12 degrees of freedom as
           vibrations may cause significant error
 Vibrational temperatures:     67.31    99.37   235.58   282.49   301.58
          (Kelvin)            329.11   458.41   538.29   599.28   665.79
                              762.24   848.14  1108.13  1132.69  1213.70
                             1276.15  1300.94  1321.46  1405.98  1459.35
                             1503.55  1519.78  1553.96  1558.48  1579.29
                             1587.90  1643.02  1713.08  1752.14  1794.90
                             1856.20  1879.91  1969.63  2003.48  2016.66
                             2027.17  2100.27  2137.24  2143.89  2163.67
                             2623.46  4150.51  4321.43  4338.78  4368.03
                             4470.44  4487.29  4494.76  4504.46  4611.92
                             4634.52

 Zero-point correction=                           0.156624 (Hartree/Particle)
 Thermal correction to Energy=                    0.165770
 Thermal correction to Enthalpy=                  0.166715
 Thermal correction to Gibbs Free Energy=         0.122010
 Sum of electronic and zero-point Energies=           -423.003686
 Sum of electronic and thermal Energies=              -422.994540
 Sum of electronic and thermal Enthalpies=            -422.993596
 Sum of electronic and thermal Free Energies=         -423.038300

                     E (Thermal)             CV                S
                      KCal/Mol        Cal/Mol-Kelvin    Cal/Mol-Kelvin
 Total                  104.022             33.341             94.088
 Electronic               0.000              0.000              0.000
 Translational            0.889              2.981             40.409
 Rotational               0.889              2.981             28.851
 Vibrational            102.245             27.379             24.828
 Vibration     1          0.595              1.979              4.949
 Vibration     2          0.598              1.969              4.180
 Vibration     3          0.623              1.887              2.506
 Vibration     4          0.636              1.845              2.167
 Vibration     5          0.642              1.826              2.047
 Vibration     6          0.651              1.797              1.889
 Vibration     7          0.705              1.638              1.317
 Vibration     8          0.745              1.525              1.063
 Vibration     9          0.780              1.434              0.904
 Vibration    10          0.820              1.333              0.758
 Vibration    11          0.885              1.184              0.588
 Vibration    12          0.947              1.054              0.468

 Optimization completed.
    -- Stationary point found.
 Normal termination of Gaussian 09 at Tue Jan 28 01:18:05 2020.
