 Gaussian 09, Revision D.01,
 Gaussian 09:  ES64L-G09RevD.01 24-Apr-2013

 -----------------------------
 # b3lyp 6-31G(2df,p) opt Freq
 -----------------------------

 -----
 titel
 -----
 Symbolic Z-matrix:
 Charge =  0 Multiplicity = 1

 SCF Done:  E(RB3LYP) =  -423.128413182     A.U. after   13 cycles
 Optimization completed.
    -- Stationary point found.
 Normal termination of Gaussian 09 at Mon Jan 27 17:56:35 2020.

 ----------------------------------------------------------------------
 #N Geom=AllCheck Guess=TCheck SCRF=Check GenChk RB3LYP/6-31G(2df,p) Fr
 eq
 ----------------------------------------------------------------------

 Structure from the checkpoint file:  "/scratch/puck/g09_d2d08a63-cb2c-41bc-a2a0-58f9e9b8fb06/Gau-180660.chk"
 -----
 titel
 -----
 Charge =  0 Multiplicity = 1

                         Standard orientation:
 ---------------------------------------------------------------------
 Center     Atomic      Atomic             Coordinates (Angstroms)
 Number     Number       Type             X           Y           Z
 ---------------------------------------------------------------------
      1          6           0       -1.817474    1.634394   -0.041241
      2          6           0       -0.637909    0.725855   -0.015577
      3          8           0        0.569450    1.093320   -0.689273
      4          6           0        1.213296   -0.015925    0.022726
      5          6           0        2.677566    0.178072    0.262360
      6          6           0        0.607431   -1.272360   -0.668391
      7          6           0       -0.695670   -0.821430   -0.008125
      8          8           0       -1.862465   -1.533453    0.176128
      9          6           0        0.037097   -0.048234    1.075340
     10          1           0       -1.597858    2.589666    0.445339
     11          1           0       -2.122369    1.841657   -1.073422
     12          1           0       -2.657107    1.163358    0.478105
     13          1           0        2.859076    1.098124    0.825021
     14          1           0        3.091142   -0.665415    0.823081
     15          1           0        3.207604    0.249563   -0.693642
     16          1           0        0.679658   -1.307666   -1.760811
     17          1           0        0.975653   -2.199506   -0.220673
     18          1           0       -2.379886   -1.485404   -0.635925
     19          1           0       -0.017812   -0.045550    2.155532
 ---------------------------------------------------------------------

 SCF Done:  E(RB3LYP) =  -423.128413182     A.U. after    1 cycles

 The electronic state is 1-A.
 Alpha  occ. eigenvalues --  -19.15425 -19.12629 -10.24520 -10.23731 -10.23551
 Alpha  occ. eigenvalues --  -10.18305 -10.18273 -10.18041 -10.17975  -1.05836
 Alpha  occ. eigenvalues --   -1.03170  -0.84480  -0.77238  -0.72531  -0.68458
 Alpha  occ. eigenvalues --   -0.60374  -0.56489  -0.53755  -0.49044  -0.47893
 Alpha  occ. eigenvalues --   -0.45189  -0.44074  -0.42386  -0.41431  -0.40698
 Alpha  occ. eigenvalues --   -0.39434  -0.38986  -0.36178  -0.35564  -0.32947
 Alpha  occ. eigenvalues --   -0.30367  -0.27504  -0.25308  -0.21228
 Alpha virt. eigenvalues --    0.07019   0.09114   0.10487   0.12447   0.12837
 Alpha virt. eigenvalues --    0.13880   0.14732   0.15660   0.16211   0.16373
 Alpha virt. eigenvalues --    0.17722   0.18421   0.20449   0.20669   0.22347

 Mulliken charges:
               1
     1  C   -0.517221
     2  C    0.403647
     3  O   -0.359482
     4  C    0.419504
     5  C   -0.501680
     6  C   -0.336758
     7  C    0.293570
     8  O   -0.457076
     9  C   -0.306427
    10  H    0.131466
    11  H    0.127265
    12  H    0.133519
    13  H    0.130723
    14  H    0.123084
    15  H    0.132036
    16  H    0.090819
    17  H    0.104058
    18  H    0.288838
    19  H    0.100115
 Sum of Mulliken charges =   0.00000

 Dipole moment (field-independent basis, Debye):
    X=             -0.3259    Y=             -0.4016    Z=             -0.0605  Tot=              0.5207
 Quadrupole moment (field-independent basis, Debye-Ang):
   XX=            -48.3345   YY=            -55.6929   ZZ=            -52.1603
   XY=             -2.5954   XZ=              4.1010   YZ=              3.4943

  Exact polarizability:  86.316  -3.286  73.949   1.745   2.000  66.446
 Approx polarizability: 113.049  -0.176 109.219   2.273  -1.084 105.609

                      1                      2                      3
                      A                      A                      A
 Frequencies --    183.3236               195.5901               200.5474
 Red. masses --      1.2732                 1.4798                 1.2766
 Frc consts  --      0.0252                 0.0334                 0.0303
 IR Inten    --      4.2202                 0.8982                 0.0270

                      4                      5                      6
                      A                      A                      A
 Frequencies --    216.1430               233.9036               261.2930
 Red. masses --      2.6262                 2.7236                 1.9710
 Frc consts  --      0.0723                 0.0878                 0.0793
 IR Inten    --      7.7935                 1.4603                 9.5687

                      7                      8                      9
                      A                      A                      A
 Frequencies --    303.8389               382.4937               442.9907
 Red. masses --      1.3943                 2.8065                 3.0543
 Frc consts  --      0.0758                 0.2419                 0.3531
 IR Inten    --     85.6185                 6.9341                12.1167

                     10                     11                     12
                      A                      A                      A
 Frequencies --    467.9221               524.4875               581.8611
 Red. masses --      2.1250                 4.7441                 4.4736
 Frc consts  --      0.2741                 0.7689                 0.8924
 IR Inten    --      2.4830                 1.1290                 2.8566

                     13                     14                     15
                      A                      A                      A
 Frequencies --    642.1735               666.6912               755.2603
 Red. masses --      3.5876                 3.4114                 2.5449
 Frc consts  --      0.8717                 0.8934                 0.8553
 IR Inten    --      1.0470                 3.5041                 4.6840

                     16                     17                     18
                      A                      A                      A
 Frequencies --    788.2280               827.6704               871.8241
 Red. masses --      3.1039                 2.7676                 2.5680
 Frc consts  --      1.1362                 1.1170                 1.1500
 IR Inten    --      7.1765                21.9770                28.2317

                     19                     20                     21
                      A                      A                      A
 Frequencies --    893.0915               928.0278               979.6527
 Red. masses --      2.0521                 1.8803                 1.9981
 Frc consts  --      0.9644                 0.9541                 1.1298
 IR Inten    --     10.5632                 5.9674                 1.6825

                     22                     23                     24
                      A                      A                      A
 Frequencies --   1009.3577              1038.9467              1057.1198
 Red. masses --      2.2068                 1.6584                 1.8289
 Frc consts  --      1.3247                 1.0547                 1.2041
 IR Inten    --      1.8460                14.5564                 0.3855

                     25                     26                     27
                      A                      A                      A
 Frequencies --   1106.7204              1126.1924              1131.3580
 Red. masses --      1.6656                 2.0597                 1.9588
 Frc consts  --      1.2020                 1.5391                 1.4772
 IR Inten    --     14.2242                14.7636                16.9458

                     28                     29                     30
                      A                      A                      A
 Frequencies --   1174.2865              1182.6646              1237.5539
 Red. masses --      2.1442                 1.8962                 2.6755
 Frc consts  --      1.7420                 1.5626                 2.4143
 IR Inten    --     31.1019                36.9735                47.1776

                     31                     32                     33
                      A                      A                      A
 Frequencies --   1298.1174              1338.0505              1372.7546
 Red. masses --      1.7525                 2.6741                 1.8862
 Frc consts  --      1.7400                 2.8208                 2.0942
 IR Inten    --    123.9449                19.1142                10.9830

                     34                     35                     36
                      A                      A                      A
 Frequencies --   1410.5846              1415.4110              1455.8651
 Red. masses --      1.6787                 1.5476                 2.9770
 Frc consts  --      1.9680                 1.8267                 3.7176
 IR Inten    --     16.1848                 9.6445                 5.3720

                     37                     38                     39
                      A                      A                      A
 Frequencies --   1477.6625              1479.7913              1490.2661
 Red. masses --      1.0490                 1.0861                 1.0472
 Frc consts  --      1.3495                 1.4012                 1.3702
 IR Inten    --      0.8379                 5.2888                 3.5792

                     40                     41                     42
                      A                      A                      A
 Frequencies --   1491.4903              1505.4189              3032.4195
 Red. masses --      1.2341                 1.2276                 1.0363
 Frc consts  --      1.6175                 1.6392                 5.6147
 IR Inten    --      1.4494                 8.3573                32.2955

                     43                     44                     45
                      A                      A                      A
 Frequencies --   3036.9442              3040.6233              3095.6548
 Red. masses --      1.0408                 1.0517                 1.1000
 Frc consts  --      5.6557                 5.7289                 6.2110
 IR Inten    --     18.7419                39.3420                16.6448

                     46                     47                     48
                      A                      A                      A
 Frequencies --   3106.3208              3109.0262              3117.6562
 Red. masses --      1.1044                 1.1027                 1.1004
 Frc consts  --      6.2790                 6.2798                 6.3014
 IR Inten    --      2.7384                29.1699                10.6926

                     49                     50                     51
                      A                      A                      A
 Frequencies --   3119.4577              3206.1902              3786.5798
 Red. masses --      1.1018                 1.0978                 1.0660
 Frc consts  --      6.3173                 6.6491                 9.0055
 IR Inten    --     17.8677                 5.2249                23.2296

 - Thermochemistry -
 -------------------
 Temperature   298.150 Kelvin.  Pressure   1.00000 Atm.
 Atom     1 has atomic number  6 and mass  12.00000

 Molecular mass:   126.06808 amu.
 Principal axes and moments of inertia in atomic units:
                           1         2         3
     Eigenvalues --   658.400551103.824091478.34756
           X            0.99746  -0.07025   0.01194
           Y            0.06983   0.99703   0.03243
           Z           -0.01418  -0.03151   0.99940
 This molecule is an asymmetric top.
 Rotational symmetry number  1.
 Warning -- assumption of classical behavior for rotation
           may cause significant error
 Rotational temperatures (Kelvin)      0.13155     0.07847     0.05859
 Rotational constants (GHZ):           2.74110     1.63499     1.22078
 Zero-point vibrational energy     411500.4 (Joules/Mol)
                                   98.35096 (Kcal/Mol)
 Warning -- explicit consideration of  12 degrees of freedom as
           vibrations may cause significant error
 Vibrational temperatures:    263.76   281.41   288.54   310.98   336.53
          (Kelvin)            375.94   437.16   550.32   637.36   673.23
                              754.62   837.17   923.94   959.22  1086.65
                             1134.08  1190.83  1254.36  1284.96  1335.22
                             1409.50  1452.24  1494.81  1520.96  1592.32
                             1620.34  1627.77  1689.53  1701.59  1780.56
                             1867.70  1925.15  1975.09  2029.51  2036.46
                             2094.66  2126.02  2129.09  2144.16  2145.92
                             2165.96  4362.97  4369.48  4374.77  4453.95
                             4469.30  4473.19  4485.61  4488.20  4612.99
                             5448.04

 Zero-point correction=                           0.156732 (Hartree/Particle)
 Thermal correction to Energy=                    0.165439
 Thermal correction to Enthalpy=                  0.166383
 Thermal correction to Gibbs Free Energy=         0.124258
 Sum of electronic and zero-point Energies=           -422.971681
 Sum of electronic and thermal Energies=              -422.962974
 Sum of electronic and thermal Enthalpies=            -422.962030
 Sum of electronic and thermal Free Energies=         -423.004155

                     E (Thermal)             CV                S
                      KCal/Mol        Cal/Mol-Kelvin    Cal/Mol-Kelvin
 Total                  103.814             34.256             88.660
 Electronic               0.000              0.000              0.000
 Translational            0.889              2.981             40.409
 Rotational               0.889              2.981             28.465
 Vibrational            102.037             28.294             19.786
 Vibration     1          0.631              1.863              2.294
 Vibration     2          0.636              1.846              2.174
 Vibration     3          0.638              1.839              2.128
 Vibration     4          0.645              1.816              1.991
 Vibration     5          0.654              1.789              1.849
 Vibration     6          0.669              1.744              1.653
 Vibration     7          0.695              1.666              1.396
 Vibration     8          0.752              1.508              1.029
 Vibration     9          0.803              1.376              0.817
 Vibration    10          0.825              1.321              0.743
 Vibration    11          0.879              1.196              0.600
 Vibration    12          0.939              1.071              0.482

 Normal termination of Gaussian 09 at Mon Jan 27 18:38:13 2020.
