 Gaussian 09, Revision D.01,
 Gaussian 09:  ES64L-G09RevD.01 24-Apr-2013

 -----------------------------
 # b3lyp 6-31G(2df,p) opt Freq
 -----------------------------

 -----
 titel
 -----
 Symbolic Z-matrix:
 Charge =  0 Multiplicity = 1

 SCF Done:  E(RB3LYP) =  -423.204614688     A.U. after   14 cycles
 Optimization completed.
    -- Stationary point found.
 Normal termination of Gaussian 09 at Mon Jan 27 22:08:48 2020.

 ----------------------------------------------------------------------
 #N Geom=AllCheck Guess=TCheck SCRF=Check GenChk RB3LYP/6-31G(2df,p) Fr
 eq
 ----------------------------------------------------------------------

 Structure from the checkpoint file:  "/scratch/puck/g09_ea519a5a-1b24-4be9-abcc-b99dda5e3769/Gau-51360.chk"
 -----
 titel
 -----
 Charge =  0 Multiplicity = 1

                         Standard orientation:
 ---------------------------------------------------------------------
 Center     Atomic      Atomic             Coordinates (Angstroms)
 Number     Number       Type             X           Y           Z
 ---------------------------------------------------------------------
      1          6           0       -0.483666    2.076907    0.321857
      2          6           0       -0.284958    0.779600   -0.480920
      3          6           0       -1.373772   -0.240976   -0.096270
      4          8           0       -2.535511   -0.151256   -0.396666
      5          6           0       -0.760363   -1.367278    0.753217
      6          6           0        0.736398   -1.216340    0.590503
      7          6           0        1.272113   -1.245609   -0.830597
      8          6           0        1.029746    0.072940   -0.168216
      9          8           0        2.168776    0.837098    0.085314
     10          1           0        0.276523    2.814682    0.050955
     11          1           0       -1.469558    2.497972    0.111366
     12          1           0       -0.420862    1.898165    1.402351
     13          1           0       -0.388845    1.011168   -1.546898
     14          1           0       -1.075871   -1.216660    1.793901
     15          1           0       -1.166627   -2.333754    0.436906
     16          1           0        1.401283   -1.539239    1.382957
     17          1           0        2.312410   -1.525130   -0.949244
     18          1           0        0.619035   -1.568837   -1.637151
     19          1           0        2.033410    1.319425    0.908236
 ---------------------------------------------------------------------

 SCF Done:  E(RB3LYP) =  -423.204614688     A.U. after    1 cycles

 The electronic state is 1-A.
 Alpha  occ. eigenvalues --  -19.15179 -19.13241 -10.26946 -10.24454 -10.19757
 Alpha  occ. eigenvalues --  -10.19699 -10.19529 -10.19095 -10.18963  -1.04406
 Alpha  occ. eigenvalues --   -1.03758  -0.87946  -0.78027  -0.73877  -0.66179
 Alpha  occ. eigenvalues --   -0.59763  -0.58045  -0.53767  -0.52320  -0.47670
 Alpha  occ. eigenvalues --   -0.45802  -0.45358  -0.42455  -0.42233  -0.40415
 Alpha  occ. eigenvalues --   -0.39884  -0.38919  -0.36864  -0.36068  -0.34720
 Alpha  occ. eigenvalues --   -0.32805  -0.28679  -0.25746  -0.23904
 Alpha virt. eigenvalues --   -0.02085   0.06428   0.09848   0.10674   0.11817
 Alpha virt. eigenvalues --    0.13105   0.15344   0.15486   0.16239   0.16754
 Alpha virt. eigenvalues --    0.17547   0.19139   0.20512   0.20575   0.22233

 Mulliken charges:
               1
     1  C   -0.429106
     2  C   -0.159360
     3  C    0.383735
     4  O   -0.316232
     5  C   -0.334749
     6  C   -0.119738
     7  C   -0.331329
     8  C    0.408924
     9  O   -0.469460
    10  H    0.129963
    11  H    0.143125
    12  H    0.111393
    13  H    0.104163
    14  H    0.129536
    15  H    0.131194
    16  H    0.092245
    17  H    0.126981
    18  H    0.115412
    19  H    0.283303
 Sum of Mulliken charges =   0.00000

 Dipole moment (field-independent basis, Debye):
    X=              1.5612    Y=              0.0972    Z=              1.6464  Tot=              2.2710
 Quadrupole moment (field-independent basis, Debye-Ang):
   XX=            -64.5530   YY=            -50.1400   ZZ=            -50.0254
   XY=             -0.8265   XZ=              0.4331   YZ=              1.4951

  Exact polarizability:  79.083  -0.300  78.231   0.150  -0.146  66.076
 Approx polarizability: 116.907   2.027 107.641   2.612  -0.814 103.782

                      1                      2                      3
                      A                      A                      A
 Frequencies --     61.7621               172.8637               231.4247
 Red. masses --      4.2396                 2.7066                 1.6931
 Frc consts  --      0.0095                 0.0477                 0.0534
 IR Inten    --      4.8478                 1.8523                 2.4936

                      4                      5                      6
                      A                      A                      A
 Frequencies --    248.3963               264.4970               308.0089
 Red. masses --      1.5238                 2.3337                 1.1628
 Frc consts  --      0.0554                 0.0962                 0.0650
 IR Inten    --      8.3413                 2.7267                59.4790

                      7                      8                      9
                      A                      A                      A
 Frequencies --    354.8702               406.7497               438.5453
 Red. masses --      4.8879                 2.3238                 3.5122
 Frc consts  --      0.3627                 0.2265                 0.3980
 IR Inten    --     43.9670                 3.9837                 4.4252

                     10                     11                     12
                      A                      A                      A
 Frequencies --    487.0739               546.6757               580.6104
 Red. masses --      4.0318                 2.7975                 3.9078
 Frc consts  --      0.5636                 0.4926                 0.7762
 IR Inten    --      2.0438                 4.9254                 4.4596

                     13                     14                     15
                      A                      A                      A
 Frequencies --    644.3509               728.6272               755.7369
 Red. masses --      3.6771                 3.2562                 2.7834
 Frc consts  --      0.8995                 1.0185                 0.9366
 IR Inten    --      8.7623                 1.4660                 1.5447

                     16                     17                     18
                      A                      A                      A
 Frequencies --    841.8131               861.5334               902.1481
 Red. masses --      1.4811                 2.4676                 1.9024
 Frc consts  --      0.6184                 1.0791                 0.9122
 IR Inten    --      3.8067                 3.6844                14.3609

                     19                     20                     21
                      A                      A                      A
 Frequencies --    935.0341               956.4687              1022.9982
 Red. masses --      2.0902                 1.4511                 2.3809
 Frc consts  --      1.0767                 0.7822                 1.4681
 IR Inten    --      3.9885                24.9245                 4.5170

                     22                     23                     24
                      A                      A                      A
 Frequencies --   1050.1230              1055.2038              1071.0439
 Red. masses --      1.3353                 1.4074                 1.5669
 Frc consts  --      0.8676                 0.9233                 1.0590
 IR Inten    --      0.2470                 8.6803                 3.4268

                     25                     26                     27
                      A                      A                      A
 Frequencies --   1094.4403              1100.2396              1159.0876
 Red. masses --      2.2202                 2.1322                 2.8213
 Frc consts  --      1.5668                 1.5207                 2.2332
 IR Inten    --      5.4834                 4.4902                35.3709

                     28                     29                     30
                      A                      A                      A
 Frequencies --   1188.8083              1234.2264              1252.7110
 Red. masses --      1.2998                 1.6995                 1.8503
 Frc consts  --      1.0823                 1.5253                 1.7108
 IR Inten    --      3.1678                85.5895                30.3876

                     31                     32                     33
                      A                      A                      A
 Frequencies --   1283.1296              1302.7959              1309.9212
 Red. masses --      1.9993                 1.7208                 1.4671
 Frc consts  --      1.9394                 1.7209                 1.4832
 IR Inten    --     16.3870                33.0354                11.3108

                     34                     35                     36
                      A                      A                      A
 Frequencies --   1347.1229              1395.0259              1409.6045
 Red. masses --      1.9819                 1.2805                 1.7317
 Frc consts  --      2.1191                 1.4683                 2.0273
 IR Inten    --     34.5887                 7.2063                 1.9335

                     37                     38                     39
                      A                      A                      A
 Frequencies --   1455.8764              1484.0022              1499.9608
 Red. masses --      1.1059                 1.4155                 1.0471
 Frc consts  --      1.3810                 1.8367                 1.3880
 IR Inten    --      5.1192                13.3951                 7.0780

                     40                     41                     42
                      A                      A                      A
 Frequencies --   1505.5492              1843.2855              3027.8962
 Red. masses --      1.0595                12.6162                 1.0424
 Frc consts  --      1.4150                25.2560                 5.6310
 IR Inten    --      3.8247               181.4785                16.3920

                     43                     44                     45
                      A                      A                      A
 Frequencies --   3032.5228              3047.8520              3077.6691
 Red. masses --      1.0621                 1.0811                 1.0984
 Frc consts  --      5.7549                 5.9171                 6.1298
 IR Inten    --     17.4676                13.0247                11.8600

                     46                     47                     48
                      A                      A                      A
 Frequencies --   3101.2499              3119.8448              3128.9998
 Red. masses --      1.0960                 1.0576                 1.1021
 Frc consts  --      6.2106                 6.0652                 6.3575
 IR Inten    --     22.9790                 9.5080                 9.6198

                     49                     50                     51
                      A                      A                      A
 Frequencies --   3180.6787              3220.0084              3800.2010
 Red. masses --      1.0912                 1.1131                 1.0659
 Frc consts  --      6.5040                 6.7999                 9.0692
 IR Inten    --      8.6104                 5.1752                15.9624

 - Thermochemistry -
 -------------------
 Temperature   298.150 Kelvin.  Pressure   1.00000 Atm.
 Atom     1 has atomic number  6 and mass  12.00000

 Molecular mass:   126.06808 amu.
 Principal axes and moments of inertia in atomic units:
                           1         2         3
     Eigenvalues --   733.681011099.103961543.36637
           X            0.99922  -0.03850  -0.00880
           Y            0.03860   0.99919   0.01163
           Z            0.00834  -0.01196   0.99989
 This molecule is an asymmetric top.
 Rotational symmetry number  1.
 Warning -- assumption of classical behavior for rotation
           may cause significant error
 Rotational temperatures (Kelvin)      0.11805     0.07880     0.05612
 Rotational constants (GHZ):           2.45984     1.64201     1.16935
 Zero-point vibrational energy     415877.4 (Joules/Mol)
                                   99.39708 (Kcal/Mol)
 Warning -- explicit consideration of  12 degrees of freedom as
           vibrations may cause significant error
 Vibrational temperatures:     88.86   248.71   332.97   357.39   380.55
          (Kelvin)            443.16   510.58   585.22   630.97   700.79
                              786.54   835.37   927.08  1048.33  1087.34
                             1211.18  1239.55  1297.99  1345.30  1376.14
                             1471.86  1510.89  1518.20  1540.99  1574.65
                             1583.00  1667.67  1710.43  1775.77  1802.37
                             1846.14  1874.43  1884.68  1938.21  2007.13
                             2028.10  2094.68  2135.15  2158.11  2166.15
                             2652.07  4356.46  4363.12  4385.17  4428.07
                             4462.00  4488.76  4501.93  4576.28  4632.87
                             5467.63

 Zero-point correction=                           0.158399 (Hartree/Particle)
 Thermal correction to Energy=                    0.166977
 Thermal correction to Enthalpy=                  0.167921
 Thermal correction to Gibbs Free Energy=         0.125408
 Sum of electronic and zero-point Energies=           -423.046215
 Sum of electronic and thermal Energies=              -423.037638
 Sum of electronic and thermal Enthalpies=            -423.036694
 Sum of electronic and thermal Free Energies=         -423.079207

                     E (Thermal)             CV                S
                      KCal/Mol        Cal/Mol-Kelvin    Cal/Mol-Kelvin
 Total                  104.779             33.421             89.476
 Electronic               0.000              0.000              0.000
 Translational            0.889              2.981             40.409
 Rotational               0.889              2.981             28.611
 Vibrational            103.002             27.460             20.456
 Vibration     1          0.597              1.973              4.400
 Vibration     2          0.626              1.876              2.404
 Vibration     3          0.653              1.793              1.868
 Vibration     4          0.662              1.765              1.742
 Vibration     5          0.671              1.738              1.632
 Vibration     6          0.698              1.658              1.373
 Vibration     7          0.731              1.565              1.144
 Vibration     8          0.772              1.456              0.938
 Vibration     9          0.799              1.386              0.831
 Vibration    10          0.843              1.279              0.691
 Vibration    11          0.902              1.147              0.551
 Vibration    12          0.937              1.073              0.484

 Optimization completed.
    -- Stationary point found.
 Normal termination of Gaussian 09 at Mon Jan 27 23:52:37 2020.
