 Gaussian 09, Revision D.01,
 Gaussian 09:  ES64L-G09RevD.01 24-Apr-2013

 -----------------------------
 # b3lyp 6-31G(2df,p) opt Freq
 -----------------------------

 -----
 titel
 -----
 Symbolic Z-matrix:
 Charge =  0 Multiplicity = 1

 SCF Done:  E(RB3LYP) =  -423.177639477     A.U. after   13 cycles
 Optimization completed.
    -- Stationary point found.
 Normal termination of Gaussian 09 at Mon Jan 27 12:23:08 2020.

 ----------------------------------------------------------------------
 #N Geom=AllCheck Guess=TCheck SCRF=Check GenChk RB3LYP/6-31G(2df,p) Fr
 eq
 ----------------------------------------------------------------------

 Structure from the checkpoint file:  "/scratch/puck/g09_4d513c5b-2f24-42fb-b53e-6949a522ecb8/Gau-165670.chk"
 -----
 titel
 -----
 Charge =  0 Multiplicity = 1

                         Standard orientation:
 ---------------------------------------------------------------------
 Center     Atomic      Atomic             Coordinates (Angstroms)
 Number     Number       Type             X           Y           Z
 ---------------------------------------------------------------------
      1          6           0       -2.319513    0.031954    0.278827
      2          6           0       -1.316836    1.204212    0.384761
      3          6           0       -0.009045    0.535275    0.029332
      4          6           0        1.290016    1.216871   -0.329124
      5          8           0        2.253704    0.169695   -0.396791
      6          6           0        1.892653   -0.846867    0.539253
      7          6           0        0.378104   -0.808593    0.645007
      8          6           0       -0.370770   -0.748749   -0.662579
      9          8           0       -1.764120   -0.916845   -0.636267
     10          1           0       -2.463401   -0.435802    1.262748
     11          1           0       -3.301455    0.328412   -0.099730
     12          1           0       -1.543292    1.987066   -0.348623
     13          1           0       -1.335200    1.660611    1.379361
     14          1           0        1.282011    1.714264   -1.305521
     15          1           0        1.560729    1.963868    0.436370
     16          1           0        2.296030   -1.789898    0.155008
     17          1           0        2.342311   -0.656438    1.527308
     18          1           0       -0.098525   -1.206571    1.534000
     19          1           0        0.076474   -1.092930   -1.589318
 ---------------------------------------------------------------------

 SCF Done:  E(RB3LYP) =  -423.177639477     A.U. after    1 cycles

 The electronic state is 1-A.
 Alpha  occ. eigenvalues --  -19.14182 -19.13867 -10.23235 -10.23090 -10.23060
 Alpha  occ. eigenvalues --  -10.23041 -10.19627 -10.19525 -10.19005  -1.04630
 Alpha  occ. eigenvalues --   -1.03283  -0.85313  -0.76756  -0.73207  -0.65670
 Alpha  occ. eigenvalues --   -0.63167  -0.56435  -0.56254  -0.51139  -0.48905
 Alpha  occ. eigenvalues --   -0.47131  -0.45006  -0.44188  -0.42727  -0.41451
 Alpha  occ. eigenvalues --   -0.40045  -0.39209  -0.36039  -0.33240  -0.32627
 Alpha  occ. eigenvalues --   -0.31598  -0.27439  -0.25190  -0.23012
 Alpha virt. eigenvalues --    0.08770   0.09637   0.10845   0.11609   0.13069
 Alpha virt. eigenvalues --    0.13564   0.13928   0.14261   0.16235   0.16740
 Alpha virt. eigenvalues --    0.17799   0.19035   0.19487   0.20352   0.22222

 Mulliken charges:
               1
     1  C   -0.084593
     2  C   -0.348324
     3  C    0.300021
     4  C   -0.178659
     5  O   -0.258310
     6  C   -0.098128
     7  C   -0.181088
     8  C    0.085450
     9  O   -0.271259
    10  H    0.101044
    11  H    0.112477
    12  H    0.110954
    13  H    0.107241
    14  H    0.109011
    15  H    0.089142
    16  H    0.111167
    17  H    0.093084
    18  H    0.092082
    19  H    0.108689
 Sum of Mulliken charges =   0.00000

 Dipole moment (field-independent basis, Debye):
    X=             -0.7139    Y=              1.0856    Z=              1.4682  Tot=              1.9606
 Quadrupole moment (field-independent basis, Debye-Ang):
   XX=            -57.1619   YY=            -52.1808   ZZ=            -52.0337
   XY=             -3.8543   XZ=             -0.3568   YZ=             -1.4030

  Exact polarizability:  83.087  -4.095  73.328   0.533  -1.766  65.962
 Approx polarizability: 108.766  -3.951 109.740   1.288  -1.239 103.903

                      1                      2                      3
                      A                      A                      A
 Frequencies --    179.3134               197.6790               220.5417
 Red. masses --      3.2140                 3.1299                 2.0575
 Frc consts  --      0.0609                 0.0721                 0.0590
 IR Inten    --      1.6542                 3.1773                 0.4967

                      4                      5                      6
                      A                      A                      A
 Frequencies --    278.5676               338.5059               367.0302
 Red. masses --      2.1585                 2.9535                 2.5461
 Frc consts  --      0.0987                 0.1994                 0.2021
 IR Inten    --      5.2533                 0.9128                 3.9000

                      7                      8                      9
                      A                      A                      A
 Frequencies --    462.6529               639.2291               689.3679
 Red. masses --      4.7152                 4.2981                 2.6072
 Frc consts  --      0.5947                 1.0348                 0.7300
 IR Inten    --      0.2658                 0.9834                 1.6553

                     10                     11                     12
                      A                      A                      A
 Frequencies --    711.7758               768.8346               871.1693
 Red. masses --      3.8694                 4.3680                 1.9611
 Frc consts  --      1.1550                 1.5212                 0.8769
 IR Inten    --      8.4579                20.9910                 3.4092

                     13                     14                     15
                      A                      A                      A
 Frequencies --    886.1030               898.9412               927.7712
 Red. masses --      2.8302                 2.3383                 2.9129
 Frc consts  --      1.3093                 1.1133                 1.4773
 IR Inten    --      6.8762                 7.6464                13.1535

                     16                     17                     18
                      A                      A                      A
 Frequencies --    955.0253               971.3334               990.5341
 Red. masses --      2.2207                 2.1423                 2.1890
 Frc consts  --      1.1934                 1.1909                 1.2654
 IR Inten    --      7.4087                15.3045                20.2817

                     19                     20                     21
                      A                      A                      A
 Frequencies --   1011.0462              1055.9715              1061.7045
 Red. masses --      1.7155                 1.7849                 1.4797
 Frc consts  --      1.0332                 1.1726                 0.9827
 IR Inten    --      2.2846                20.0348                 0.8295

                     22                     23                     24
                      A                      A                      A
 Frequencies --   1090.5447              1109.4099              1128.6461
 Red. masses --      4.8519                 2.2356                 2.7342
 Frc consts  --      3.3998                 1.6212                 2.0521
 IR Inten    --     62.6412                10.5071                28.9612

                     25                     26                     27
                      A                      A                      A
 Frequencies --   1141.6126              1202.4779              1215.8122
 Red. masses --      3.2029                 1.2478                 1.4700
 Frc consts  --      2.4594                 1.0631                 1.2803
 IR Inten    --     38.3959                11.3306                10.7309

                     28                     29                     30
                      A                      A                      A
 Frequencies --   1229.4359              1241.7142              1248.7092
 Red. masses --      1.2528                 1.6747                 1.3644
 Frc consts  --      1.1157                 1.5213                 1.2535
 IR Inten    --     10.7572                 2.9084                 2.5148

                     31                     32                     33
                      A                      A                      A
 Frequencies --   1268.2811              1283.9779              1333.0921
 Red. masses --      1.4252                 1.3106                 1.5899
 Frc consts  --      1.3507                 1.2730                 1.6647
 IR Inten    --      4.1671                 1.1642                 9.7857

                     34                     35                     36
                      A                      A                      A
 Frequencies --   1361.2585              1370.6092              1403.3007
 Red. masses --      1.5599                 1.6682                 1.5959
 Frc consts  --      1.7030                 1.8464                 1.8516
 IR Inten    --     18.6882                 5.6881                17.4344

                     37                     38                     39
                      A                      A                      A
 Frequencies --   1441.1951              1496.0307              1511.3584
 Red. masses --      2.0164                 1.1080                 1.0862
 Frc consts  --      2.4675                 1.4611                 1.4618
 IR Inten    --      5.3721                 1.6494                 0.3667

                     40                     41                     42
                      A                      A                      A
 Frequencies --   1523.9099              1526.1603              2958.6992
 Red. masses --      1.0957                 1.0907                 1.0702
 Frc consts  --      1.4992                 1.4968                 5.5199
 IR Inten    --      0.3422                 0.8166                71.7499

                     43                     44                     45
                      A                      A                      A
 Frequencies --   2973.2682              3003.7747              3035.7128
 Red. masses --      1.0709                 1.0708                 1.0616
 Frc consts  --      5.5780                 5.6922                 5.7643
 IR Inten    --     90.0497                49.2357                30.2355

                     46                     47                     48
                      A                      A                      A
 Frequencies --   3058.3400              3064.4350              3079.6966
 Red. masses --      1.0910                 1.0931                 1.0961
 Frc consts  --      6.0122                 6.0480                 6.1250
 IR Inten    --     37.7025                35.9150                27.4270

                     49                     50                     51
                      A                      A                      A
 Frequencies --   3091.3898              3168.5448              3174.5712
 Red. masses --      1.1005                 1.0922                 1.0900
 Frc consts  --      6.1966                 6.4608                 6.4719
 IR Inten    --     42.7111                11.6569                10.8894

 - Thermochemistry -
 -------------------
 Temperature   298.150 Kelvin.  Pressure   1.00000 Atm.
 Atom     1 has atomic number  6 and mass  12.00000

 Molecular mass:   126.06808 amu.
 Principal axes and moments of inertia in atomic units:
                           1         2         3
     Eigenvalues --   483.187971280.636101481.72139
           X            0.99967  -0.02532  -0.00453
           Y            0.02517   0.99925  -0.02945
           Z            0.00527   0.02932   0.99956
 This molecule is an asymmetric top.
 Rotational symmetry number  1.
 Warning -- assumption of classical behavior for rotation
           may cause significant error
 Rotational temperatures (Kelvin)      0.17925     0.06763     0.05845
 Rotational constants (GHZ):           3.73507     1.40925     1.21800
 Zero-point vibrational energy     425984.6 (Joules/Mol)
                                  101.81277 (Kcal/Mol)
 Warning -- explicit consideration of   7 degrees of freedom as
           vibrations may cause significant error
 Vibrational temperatures:    257.99   284.42   317.31   400.80   487.03
          (Kelvin)            528.07   665.65   919.71   991.85  1024.09
                             1106.18  1253.42  1274.90  1293.37  1334.85
                             1374.07  1397.53  1425.16  1454.67  1519.31
                             1527.55  1569.05  1596.19  1623.87  1642.52
                             1730.10  1749.28  1768.88  1786.55  1796.61
                             1824.77  1847.36  1918.02  1958.54  1972.00
                             2019.03  2073.56  2152.45  2174.50  2192.56
                             2195.80  4256.90  4277.86  4321.76  4367.71
                             4400.26  4409.03  4430.99  4447.81  4558.82
                             4567.49

 Zero-point correction=                           0.162249 (Hartree/Particle)
 Thermal correction to Energy=                    0.169329
 Thermal correction to Enthalpy=                  0.170273
 Thermal correction to Gibbs Free Energy=         0.130957
 Sum of electronic and zero-point Energies=           -423.015391
 Sum of electronic and thermal Energies=              -423.008311
 Sum of electronic and thermal Enthalpies=            -423.007367
 Sum of electronic and thermal Free Energies=         -423.046682

                     E (Thermal)             CV                S
                      KCal/Mol        Cal/Mol-Kelvin    Cal/Mol-Kelvin
 Total                  106.255             28.403             82.747
 Electronic               0.000              0.000              0.000
 Translational            0.889              2.981             40.409
 Rotational               0.889              2.981             28.307
 Vibrational            104.478             22.441             14.031
 Vibration     1          0.629              1.868              2.336
 Vibration     2          0.637              1.843              2.155
 Vibration     3          0.647              1.810              1.955
 Vibration     4          0.679              1.713              1.542
 Vibration     5          0.719              1.599              1.219
 Vibration     6          0.740              1.540              1.092
 Vibration     7          0.820              1.333              0.758

 Optimization completed.
    -- Stationary point found.
 Normal termination of Gaussian 09 at Mon Jan 27 13:11:42 2020.
