 Gaussian 09, Revision D.01,
 Gaussian 09:  ES64L-G09RevD.01 24-Apr-2013

 -----------------------------
 # b3lyp 6-31G(2df,p) opt Freq
 -----------------------------

 -----
 titel
 -----
 Symbolic Z-matrix:
 Charge =  0 Multiplicity = 1

 SCF Done:  E(RB3LYP) =  -423.216409872     A.U. after   15 cycles
 Optimization completed.
    -- Stationary point found.
 Normal termination of Gaussian 09 at Mon Jan 27 16:23:02 2020.

 ----------------------------------------------------------------------
 #N Geom=AllCheck Guess=TCheck SCRF=Check GenChk RB3LYP/6-31G(2df,p) Fr
 eq
 ----------------------------------------------------------------------

 Structure from the checkpoint file:  "/scratch/puck/g09_8b858377-c388-404d-b73e-5491d83fd5d0/Gau-176966.chk"
 -----
 titel
 -----
 Charge =  0 Multiplicity = 1

                         Standard orientation:
 ---------------------------------------------------------------------
 Center     Atomic      Atomic             Coordinates (Angstroms)
 Number     Number       Type             X           Y           Z
 ---------------------------------------------------------------------
      1          6           0        1.721698   -0.421986    1.353043
      2          6           0        1.147765    0.030828   -0.006195
      3          6           0        2.281767    0.291156   -1.006204
      4          8           0        0.374025   -1.012642   -0.603017
      5          6           0       -0.920696   -1.219185   -0.073979
      6          6           0       -1.772524    0.046308   -0.032858
      7          8           0       -2.985352   -0.002431   -0.040256
      8          6           0       -1.012362    1.300826    0.103284
      9          6           0        0.323241    1.283109    0.170034
     10          1           0        2.337292   -1.314620    1.210593
     11          1           0        2.343235    0.362993    1.794322
     12          1           0        0.925577   -0.654699    2.065438
     13          1           0        2.845187   -0.632159   -1.165004
     14          1           0        1.872747    0.615791   -1.966096
     15          1           0        2.965232    1.059200   -0.632963
     16          1           0       -1.410386   -1.957098   -0.713592
     17          1           0       -0.891908   -1.637381    0.946944
     18          1           0       -1.590495    2.213859    0.205249
     19          1           0        0.880801    2.198361    0.358545
 ---------------------------------------------------------------------

 SCF Done:  E(RB3LYP) =  -423.216409872     A.U. after    1 cycles

 The electronic state is 1-A.
 Alpha  occ. eigenvalues --  -19.14886 -19.12572 -10.26507 -10.25926 -10.23489
 Alpha  occ. eigenvalues --  -10.21494 -10.19708 -10.18943 -10.18625  -1.04858
 Alpha  occ. eigenvalues --   -1.03118  -0.82461  -0.78770  -0.71115  -0.69695
 Alpha  occ. eigenvalues --   -0.63812  -0.59779  -0.51927  -0.50154  -0.48942
 Alpha  occ. eigenvalues --   -0.46334  -0.45056  -0.42524  -0.42178  -0.41058
 Alpha  occ. eigenvalues --   -0.40367  -0.38831  -0.37974  -0.36857  -0.36203
 Alpha  occ. eigenvalues --   -0.32247  -0.28445  -0.27524  -0.23292
 Alpha virt. eigenvalues --   -0.05559   0.05672   0.07444   0.09837   0.11714
 Alpha virt. eigenvalues --    0.13769   0.14183   0.14911   0.16373   0.17524
 Alpha virt. eigenvalues --    0.18215   0.19022   0.19352   0.19859   0.21743

 Mulliken charges:
               1
     1  C   -0.415075
     2  C    0.306200
     3  C   -0.411373
     4  O   -0.289253
     5  C   -0.198528
     6  C    0.349162
     7  O   -0.322051
     8  C   -0.193078
     9  C   -0.052043
    10  H    0.129233
    11  H    0.120098
    12  H    0.123453
    13  H    0.130145
    14  H    0.130662
    15  H    0.114763
    16  H    0.137599
    17  H    0.114056
    18  H    0.113343
    19  H    0.112687
 Sum of Mulliken charges =   0.00000

 Dipole moment (field-independent basis, Debye):
    X=              3.3142    Y=              0.9149    Z=              0.9577  Tot=              3.5690
 Quadrupole moment (field-independent basis, Debye-Ang):
   XX=            -61.9090   YY=            -50.3830   ZZ=            -53.2947
   XY=              1.6230   XZ=              0.4889   YZ=             -0.5859

  Exact polarizability: 104.503   3.429  73.789   1.666   0.460  59.610
 Approx polarizability: 163.667   9.071 106.631   3.859   2.698  88.760

                      1                      2                      3
                      A                      A                      A
 Frequencies --     66.1668               200.2367               203.6003
 Red. masses --      4.4320                 2.4548                 2.3844
 Frc consts  --      0.0114                 0.0580                 0.0582
 IR Inten    --      2.3913                 4.7341                 0.2093

                      4                      5                      6
                      A                      A                      A
 Frequencies --    218.3378               255.7735               313.2875
 Red. masses --      1.1830                 1.0683                 2.7976
 Frc consts  --      0.0332                 0.0412                 0.1618
 IR Inten    --      0.3534                 0.2184                 0.7648

                      7                      8                      9
                      A                      A                      A
 Frequencies --    338.9618               382.3937               420.7950
 Red. masses --      2.9188                 2.5743                 4.0445
 Frc consts  --      0.1976                 0.2218                 0.4219
 IR Inten    --      0.1117                 7.1193                15.0425

                     10                     11                     12
                      A                      A                      A
 Frequencies --    460.4036               488.4493               531.2320
 Red. masses --      3.2510                 3.6083                 3.8483
 Frc consts  --      0.4060                 0.5072                 0.6399
 IR Inten    --      2.1645                 3.2414                 1.0171

                     13                     14                     15
                      A                      A                      A
 Frequencies --    620.3421               713.6893               744.4303
 Red. masses --      2.9937                 3.9286                 6.2515
 Frc consts  --      0.6788                 1.1790                 2.0412
 IR Inten    --      0.9931                 0.4047                 4.8963

                     16                     17                     18
                      A                      A                      A
 Frequencies --    794.9979               865.1239               898.9357
 Red. masses --      1.5256                 2.9009                 2.0030
 Frc consts  --      0.5681                 1.2792                 0.9537
 IR Inten    --     20.0914                24.0120                 1.6710

                     19                     20                     21
                      A                      A                      A
 Frequencies --    927.8639               951.2373              1015.0595
 Red. masses --      1.5818                 2.1247                 1.2925
 Frc consts  --      0.8024                 1.1327                 0.7846
 IR Inten    --      1.6435                 3.2629                 0.8011

                     22                     23                     24
                      A                      A                      A
 Frequencies --   1017.7467              1033.8784              1124.5468
 Red. masses --      1.9263                 1.4780                 5.7352
 Frc consts  --      1.1756                 0.9308                 4.2732
 IR Inten    --      3.2472                 1.0974                63.7624

                     25                     26                     27
                      A                      A                      A
 Frequencies --   1129.5055              1185.9059              1222.1155
 Red. masses --      1.3371                 2.7444                 2.7876
 Frc consts  --      1.0050                 2.2741                 2.4531
 IR Inten    --     30.4498                22.4955                14.2613

                     28                     29                     30
                      A                      A                      A
 Frequencies --   1235.9882              1262.5979              1290.7243
 Red. masses --      1.9795                 1.4042                 2.0887
 Frc consts  --      1.7817                 1.3189                 2.0502
 IR Inten    --     19.9996                18.8497                56.5766

                     31                     32                     33
                      A                      A                      A
 Frequencies --   1368.4787              1390.8215              1399.7301
 Red. masses --      1.4288                 1.2439                 1.5865
 Frc consts  --      1.5766                 1.4177                 1.8314
 IR Inten    --     10.7467                 7.2685                16.0595

                     34                     35                     36
                      A                      A                      A
 Frequencies --   1417.8119              1467.3851              1477.6861
 Red. masses --      1.3341                 1.0719                 1.0553
 Frc consts  --      1.5801                 1.3599                 1.3576
 IR Inten    --      0.2530                 3.2298                 4.8115

                     37                     38                     39
                      A                      A                      A
 Frequencies --   1482.1537              1496.1681              1507.3829
 Red. masses --      1.0463                 1.0603                 1.0634
 Frc consts  --      1.3543                 1.3984                 1.4237
 IR Inten    --      0.7504                 0.4454                 5.4421

                     40                     41                     42
                      A                      A                      A
 Frequencies --   1681.3412              1788.2300              2963.7895
 Red. masses --      7.5238                11.7212                 1.0705
 Frc consts  --     12.5313                22.0835                 5.5401
 IR Inten    --     12.2094               232.8266                33.0998

                     43                     44                     45
                      A                      A                      A
 Frequencies --   3041.8218              3047.2670              3107.3021
 Red. masses --      1.0340                 1.0344                 1.0902
 Frc consts  --      5.6367                 5.6590                 6.2017
 IR Inten    --     14.7211                13.6309                14.0271

                     46                     47                     48
                      A                      A                      A
 Frequencies --   3114.9704              3122.0483              3125.4831
 Red. masses --      1.1013                 1.1028                 1.1021
 Frc consts  --      6.2962                 6.3334                 6.3432
 IR Inten    --      9.3531                11.6174                24.2777

                     49                     50                     51
                      A                      A                      A
 Frequencies --   3129.5961              3150.1907              3188.6077
 Red. masses --      1.1027                 1.0871                 1.0957
 Frc consts  --      6.3633                 6.3559                 6.5637
 IR Inten    --     17.6820                10.6535                 7.9609

 - Thermochemistry -
 -------------------
 Temperature   298.150 Kelvin.  Pressure   1.00000 Atm.
 Atom     1 has atomic number  6 and mass  12.00000

 Molecular mass:   126.06808 amu.
 Principal axes and moments of inertia in atomic units:
                           1         2         3
     Eigenvalues --   552.882101480.182971628.62772
           X            0.99996   0.00894   0.00086
           Y           -0.00888   0.99840  -0.05589
           Z           -0.00136   0.05588   0.99844
 This molecule is an asymmetric top.
 Rotational symmetry number  1.
 Warning -- assumption of classical behavior for rotation
           may cause significant error
 Rotational temperatures (Kelvin)      0.15666     0.05852     0.05318
 Rotational constants (GHZ):           3.26424     1.21927     1.10814
 Zero-point vibrational energy     415000.1 (Joules/Mol)
                                   99.18740 (Kcal/Mol)
 Warning -- explicit consideration of  13 degrees of freedom as
           vibrations may cause significant error
 Vibrational temperatures:     95.20   288.10   292.94   314.14   368.00
          (Kelvin)            450.75   487.69   550.18   605.43   662.42
                              702.77   764.32   892.53  1026.84  1071.07
                             1143.82  1244.72  1293.37  1334.99  1368.62
                             1460.44  1464.31  1487.52  1617.97  1625.10
                             1706.25  1758.35  1778.31  1816.59  1857.06
                             1968.93  2001.08  2013.90  2039.91  2111.24
                             2126.06  2132.49  2152.65  2168.79  2419.07
                             2572.86  4264.23  4376.50  4384.33  4470.71
                             4481.74  4491.93  4496.87  4502.79  4532.42
                             4587.69

 Zero-point correction=                           0.158065 (Hartree/Particle)
 Thermal correction to Energy=                    0.166830
 Thermal correction to Enthalpy=                  0.167774
 Thermal correction to Gibbs Free Energy=         0.124931
 Sum of electronic and zero-point Energies=           -423.058345
 Sum of electronic and thermal Energies=              -423.049580
 Sum of electronic and thermal Enthalpies=            -423.048636
 Sum of electronic and thermal Free Energies=         -423.091479

                     E (Thermal)             CV                S
                      KCal/Mol        Cal/Mol-Kelvin    Cal/Mol-Kelvin
 Total                  104.687             33.668             90.170
 Electronic               0.000              0.000              0.000
 Translational            0.889              2.981             40.409
 Rotational               0.889              2.981             28.679
 Vibrational            102.910             27.707             21.082
 Vibration     1          0.598              1.970              4.264
 Vibration     2          0.638              1.840              2.131
 Vibration     3          0.639              1.835              2.100
 Vibration     4          0.646              1.813              1.973
 Vibration     5          0.666              1.753              1.690
 Vibration     6          0.701              1.648              1.345
 Vibration     7          0.719              1.598              1.217
 Vibration     8          0.752              1.508              1.030
 Vibration     9          0.783              1.425              0.889
 Vibration    10          0.818              1.338              0.765
 Vibration    11          0.844              1.276              0.688
 Vibration    12          0.886              1.181              0.584
 Vibration    13          0.980              0.989              0.416

 Optimization completed.
    -- Stationary point found.
 Normal termination of Gaussian 09 at Mon Jan 27 17:06:33 2020.
