 Gaussian 09, Revision D.01,
 Gaussian 09:  ES64L-G09RevD.01 24-Apr-2013

 -----------------------------
 # b3lyp 6-31G(2df,p) opt Freq
 -----------------------------

 -----
 titel
 -----
 Symbolic Z-matrix:
 Charge =  0 Multiplicity = 1

 SCF Done:  E(RB3LYP) =  -423.182069626     A.U. after   14 cycles
 Optimization completed.
    -- Stationary point found.
 Normal termination of Gaussian 09 at Mon Jan 27 22:00:52 2020.

 ----------------------------------------------------------------------
 #N Geom=AllCheck Guess=TCheck SCRF=Check GenChk RB3LYP/6-31G(2df,p) Fr
 eq
 ----------------------------------------------------------------------

 Structure from the checkpoint file:  "/scratch/puck/g09_4152d312-8da2-4626-9bf8-48c3180cf4f9/Gau-98428.chk"
 -----
 titel
 -----
 Charge =  0 Multiplicity = 1

                         Standard orientation:
 ---------------------------------------------------------------------
 Center     Atomic      Atomic             Coordinates (Angstroms)
 Number     Number       Type             X           Y           Z
 ---------------------------------------------------------------------
      1          6           0       -2.465176   -0.051837    0.434389
      2          6           0       -1.174383   -0.063526   -0.378524
      3          6           0       -0.110082   -1.173341   -0.146460
      4          8           0       -0.011247   -2.296713   -0.576527
      5          6           0        0.938256   -0.247025    0.335994
      6          8           0        2.282662   -0.446562    0.177039
      7          6           0        0.443673    0.780052    1.310806
      8          6           0       -0.049162    0.949851   -0.092588
      9          6           0        0.276480    2.133200   -0.952742
     10          1           0       -3.074769    0.825048    0.192594
     11          1           0       -3.057617   -0.944301    0.210407
     12          1           0       -2.277357   -0.041864    1.511884
     13          1           0       -1.415464   -0.076619   -1.449174
     14          1           0        2.390089   -1.099552   -0.527266
     15          1           0       -0.215963    0.513052    2.131952
     16          1           0        1.235841    1.468138    1.595799
     17          1           0       -0.407433    2.968574   -0.759463
     18          1           0        1.294485    2.486640   -0.759554
     19          1           0        0.199235    1.882842   -2.016526
 ---------------------------------------------------------------------

 SCF Done:  E(RB3LYP) =  -423.182069626     A.U. after    1 cycles

 The electronic state is 1-A.
 Alpha  occ. eigenvalues --  -19.16593 -19.12499 -10.26194 -10.25197 -10.21811
 Alpha  occ. eigenvalues --  -10.20450 -10.20109 -10.19358 -10.18415  -1.05878
 Alpha  occ. eigenvalues --   -1.02957  -0.90234  -0.76337  -0.73536  -0.68911
 Alpha  occ. eigenvalues --   -0.61488  -0.56810  -0.55710  -0.48854  -0.47747
 Alpha  occ. eigenvalues --   -0.46055  -0.44040  -0.42674  -0.41148  -0.41024
 Alpha  occ. eigenvalues --   -0.40021  -0.39672  -0.37080  -0.36680  -0.35027
 Alpha  occ. eigenvalues --   -0.34052  -0.31017  -0.23994  -0.23323
 Alpha virt. eigenvalues --   -0.00786   0.06859   0.09451   0.10456   0.11969
 Alpha virt. eigenvalues --    0.12770   0.13410   0.13592   0.15586   0.16615
 Alpha virt. eigenvalues --    0.17889   0.18540   0.19167   0.20827   0.21043

 Mulliken charges:
               1
     1  C   -0.421195
     2  C   -0.150812
     3  C    0.308321
     4  O   -0.351222
     5  C    0.290579
     6  O   -0.448677
     7  C   -0.382523
     8  C    0.237575
     9  C   -0.494736
    10  H    0.120113
    11  H    0.134999
    12  H    0.119679
    13  H    0.096164
    14  H    0.301623
    15  H    0.120379
    16  H    0.132378
    17  H    0.130126
    18  H    0.132576
    19  H    0.124652
 Sum of Mulliken charges =   0.00000

 Dipole moment (field-independent basis, Debye):
    X=             -0.6074    Y=              2.7189    Z=             -0.1123  Tot=              2.7882
 Quadrupole moment (field-independent basis, Debye-Ang):
   XX=            -52.8602   YY=            -58.8288   ZZ=            -51.4445
   XY=             -1.0522   XZ=             -2.3345   YZ=             -1.0741

  Exact polarizability:  80.952  -0.295  84.777   1.353   3.192  67.500
 Approx polarizability: 113.578  -3.499 135.564   4.516   9.070 103.400

                      1                      2                      3
                      A                      A                      A
 Frequencies --     71.8316               153.6649               187.9733
 Red. masses --      4.8345                 2.7728                 1.2603
 Frc consts  --      0.0147                 0.0386                 0.0262
 IR Inten    --      4.9445                 1.1350                 3.0278

                      4                      5                      6
                      A                      A                      A
 Frequencies --    190.5342               198.1738               218.7879
 Red. masses --      2.0274                 1.2556                 2.3829
 Frc consts  --      0.0434                 0.0291                 0.0672
 IR Inten    --      3.9806                 2.3092                 5.6524

                      7                      8                      9
                      A                      A                      A
 Frequencies --    259.1167               366.9449               397.9583
 Red. masses --      2.8064                 2.0195                 1.5087
 Frc consts  --      0.1110                 0.1602                 0.1408
 IR Inten    --      6.0537                16.3319                61.5369

                     10                     11                     12
                      A                      A                      A
 Frequencies --    424.9832               477.5329               543.7739
 Red. masses --      3.7357                 2.9304                 3.2252
 Frc consts  --      0.3975                 0.3937                 0.5619
 IR Inten    --      0.5317                 3.6729                 2.1772

                     13                     14                     15
                      A                      A                      A
 Frequencies --    597.5503               644.8587               672.8572
 Red. masses --      4.4524                 3.6348                 7.1850
 Frc consts  --      0.9367                 0.8905                 1.9166
 IR Inten    --      4.2308                11.2886                 8.7592

                     16                     17                     18
                      A                      A                      A
 Frequencies --    722.5474               775.6868               897.9365
 Red. masses --      3.7411                 3.8448                 1.9680
 Frc consts  --      1.1508                 1.3630                 0.9349
 IR Inten    --     15.6071                 4.4714                 1.6248

                     19                     20                     21
                      A                      A                      A
 Frequencies --    928.7268               971.6332               987.6118
 Red. masses --      3.0679                 1.3404                 1.3729
 Frc consts  --      1.5591                 0.7456                 0.7890
 IR Inten    --     50.0724                 3.7064                 1.8698

                     22                     23                     24
                      A                      A                      A
 Frequencies --   1052.8675              1058.4798              1078.9128
 Red. masses --      1.4341                 1.5201                 1.6175
 Frc consts  --      0.9367                 1.0034                 1.1094
 IR Inten    --     11.0364                10.7393                 0.2601

                     25                     26                     27
                      A                      A                      A
 Frequencies --   1120.7580              1131.9765              1149.1986
 Red. masses --      1.4008                 2.4581                 2.6263
 Frc consts  --      1.0367                 1.8558                 2.0436
 IR Inten    --      4.5694                 4.3478                99.1083

                     28                     29                     30
                      A                      A                      A
 Frequencies --   1189.8380              1262.3071              1311.3178
 Red. masses --      1.7870                 2.6219                 1.8185
 Frc consts  --      1.4905                 2.4615                 1.8424
 IR Inten    --     14.2201                 2.2474                40.3416

                     31                     32                     33
                      A                      A                      A
 Frequencies --   1377.6656              1381.8405              1409.1578
 Red. masses --      2.2661                 2.1308                 1.2790
 Frc consts  --      2.5341                 2.3972                 1.4963
 IR Inten    --     26.0694                82.0466                 2.6104

                     34                     35                     36
                      A                      A                      A
 Frequencies --   1417.0195              1428.3539              1483.1657
 Red. masses --      1.4236                 1.7181                 1.0495
 Frc consts  --      1.6842                 2.0652                 1.3602
 IR Inten    --      2.3218                 2.4454                 6.8839

                     37                     38                     39
                      A                      A                      A
 Frequencies --   1495.1311              1495.8412              1498.5875
 Red. masses --      1.1030                 1.0511                 1.0812
 Frc consts  --      1.4527                 1.3857                 1.4306
 IR Inten    --      2.5682                 3.8140                 5.3499

                     40                     41                     42
                      A                      A                      A
 Frequencies --   1512.6200              1832.2556              3021.9859
 Red. masses --      1.3276                12.4621                 1.0365
 Frc consts  --      1.7896                24.6498                 5.5770
 IR Inten    --      6.6952               382.2683                31.9575

                     43                     44                     45
                      A                      A                      A
 Frequencies --   3032.2789              3037.9798              3080.4408
 Red. masses --      1.0821                 1.0362                 1.0995
 Frc consts  --      5.8619                 5.6344                 6.1470
 IR Inten    --     17.5695                22.9102                17.2424

                     46                     47                     48
                      A                      A                      A
 Frequencies --   3101.2541              3103.5961              3109.2369
 Red. masses --      1.1008                 1.0990                 1.0726
 Frc consts  --      6.2377                 6.2371                 6.1095
 IR Inten    --     13.4795                17.2712                 2.8869

                     49                     50                     51
                      A                      A                      A
 Frequencies --   3113.5894              3190.1653              3767.6658
 Red. masses --      1.0848                 1.1145                 1.0654
 Frc consts  --      6.1960                 6.6830                 8.9110
 IR Inten    --     40.5511                 7.9872                40.7376

 - Thermochemistry -
 -------------------
 Temperature   298.150 Kelvin.  Pressure   1.00000 Atm.
 Atom     1 has atomic number  6 and mass  12.00000

 Molecular mass:   126.06808 amu.
 Principal axes and moments of inertia in atomic units:
                           1         2         3
     Eigenvalues --   932.388661008.043501511.63749
           X            0.99701   0.07418  -0.02143
           Y           -0.07476   0.99682  -0.02768
           Z            0.01931   0.02920   0.99939
 This molecule is an asymmetric top.
 Rotational symmetry number  1.
 Warning -- assumption of classical behavior for rotation
           may cause significant error
 Rotational temperatures (Kelvin)      0.09289     0.08592     0.05730
 Rotational constants (GHZ):           1.93561     1.79034     1.19390
 Zero-point vibrational energy     412329.9 (Joules/Mol)
                                   98.54920 (Kcal/Mol)
 Warning -- explicit consideration of  13 degrees of freedom as
           vibrations may cause significant error
 Vibrational temperatures:    103.35   221.09   270.45   274.14   285.13
          (Kelvin)            314.79   372.81   527.95   572.57   611.46
                              687.06   782.37   859.74   927.81   968.09
                             1039.58  1116.04  1291.93  1336.23  1397.96
                             1420.95  1514.84  1522.91  1552.31  1612.52
                             1628.66  1653.44  1711.91  1816.18  1886.69
                             1982.15  1988.16  2027.46  2038.77  2055.08
                             2133.94  2151.16  2152.18  2156.13  2176.32
                             2636.20  4347.96  4362.77  4370.97  4432.06
                             4462.01  4465.38  4473.49  4479.76  4589.93
                             5420.82

 Zero-point correction=                           0.157048 (Hartree/Particle)
 Thermal correction to Energy=                    0.166458
 Thermal correction to Enthalpy=                  0.167402
 Thermal correction to Gibbs Free Energy=         0.123153
 Sum of electronic and zero-point Energies=           -423.025021
 Sum of electronic and thermal Energies=              -423.015611
 Sum of electronic and thermal Enthalpies=            -423.014667
 Sum of electronic and thermal Free Energies=         -423.058917

                     E (Thermal)             CV                S
                      KCal/Mol        Cal/Mol-Kelvin    Cal/Mol-Kelvin
 Total                  104.454             35.069             93.131
 Electronic               0.000              0.000              0.000
 Translational            0.889              2.981             40.409
 Rotational               0.889              2.981             28.743
 Vibrational            102.677             29.107             23.980
 Vibration     1          0.598              1.967              4.103
 Vibration     2          0.619              1.899              2.626
 Vibration     3          0.633              1.856              2.248
 Vibration     4          0.634              1.853              2.223
 Vibration     5          0.637              1.842              2.150
 Vibration     6          0.647              1.812              1.969
 Vibration     7          0.668              1.747              1.668
 Vibration     8          0.740              1.540              1.093
 Vibration     9          0.764              1.475              0.970
 Vibration    10          0.787              1.416              0.875
 Vibration    11          0.834              1.300              0.717
 Vibration    12          0.899              1.153              0.557
 Vibration    13          0.955              1.037              0.454

 Normal termination of Gaussian 09 at Mon Jan 27 22:50:57 2020.
