 Gaussian 09, Revision D.01,
 Gaussian 09:  ES64L-G09RevD.01 24-Apr-2013

 -----------------------------
 # b3lyp 6-31G(2df,p) opt Freq
 -----------------------------

 -----
 titel
 -----
 Symbolic Z-matrix:
 Charge =  0 Multiplicity = 1

 SCF Done:  E(RB3LYP) =  -423.212012018     A.U. after   14 cycles
 Optimization completed.
    -- Stationary point found.
 Normal termination of Gaussian 09 at Mon Jan 27 17:13:00 2020.

 ----------------------------------------------------------------------
 #N Geom=AllCheck Guess=TCheck SCRF=Check GenChk RB3LYP/6-31G(2df,p) Fr
 eq
 ----------------------------------------------------------------------

 Structure from the checkpoint file:  "/scratch/puck/g09_f1c61e53-bd5f-42fb-bb99-96d720ef59c2/Gau-86356.chk"
 -----
 titel
 -----
 Charge =  0 Multiplicity = 1

                         Standard orientation:
 ---------------------------------------------------------------------
 Center     Atomic      Atomic             Coordinates (Angstroms)
 Number     Number       Type             X           Y           Z
 ---------------------------------------------------------------------
      1          6           0       -0.013953    2.130838   -0.308135
      2          6           0        0.069529    0.700843    0.157542
      3          6           0       -0.758859    0.233122    1.367583
      4          6           0       -1.042758   -0.327237    0.012032
      5          8           0       -2.204906    0.042415   -0.660932
      6          6           0       -0.430623   -1.687428   -0.318103
      7          6           0        1.064608   -1.556057    0.035947
      8          6           0        1.355560   -0.047893   -0.018063
      9          8           0        2.432451    0.451467   -0.236068
     10          1           0        0.587888    2.783858    0.330705
     11          1           0        0.366968    2.227259   -1.329085
     12          1           0       -1.049594    2.479193   -0.295759
     13          1           0       -0.302229   -0.380427    2.137947
     14          1           0       -1.454014    0.981012    1.734535
     15          1           0       -2.957981   -0.340262   -0.197950
     16          1           0       -0.927878   -2.508295    0.210632
     17          1           0       -0.557791   -1.860212   -1.391703
     18          1           0        1.280375   -1.921773    1.046892
     19          1           0        1.732875   -2.088530   -0.643023
 ---------------------------------------------------------------------

 SCF Done:  E(RB3LYP) =  -423.212012018     A.U. after    1 cycles

 The electronic state is 1-A.
 Alpha  occ. eigenvalues --  -19.15600 -19.12165 -10.26093 -10.25179 -10.20185
 Alpha  occ. eigenvalues --  -10.19952 -10.19453 -10.19193 -10.17631  -1.04374
 Alpha  occ. eigenvalues --   -1.03222  -0.88503  -0.77728  -0.71659  -0.67170
 Alpha  occ. eigenvalues --   -0.62733  -0.58585  -0.52106  -0.50980  -0.47623
 Alpha  occ. eigenvalues --   -0.45783  -0.43806  -0.42196  -0.41861  -0.40625
 Alpha  occ. eigenvalues --   -0.39120  -0.38431  -0.37683  -0.36184  -0.34390
 Alpha  occ. eigenvalues --   -0.32317  -0.28133  -0.26895  -0.23411
 Alpha virt. eigenvalues --   -0.00861   0.06724   0.09047   0.10753   0.11703
 Alpha virt. eigenvalues --    0.12842   0.14555   0.15257   0.16149   0.17032
 Alpha virt. eigenvalues --    0.18500   0.19507   0.21322   0.21991   0.23005

 Mulliken charges:
               1
     1  C   -0.479287
     2  C    0.175611
     3  C   -0.397662
     4  C    0.365788
     5  O   -0.468225
     6  C   -0.282885
     7  C   -0.345807
     8  C    0.371151
     9  O   -0.328818
    10  H    0.130003
    11  H    0.130986
    12  H    0.124389
    13  H    0.116266
    14  H    0.123159
    15  H    0.287285
    16  H    0.096731
    17  H    0.120293
    18  H    0.129051
    19  H    0.131970
 Sum of Mulliken charges =   0.00000

 Dipole moment (field-independent basis, Debye):
    X=             -3.0169    Y=             -1.7574    Z=              1.5209  Tot=              3.8083
 Quadrupole moment (field-independent basis, Debye-Ang):
   XX=            -57.5333   YY=            -50.8705   ZZ=            -52.5257
   XY=             -1.2368   XZ=             -1.7897   YZ=              0.4457

  Exact polarizability:  82.909   1.588  79.541  -3.562  -0.451  64.753
 Approx polarizability: 126.981   7.892 107.718  -6.840  -2.414 101.645

                      1                      2                      3
                      A                      A                      A
 Frequencies --    103.8033               144.9411               184.7089
 Red. masses --      3.9075                 1.0792                 2.0608
 Frc consts  --      0.0248                 0.0134                 0.0414
 IR Inten    --      3.9336                 1.2879                 0.2201

                      4                      5                      6
                      A                      A                      A
 Frequencies --    210.7107               243.8343               259.2716
 Red. masses --      3.2073                 1.1182                 2.9103
 Frc consts  --      0.0839                 0.0392                 0.1153
 IR Inten    --     12.4211                80.3150                 0.6861

                      7                      8                      9
                      A                      A                      A
 Frequencies --    332.5800               426.6270               439.4074
 Red. masses --      3.5978                 3.6732                 2.4891
 Frc consts  --      0.2345                 0.3939                 0.2832
 IR Inten    --      2.0641                 5.7610                 3.6632

                     10                     11                     12
                      A                      A                      A
 Frequencies --    480.9060               546.3728               564.5325
 Red. masses --      4.1929                 3.3747                 2.4310
 Frc consts  --      0.5713                 0.5936                 0.4565
 IR Inten    --      3.4355                12.7177                 2.7185

                     13                     14                     15
                      A                      A                      A
 Frequencies --    662.0177               672.2371               690.0109
 Red. masses --      4.4059                 3.6194                 3.4283
 Frc consts  --      1.1377                 0.9637                 0.9617
 IR Inten    --      5.3984                 4.1725                 5.6926

                     16                     17                     18
                      A                      A                      A
 Frequencies --    807.7745               856.2734               903.1370
 Red. masses --      2.1302                 1.8659                 1.8404
 Frc consts  --      0.8189                 0.8061                 0.8844
 IR Inten    --     18.5246                13.1941                 4.9658

                     19                     20                     21
                      A                      A                      A
 Frequencies --    938.3076               964.6644               990.9634
 Red. masses --      1.6823                 1.4198                 2.2175
 Frc consts  --      0.8727                 0.7784                 1.2830
 IR Inten    --      2.2884                 6.7913                 3.8533

                     22                     23                     24
                      A                      A                      A
 Frequencies --   1027.8452              1046.2155              1074.0929
 Red. masses --      1.8282                 1.4297                 3.0969
 Frc consts  --      1.1380                 0.9220                 2.1050
 IR Inten    --     28.1641                 8.1038                26.0849

                     25                     26                     27
                      A                      A                      A
 Frequencies --   1105.2235              1125.4833              1187.8083
 Red. masses --      1.6594                 1.6794                 1.9212
 Frc consts  --      1.1942                 1.2534                 1.5970
 IR Inten    --      8.1681                29.4908                11.9353

                     28                     29                     30
                      A                      A                      A
 Frequencies --   1219.9754              1232.9743              1275.8915
 Red. masses --      1.6563                 2.0109                 1.5180
 Frc consts  --      1.4525                 1.8011                 1.4560
 IR Inten    --     25.0776                10.2933                 7.5436

                     31                     32                     33
                      A                      A                      A
 Frequencies --   1305.9522              1320.6271              1356.7323
 Red. masses --      1.3867                 2.4368                 2.9196
 Frc consts  --      1.3934                 2.5040                 3.1664
 IR Inten    --     26.0416                43.2973                50.2084

                     34                     35                     36
                      A                      A                      A
 Frequencies --   1402.5494              1415.0182              1462.0690
 Red. masses --      1.7105                 1.4147                 1.1111
 Frc consts  --      1.9825                 1.6689                 1.3994
 IR Inten    --      8.0233                 0.0954                 8.4244

                     37                     38                     39
                      A                      A                      A
 Frequencies --   1483.8506              1485.9819              1495.2567
 Red. masses --      1.2875                 1.0538                 1.0537
 Frc consts  --      1.6703                 1.3710                 1.3880
 IR Inten    --     11.5200                 1.8342                 6.9639

                     40                     41                     42
                      A                      A                      A
 Frequencies --   1507.4601              1827.6893              3038.3664
 Red. masses --      1.2037                12.4888                 1.0614
 Frc consts  --      1.6117                24.5797                 5.7732
 IR Inten    --      7.4894               247.0559                43.8976

                     43                     44                     45
                      A                      A                      A
 Frequencies --   3045.3394              3047.4246              3084.2102
 Red. masses --      1.0354                 1.0676                 1.1017
 Frc consts  --      5.6578                 5.8416                 6.1746
 IR Inten    --     23.8296                 5.0207                17.1685

                     46                     47                     48
                      A                      A                      A
 Frequencies --   3110.1890              3120.0799              3123.2837
 Red. masses --      1.1013                 1.0954                 1.0569
 Frc consts  --      6.2768                 6.2830                 6.0746
 IR Inten    --     14.2584                 8.8586                 9.5774

                     49                     50                     51
                      A                      A                      A
 Frequencies --   3126.8813              3213.9423              3801.8823
 Red. masses --      1.0989                 1.1166                 1.0663
 Frc consts  --      6.3304                 6.7958                 9.0807
 IR Inten    --     13.7583                 5.7382                25.9063

 - Thermochemistry -
 -------------------
 Temperature   298.150 Kelvin.  Pressure   1.00000 Atm.
 Atom     1 has atomic number  6 and mass  12.00000

 Molecular mass:   126.06808 amu.
 Principal axes and moments of inertia in atomic units:
                           1         2         3
     Eigenvalues --   760.825131053.370721484.71225
           X            0.99923  -0.03821  -0.00874
           Y            0.03818   0.99927  -0.00334
           Z            0.00886   0.00300   0.99996
 This molecule is an asymmetric top.
 Rotational symmetry number  1.
 Warning -- assumption of classical behavior for rotation
           may cause significant error
 Rotational temperatures (Kelvin)      0.11384     0.08223     0.05834
 Rotational constants (GHZ):           2.37208     1.71330     1.21555
 Zero-point vibrational energy     415662.7 (Joules/Mol)
                                   99.34577 (Kcal/Mol)
 Warning -- explicit consideration of  12 degrees of freedom as
           vibrations may cause significant error
 Vibrational temperatures:    149.35   208.54   265.75   303.17   350.82
          (Kelvin)            373.03   478.51   613.82   632.21   691.92
                              786.11   812.24   952.49   967.20   992.77
                             1162.21  1231.98  1299.41  1350.01  1387.94
                             1425.77  1478.84  1505.27  1545.38  1590.17
                             1619.32  1708.99  1755.27  1773.97  1835.72
                             1878.97  1900.09  1952.03  2017.95  2035.89
                             2103.59  2134.93  2137.99  2151.34  2168.90
                             2629.63  4371.53  4381.56  4384.56  4437.49
                             4474.86  4489.09  4493.70  4498.88  4624.14
                             5470.05

 Zero-point correction=                           0.158318 (Hartree/Particle)
 Thermal correction to Energy=                    0.167138
 Thermal correction to Enthalpy=                  0.168082
 Thermal correction to Gibbs Free Energy=         0.125279
 Sum of electronic and zero-point Energies=           -423.053694
 Sum of electronic and thermal Energies=              -423.044874
 Sum of electronic and thermal Enthalpies=            -423.043930
 Sum of electronic and thermal Free Energies=         -423.086733

                     E (Thermal)             CV                S
                      KCal/Mol        Cal/Mol-Kelvin    Cal/Mol-Kelvin
 Total                  104.880             33.854             90.085
 Electronic               0.000              0.000              0.000
 Translational            0.889              2.981             40.409
 Rotational               0.889              2.981             28.566
 Vibrational            103.103             27.893             21.110
 Vibration     1          0.605              1.946              3.382
 Vibration     2          0.616              1.908              2.738
 Vibration     3          0.631              1.861              2.280
 Vibration     4          0.643              1.824              2.038
 Vibration     5          0.659              1.773              1.775
 Vibration     6          0.668              1.747              1.667
 Vibration     7          0.715              1.610              1.248
 Vibration     8          0.788              1.412              0.870
 Vibration     9          0.799              1.384              0.828
 Vibration    10          0.837              1.292              0.708
 Vibration    11          0.902              1.148              0.552
 Vibration    12          0.920              1.108              0.515

 Normal termination of Gaussian 09 at Mon Jan 27 17:58:02 2020.
