 Gaussian 09, Revision D.01,
 Gaussian 09:  ES64L-G09RevD.01 24-Apr-2013

 -----------------------------
 # b3lyp 6-31G(2df,p) opt Freq
 -----------------------------

 -----
 titel
 -----
 Symbolic Z-matrix:
 Charge =  0 Multiplicity = 1

 SCF Done:  E(RB3LYP) =  -423.225303687     A.U. after   14 cycles
 Optimization completed.
    -- Stationary point found.
 Normal termination of Gaussian 09 at Tue Jan 28 12:38:24 2020.

 ----------------------------------------------------------------------
 #N Geom=AllCheck Guess=TCheck SCRF=Check GenChk RB3LYP/6-31G(2df,p) Fr
 eq
 ----------------------------------------------------------------------

 Structure from the checkpoint file:  "/scratch/puck/g09_e95fd54e-fdf0-44b4-8b72-e0410b4fd3b1/Gau-20629.chk"
 -----
 titel
 -----
 Charge =  0 Multiplicity = 1

                         Standard orientation:
 ---------------------------------------------------------------------
 Center     Atomic      Atomic             Coordinates (Angstroms)
 Number     Number       Type             X           Y           Z
 ---------------------------------------------------------------------
      1          6           0        2.216502   -1.402792   -0.540142
      2          6           0        1.287774   -0.531746    0.317592
      3          6           0        1.749925    0.904340    0.425584
      4          6           0        0.797562    1.800107    0.137030
      5          6           0       -0.457754    1.097774   -0.192438
      6          8           0       -1.553986    1.594622   -0.373546
      7          6           0       -0.156309   -0.406626   -0.218265
      8          6           0       -1.234867   -1.192421    0.546926
      9          8           0       -2.498040   -1.074163   -0.062031
     10          1           0        1.840798   -2.428856   -0.596925
     11          1           0        2.288610   -1.011274   -1.560112
     12          1           0        3.226713   -1.438342   -0.119306
     13          1           0        1.267613   -0.959392    1.331793
     14          1           0        2.765960    1.147175    0.722597
     15          1           0        0.877313    2.879066    0.167775
     16          1           0       -0.199695   -0.728235   -1.266844
     17          1           0       -0.979927   -2.258533    0.560403
     18          1           0       -1.249837   -0.850658    1.597306
     19          1           0       -2.638340   -0.126443   -0.209803
 ---------------------------------------------------------------------

 SCF Done:  E(RB3LYP) =  -423.225303687     A.U. after    1 cycles

 The electronic state is 1-A.
 Alpha  occ. eigenvalues --  -19.13577 -19.11831 -10.27141 -10.22943 -10.22232
 Alpha  occ. eigenvalues --  -10.21407 -10.20139 -10.19588 -10.19408  -1.04447
 Alpha  occ. eigenvalues --   -1.00336  -0.86824  -0.76549  -0.74071  -0.65347
 Alpha  occ. eigenvalues --   -0.64512  -0.57494  -0.53745  -0.50990  -0.49577
 Alpha  occ. eigenvalues --   -0.45411  -0.43953  -0.43214  -0.41775  -0.41468
 Alpha  occ. eigenvalues --   -0.40122  -0.38313  -0.37696  -0.36155  -0.35673
 Alpha  occ. eigenvalues --   -0.31899  -0.28337  -0.25698  -0.24821
 Alpha virt. eigenvalues --   -0.05668   0.04640   0.08496   0.11514   0.11622
 Alpha virt. eigenvalues --    0.12185   0.13618   0.14873   0.14913   0.16014
 Alpha virt. eigenvalues --    0.16684   0.17427   0.19516   0.21832   0.23001

 Mulliken charges:
               1
     1  C   -0.403987
     2  C   -0.060727
     3  C   -0.047328
     4  C   -0.181710
     5  C    0.382989
     6  O   -0.362147
     7  C   -0.141645
     8  C   -0.066056
     9  O   -0.427350
    10  H    0.129174
    11  H    0.126075
    12  H    0.118770
    13  H    0.098084
    14  H    0.118418
    15  H    0.121161
    16  H    0.111860
    17  H    0.103594
    18  H    0.083959
    19  H    0.296867
 Sum of Mulliken charges =   0.00000

 Dipole moment (field-independent basis, Debye):
    X=              4.4038    Y=             -0.1895    Z=              0.7803  Tot=              4.4764
 Quadrupole moment (field-independent basis, Debye-Ang):
   XX=            -58.0186   YY=            -54.5523   ZZ=            -52.7564
   XY=             -0.1058   XZ=             -0.2047   YZ=              0.4657

  Exact polarizability:  93.540  -5.400  83.526   5.296  -0.993  56.940
 Approx polarizability: 145.331 -18.259 122.514  15.007  -5.221  90.759

                      1                      2                      3
                      A                      A                      A
 Frequencies --     58.2455               148.1031               188.1073
 Red. masses --      4.5874                 3.0582                 3.6248
 Frc consts  --      0.0092                 0.0395                 0.0756
 IR Inten    --      0.4566                 4.5478                 1.8718

                      4                      5                      6
                      A                      A                      A
 Frequencies --    222.2766               245.6537               247.6831
 Red. masses --      1.4922                 2.0881                 2.3275
 Frc consts  --      0.0434                 0.0742                 0.0841
 IR Inten    --      1.3729                 2.6470                 1.2687

                      7                      8                      9
                      A                      A                      A
 Frequencies --    311.0166               404.3147               475.2774
 Red. masses --      3.1652                 6.1099                 2.9760
 Frc consts  --      0.1804                 0.5885                 0.3961
 IR Inten    --      1.4048                 4.2854                10.5374

                     10                     11                     12
                      A                      A                      A
 Frequencies --    526.3979               579.2799               601.8085
 Red. masses --      3.6275                 1.1289                 3.0889
 Frc consts  --      0.5922                 0.2232                 0.6591
 IR Inten    --      5.0524                97.6998                21.1514

                     13                     14                     15
                      A                      A                      A
 Frequencies --    696.6050               741.1981               786.9983
 Red. masses --      3.4271                 4.1965                 2.3945
 Frc consts  --      0.9798                 1.3583                 0.8738
 IR Inten    --      1.1775                 3.9562                 3.7754

                     16                     17                     18
                      A                      A                      A
 Frequencies --    843.8813               877.9212               954.7645
 Red. masses --      1.6039                 2.0062                 1.6991
 Frc consts  --      0.6730                 0.9110                 0.9125
 IR Inten    --     26.7949                 8.0232                 1.0521

                     19                     20                     21
                      A                      A                      A
 Frequencies --   1003.4678              1004.8539              1035.4864
 Red. masses --      1.3404                 1.7675                 2.5082
 Frc consts  --      0.7953                 1.0515                 1.5845
 IR Inten    --      3.1989                15.1588                 6.2157

                     22                     23                     24
                      A                      A                      A
 Frequencies --   1065.6929              1095.9047              1105.9021
 Red. masses --      2.0784                 3.3903                 1.3593
 Frc consts  --      1.3907                 2.3990                 0.9795
 IR Inten    --      8.5699                93.0591                 3.3055

                     25                     26                     27
                      A                      A                      A
 Frequencies --   1116.0218              1157.2102              1192.5960
 Red. masses --      2.4973                 1.6312                 2.3468
 Frc consts  --      1.8326                 1.2870                 1.9666
 IR Inten    --     10.3368                 4.1415                46.4601

                     28                     29                     30
                      A                      A                      A
 Frequencies --   1206.2328              1256.0637              1292.5227
 Red. masses --      1.2753                 1.3345                 1.3640
 Frc consts  --      1.0933                 1.2405                 1.3426
 IR Inten    --      6.4741                 0.8511                11.8886

                     31                     32                     33
                      A                      A                      A
 Frequencies --   1327.9072              1336.8037              1369.4559
 Red. masses --      1.6602                 1.6390                 1.7390
 Frc consts  --      1.7249                 1.7257                 1.9215
 IR Inten    --     23.8435                 4.7149                15.6638

                     34                     35                     36
                      A                      A                      A
 Frequencies --   1384.5314              1412.2076              1468.2075
 Red. masses --      1.2763                 1.2268                 1.2071
 Frc consts  --      1.4415                 1.4415                 1.5330
 IR Inten    --      0.2918                 2.8775               123.6613

                     37                     38                     39
                      A                      A                      A
 Frequencies --   1496.7685              1498.5124              1514.4528
 Red. masses --      1.0431                 1.0532                 1.0883
 Frc consts  --      1.3768                 1.3934                 1.4707
 IR Inten    --      5.4477                 2.0342                 0.1498

                     40                     41                     42
                      A                      A                      A
 Frequencies --   1643.4140              1780.0267              2944.8338
 Red. masses --      6.5540                11.6388                 1.0713
 Frc consts  --     10.4293                21.7275                 5.4738
 IR Inten    --     23.4255               264.6249                55.6484

                     43                     44                     45
                      A                      A                      A
 Frequencies --   2989.7124              3032.7711              3035.1595
 Red. masses --      1.0815                 1.0532                 1.0619
 Frc consts  --      5.6954                 5.7075                 5.7638
 IR Inten    --     15.3293                18.1122                17.4146

                     46                     47                     48
                      A                      A                      A
 Frequencies --   3053.2379              3103.5864              3110.0372
 Red. masses --      1.0911                 1.1019                 1.1021
 Frc consts  --      5.9930                 6.2534                 6.2804
 IR Inten    --     35.3985                24.3345                19.0178

                     49                     50                     51
                      A                      A                      A
 Frequencies --   3180.3138              3227.5433              3703.3595
 Red. masses --      1.0896                 1.1011                 1.0659
 Frc consts  --      6.4934                 6.7578                 8.6131
 IR Inten    --      8.7462                 4.9852                87.8226

 - Thermochemistry -
 -------------------
 Temperature   298.150 Kelvin.  Pressure   1.00000 Atm.
 Atom     1 has atomic number  6 and mass  12.00000

 Molecular mass:   126.06808 amu.
 Principal axes and moments of inertia in atomic units:
                           1         2         3
     Eigenvalues --   777.677861232.272321840.80898
           X            0.99958  -0.02719  -0.00984
           Y            0.02728   0.99959   0.00909
           Z            0.00959  -0.00935   0.99991
 This molecule is an asymmetric top.
 Rotational symmetry number  1.
 Warning -- assumption of classical behavior for rotation
           may cause significant error
 Rotational temperatures (Kelvin)      0.11137     0.07029     0.04705
 Rotational constants (GHZ):           2.32068     1.46456     0.98041
 Zero-point vibrational energy     419017.9 (Joules/Mol)
                                  100.14769 (Kcal/Mol)
 Warning -- explicit consideration of  12 degrees of freedom as
           vibrations may cause significant error
 Vibrational temperatures:     83.80   213.09   270.64   319.81   353.44
          (Kelvin)            356.36   447.48   581.72   683.82   757.37
                              833.45   865.87  1002.26  1066.42  1132.31
                             1214.16  1263.13  1373.69  1443.76  1445.76
                             1489.83  1533.29  1576.76  1591.14  1605.70
                             1664.97  1715.88  1735.50  1807.19  1859.65
                             1910.56  1923.36  1970.34  1992.03  2031.85
                             2112.42  2153.51  2156.02  2178.96  2364.50
                             2561.06  4236.95  4301.52  4363.48  4366.91
                             4392.92  4465.36  4474.64  4575.76  4643.71
                             5328.30

 Zero-point correction=                           0.159596 (Hartree/Particle)
 Thermal correction to Energy=                    0.168286
 Thermal correction to Enthalpy=                  0.169231
 Thermal correction to Gibbs Free Energy=         0.126026
 Sum of electronic and zero-point Energies=           -423.065708
 Sum of electronic and thermal Energies=              -423.057017
 Sum of electronic and thermal Enthalpies=            -423.056073
 Sum of electronic and thermal Free Energies=         -423.099278

                     E (Thermal)             CV                S
                      KCal/Mol        Cal/Mol-Kelvin    Cal/Mol-Kelvin
 Total                  105.601             32.721             90.933
 Electronic               0.000              0.000              0.000
 Translational            0.889              2.981             40.409
 Rotational               0.889              2.981             28.958
 Vibrational            103.824             26.760             21.567
 Vibration     1          0.596              1.974              4.516
 Vibration     2          0.617              1.905              2.696
 Vibration     3          0.633              1.856              2.246
 Vibration     4          0.648              1.807              1.940
 Vibration     5          0.660              1.770              1.762
 Vibration     6          0.661              1.767              1.747
 Vibration     7          0.700              1.653              1.357
 Vibration     8          0.770              1.461              0.947
 Vibration     9          0.832              1.305              0.723
 Vibration    10          0.881              1.192              0.595
 Vibration    11          0.936              1.076              0.487
 Vibration    12          0.960              1.028              0.447

 Optimization completed.
    -- Stationary point found.
 Normal termination of Gaussian 09 at Tue Jan 28 13:26:31 2020.
