 Gaussian 09, Revision D.01,
 Gaussian 09:  ES64L-G09RevD.01 24-Apr-2013

 -----------------------------
 # b3lyp 6-31G(2df,p) opt Freq
 -----------------------------

 -----
 titel
 -----
 Symbolic Z-matrix:
 Charge =  0 Multiplicity = 1

 SCF Done:  E(RB3LYP) =  -423.091730885     A.U. after   12 cycles
 Optimization completed.
    -- Stationary point found.
 Normal termination of Gaussian 09 at Mon Jan 27 22:03:26 2020.

 ----------------------------------------------------------------------
 #N Geom=AllCheck Guess=TCheck SCRF=Check GenChk RB3LYP/6-31G(2df,p) Fr
 eq
 ----------------------------------------------------------------------

 Structure from the checkpoint file:  "/scratch/puck/g09_cd1f38ff-606a-4c9c-bd76-4cb364ac4852/Gau-72789.chk"
 -----
 titel
 -----
 Charge =  0 Multiplicity = 1

                         Standard orientation:
 ---------------------------------------------------------------------
 Center     Atomic      Atomic             Coordinates (Angstroms)
 Number     Number       Type             X           Y           Z
 ---------------------------------------------------------------------
      1          8           0       -1.732659   -1.783577   -0.260492
      2          6           0       -1.268233   -0.639485    0.402334
      3          6           0       -1.268229    0.639506   -0.402326
      4          8           0       -1.732461    1.783639    0.260558
      5          6           0        0.023413   -0.000038   -0.000066
      6          6           0        1.239515    0.505490    0.799979
      7          6           0        1.861306    0.908141   -0.574360
      8          6           0        1.239606   -0.505537   -0.799994
      9          6           0        1.861282   -0.908168    0.574404
     10          1           0       -1.192577   -2.528483    0.022658
     11          1           0       -1.585954   -0.529627    1.440559
     12          1           0       -1.586115    0.529628   -1.440498
     13          1           0       -1.192794    2.528619   -0.023190
     14          1           0        1.228792    1.086367    1.722190
     15          1           0        1.391777    1.739689   -1.106226
     16          1           0        2.952581    0.970133   -0.614161
     17          1           0        1.229003   -1.086411   -1.722211
     18          1           0        1.391730   -1.739731    1.106229
     19          1           0        2.952555   -0.970132    0.614298
 ---------------------------------------------------------------------

 SCF Done:  E(RB3LYP) =  -423.091730885     A.U. after    1 cycles

 The electronic state is 1-A.
 Alpha  occ. eigenvalues --  -19.13970 -19.13969 -10.22529 -10.22504 -10.20713
 Alpha  occ. eigenvalues --  -10.20711 -10.19522 -10.19312 -10.19312  -1.02971
 Alpha  occ. eigenvalues --   -1.01605  -0.91889  -0.81451  -0.66888  -0.63284
 Alpha  occ. eigenvalues --   -0.62082  -0.58672  -0.54592  -0.52649  -0.50265
 Alpha  occ. eigenvalues --   -0.47740  -0.45061  -0.43839  -0.40030  -0.39818
 Alpha  occ. eigenvalues --   -0.35911  -0.34257  -0.33225  -0.32398  -0.31839
 Alpha  occ. eigenvalues --   -0.30929  -0.29100  -0.26212  -0.23433
 Alpha virt. eigenvalues --    0.06133   0.07323   0.11098   0.12202   0.12461
 Alpha virt. eigenvalues --    0.13808   0.14303   0.15179   0.16075   0.16251
 Alpha virt. eigenvalues --    0.16683   0.18732   0.19018   0.20651   0.21977

 Mulliken charges:
               1
     1  O   -0.426183
     2  C   -0.068973
     3  C   -0.068981
     4  O   -0.426175
     5  C    0.404916
     6  C   -0.130157
     7  C   -0.214176
     8  C   -0.130211
     9  C   -0.214184
    10  H    0.287052
    11  H    0.093869
    12  H    0.093867
    13  H    0.287051
    14  H    0.080223
    15  H    0.085100
    16  H    0.090821
    17  H    0.080216
    18  H    0.085103
    19  H    0.090823
 Sum of Mulliken charges =   0.00000

 Dipole moment (field-independent basis, Debye):
    X=              2.5213    Y=              0.0002    Z=             -0.0008  Tot=              2.5213
 Quadrupole moment (field-independent basis, Debye-Ang):
   XX=            -60.1070   YY=            -47.5270   ZZ=            -52.6812
   XY=             -0.0019   XZ=              0.0011   YZ=             -2.8245

  Exact polarizability:  83.682  -0.001  78.348   0.000  -1.963  66.646
 Approx polarizability: 114.124  -0.001 115.410  -0.001  -1.368 103.422

                      1                      2                      3
                      A                      A                      A
 Frequencies --    122.4960               127.8932               196.1592
 Red. masses --      4.0443                 3.4784                 3.3665
 Frc consts  --      0.0358                 0.0335                 0.0763
 IR Inten    --      2.1465                 0.0001                10.4706

                      4                      5                      6
                      A                      A                      A
 Frequencies --    218.4404               274.7400               314.3811
 Red. masses --      2.4070                 1.1894                 1.5012
 Frc consts  --      0.0677                 0.0529                 0.0874
 IR Inten    --     27.0979                66.5205                84.1411

                      7                      8                      9
                      A                      A                      A
 Frequencies --    331.5218               441.4111               469.1312
 Red. masses --      2.4747                 3.4973                 3.7293
 Frc consts  --      0.1602                 0.4015                 0.4836
 IR Inten    --     42.6077                 8.2592                 0.3341

                     10                     11                     12
                      A                      A                      A
 Frequencies --    528.3031               629.1953               664.9952
 Red. masses --      2.9628                 2.6502                 3.1436
 Frc consts  --      0.4872                 0.6182                 0.8191
 IR Inten    --      3.2377                 3.2320                 2.5322

                     13                     14                     15
                      A                      A                      A
 Frequencies --    793.8093               808.5593               891.5164
 Red. masses --      2.9126                 2.8095                 2.1169
 Frc consts  --      1.0813                 1.0822                 0.9913
 IR Inten    --      0.2905                 3.1686                 1.8697

                     16                     17                     18
                      A                      A                      A
 Frequencies --    900.9856               911.4503               960.9500
 Red. masses --      2.8044                 2.6819                 2.6539
 Frc consts  --      1.3413                 1.3127                 1.4439
 IR Inten    --      0.0406                13.0223                 0.3856

                     19                     20                     21
                      A                      A                      A
 Frequencies --    964.5955              1015.3194              1019.3986
 Red. masses --      2.2220                 1.0268                 1.6137
 Frc consts  --      1.2181                 0.6237                 0.9880
 IR Inten    --     35.3127                 0.2627                 5.1278

                     22                     23                     24
                      A                      A                      A
 Frequencies --   1025.0515              1044.3423              1085.6004
 Red. masses --      1.2999                 1.5145                 1.6639
 Frc consts  --      0.8047                 0.9732                 1.1553
 IR Inten    --     36.6719                 3.8753                 0.1366

                     25                     26                     27
                      A                      A                      A
 Frequencies --   1098.1002              1110.3526              1111.8543
 Red. masses --      1.4115                 2.0776                 2.3298
 Frc consts  --      1.0028                 1.5092                 1.6969
 IR Inten    --      0.4036                12.7986                 0.3101

                     28                     29                     30
                      A                      A                      A
 Frequencies --   1159.3066              1165.7557              1182.5696
 Red. masses --      2.8802                 2.5684                 1.6169
 Frc consts  --      2.2807                 2.0565                 1.3323
 IR Inten    --     21.9974                51.0510                22.6930

                     31                     32                     33
                      A                      A                      A
 Frequencies --   1195.1005              1225.7963              1242.3171
 Red. masses --      1.3752                 1.6079                 1.6247
 Frc consts  --      1.1573                 1.4235                 1.4774
 IR Inten    --      0.0020                 0.0230                12.2639

                     34                     35                     36
                      A                      A                      A
 Frequencies --   1246.2951              1278.8653              1299.2194
 Red. masses --      1.6958                 1.1962                 1.2322
 Frc consts  --      1.5519                 1.1527                 1.2255
 IR Inten    --      0.6601               107.6392                55.0837

                     37                     38                     39
                      A                      A                      A
 Frequencies --   1357.1010              1363.5579              1492.4426
 Red. masses --      1.9756                 1.3290                 1.0995
 Frc consts  --      2.1438                 1.4559                 1.4429
 IR Inten    --      9.1651                 1.5440                 0.4310

                     40                     41                     42
                      A                      A                      A
 Frequencies --   1492.6593              1532.8736              3045.6237
 Red. masses --      3.0853                 1.2569                 1.0539
 Frc consts  --      4.0502                 1.7400                 5.7597
 IR Inten    --     10.2288                 1.6018                68.9500

                     43                     44                     45
                      A                      A                      A
 Frequencies --   3049.0919              3087.8651              3093.3235
 Red. masses --      1.0534                 1.0886                 1.0850
 Frc consts  --      5.7700                 6.1154                 6.1167
 IR Inten    --     34.9876                 6.0099                37.8282

                     46                     47                     48
                      A                      A                      A
 Frequencies --   3111.5427              3114.4340              3115.2998
 Red. masses --      1.1117                 1.0902                 1.1100
 Frc consts  --      6.3414                 6.2305                 6.3469
 IR Inten    --     23.6211                92.1226                66.5374

                     49                     50                     51
                      A                      A                      A
 Frequencies --   3117.6792              3808.4744              3808.9984
 Red. masses --      1.0944                 1.0663                 1.0664
 Frc consts  --      6.2676                 9.1120                 9.1154
 IR Inten    --      0.1017                 2.7926                29.9711

 - Thermochemistry -
 -------------------
 Temperature   298.150 Kelvin.  Pressure   1.00000 Atm.
 Atom     1 has atomic number  8 and mass  15.99491

 Molecular mass:   126.06808 amu.
 Principal axes and moments of inertia in atomic units:
                           1         2         3
     Eigenvalues --   728.717381176.748561600.84480
           X            1.00000  -0.00001   0.00000
           Y            0.00001   0.99970  -0.02454
           Z            0.00000   0.02454   0.99970
 This molecule is an asymmetric top.
 Rotational symmetry number  1.
 Warning -- assumption of classical behavior for rotation
           may cause significant error
 Rotational temperatures (Kelvin)      0.11886     0.07360     0.05411
 Rotational constants (GHZ):           2.47660     1.53367     1.12737
 Zero-point vibrational energy     416580.0 (Joules/Mol)
                                   99.56502 (Kcal/Mol)
 Warning -- explicit consideration of  10 degrees of freedom as
           vibrations may cause significant error
 Vibrational temperatures:    176.24   184.01   282.23   314.29   395.29
          (Kelvin)            452.32   476.99   635.09   674.97   760.11
                              905.27   956.78  1142.11  1163.34  1282.69
                             1296.32  1311.37  1382.59  1387.84  1460.82
                             1466.69  1474.82  1502.57  1561.93  1579.92
                             1597.55  1599.71  1667.98  1677.26  1701.45
                             1719.48  1763.65  1787.42  1793.14  1840.00
                             1869.28  1952.56  1961.85  2147.29  2147.60
                             2205.46  4381.97  4386.96  4442.74  4450.60
                             4476.81  4480.97  4482.22  4485.64  5479.54
                             5480.29

 Zero-point correction=                           0.158667 (Hartree/Particle)
 Thermal correction to Energy=                    0.167014
 Thermal correction to Enthalpy=                  0.167958
 Thermal correction to Gibbs Free Energy=         0.125949
 Sum of electronic and zero-point Energies=           -422.933064
 Sum of electronic and thermal Energies=              -422.924717
 Sum of electronic and thermal Enthalpies=            -422.923773
 Sum of electronic and thermal Free Energies=         -422.965782

                     E (Thermal)             CV                S
                      KCal/Mol        Cal/Mol-Kelvin    Cal/Mol-Kelvin
 Total                  104.803             32.556             88.415
 Electronic               0.000              0.000              0.000
 Translational            0.889              2.981             40.409
 Rotational               0.889              2.981             28.708
 Vibrational            103.025             26.594             19.298
 Vibration     1          0.610              1.930              3.061
 Vibration     2          0.611              1.925              2.977
 Vibration     3          0.636              1.845              2.169
 Vibration     4          0.646              1.813              1.972
 Vibration     5          0.677              1.720              1.566
 Vibration     6          0.702              1.646              1.339
 Vibration     7          0.714              1.613              1.253
 Vibration     8          0.801              1.380              0.822
 Vibration     9          0.826              1.319              0.740
 Vibration    10          0.883              1.187              0.591

 Optimization completed.
    -- Stationary point found.
 Normal termination of Gaussian 09 at Mon Jan 27 22:49:02 2020.
