 Gaussian 09, Revision D.01,
 Gaussian 09:  ES64L-G09RevD.01 24-Apr-2013

 -----------------------------
 # b3lyp 6-31G(2df,p) opt Freq
 -----------------------------

 -----
 titel
 -----
 Symbolic Z-matrix:
 Charge =  0 Multiplicity = 1

 SCF Done:  E(RB3LYP) =  -423.164045229     A.U. after   13 cycles
 Optimization completed.
    -- Stationary point found.
 Normal termination of Gaussian 09 at Mon Jan 27 23:05:37 2020.

 ----------------------------------------------------------------------
 #N Geom=AllCheck Guess=TCheck SCRF=Check GenChk RB3LYP/6-31G(2df,p) Fr
 eq
 ----------------------------------------------------------------------

 Structure from the checkpoint file:  "/scratch/puck/g09_a37bb431-3c67-4a69-997c-6ae4cfed7069/Gau-49569.chk"
 -----
 titel
 -----
 Charge =  0 Multiplicity = 1

                         Standard orientation:
 ---------------------------------------------------------------------
 Center     Atomic      Atomic             Coordinates (Angstroms)
 Number     Number       Type             X           Y           Z
 ---------------------------------------------------------------------
      1          6           0        2.348926   -0.661491   -0.715085
      2          6           0        1.242719   -0.580697    0.342042
      3          6           0        0.914249    0.863289    0.735307
      4          8           0        0.483497    1.683252   -0.360344
      5          6           0       -0.509896    1.155495    0.541320
      6          6           0       -1.181404   -0.062676   -0.020417
      7          8           0       -2.210080    0.101857   -0.942526
      8          6           0       -1.230613   -1.262125    0.868916
      9          6           0       -0.103298   -1.127374   -0.142879
     10          1           0        2.532891   -1.699255   -1.009898
     11          1           0        2.064318   -0.092556   -1.604667
     12          1           0        3.289249   -0.248348   -0.335600
     13          1           0        1.570860   -1.114930    1.244271
     14          1           0        1.515441    1.378584    1.480883
     15          1           0       -1.062055    1.896870    1.114026
     16          1           0       -1.846666    0.592107   -1.689862
     17          1           0       -1.011010   -1.154423    1.927373
     18          1           0       -2.003777   -1.985227    0.634273
     19          1           0       -0.120686   -1.800216   -0.993060
 ---------------------------------------------------------------------

 SCF Done:  E(RB3LYP) =  -423.164045229     A.U. after    1 cycles

 The electronic state is 1-A.
 Alpha  occ. eigenvalues --  -19.15080 -19.14534 -10.23968 -10.23651 -10.23442
 Alpha  occ. eigenvalues --  -10.19687 -10.18869 -10.18792 -10.17546  -1.07285
 Alpha  occ. eigenvalues --   -1.02989  -0.86609  -0.77195  -0.68919  -0.65706
 Alpha  occ. eigenvalues --   -0.61843  -0.57357  -0.56033  -0.53667  -0.49228
 Alpha  occ. eigenvalues --   -0.46479  -0.44493  -0.43524  -0.40359  -0.39568
 Alpha  occ. eigenvalues --   -0.39008  -0.36785  -0.35819  -0.34610  -0.33178
 Alpha  occ. eigenvalues --   -0.30366  -0.28585  -0.26530  -0.24521
 Alpha virt. eigenvalues --    0.07756   0.09207   0.09914   0.11359   0.11739
 Alpha virt. eigenvalues --    0.12788   0.13439   0.15699   0.16779   0.17118
 Alpha virt. eigenvalues --    0.17680   0.17911   0.20493   0.21549   0.23189

 Mulliken charges:
               1
     1  C   -0.404079
     2  C   -0.026052
     3  C    0.049552
     4  O   -0.267685
     5  C   -0.079422
     6  C    0.417957
     7  O   -0.470934
     8  C   -0.344127
     9  C   -0.116769
    10  H    0.114483
    11  H    0.132293
    12  H    0.112920
    13  H    0.075348
    14  H    0.093341
    15  H    0.099887
    16  H    0.288931
    17  H    0.110225
    18  H    0.125383
    19  H    0.088750
 Sum of Mulliken charges =   0.00000

 Dipole moment (field-independent basis, Debye):
    X=              0.8975    Y=             -0.6690    Z=              0.8500  Tot=              1.4056
 Quadrupole moment (field-independent basis, Debye-Ang):
   XX=            -56.1445   YY=            -54.2943   ZZ=            -49.5120
   XY=             -1.6392   XZ=              1.0030   YZ=              1.3693

  Exact polarizability:  82.766  -0.393  71.680  -0.653   0.123  67.217
 Approx polarizability: 115.506  -1.534 105.532   0.407  -4.967 104.805

                      1                      2                      3
                      A                      A                      A
 Frequencies --    129.0819               189.7302               232.7056
 Red. masses --      3.2661                 3.3476                 1.1038
 Frc consts  --      0.0321                 0.0710                 0.0352
 IR Inten    --      0.1925                 5.7068                 0.3252

                      4                      5                      6
                      A                      A                      A
 Frequencies --    244.7407               316.9694               356.3089
 Red. masses --      3.7544                 2.6813                 1.4266
 Frc consts  --      0.1325                 0.1587                 0.1067
 IR Inten    --      4.6930                 2.2434                31.9521

                      7                      8                      9
                      A                      A                      A
 Frequencies --    411.5104               424.3556               477.7072
 Red. masses --      2.1719                 2.4808                 5.1227
 Frc consts  --      0.2167                 0.2632                 0.6888
 IR Inten    --     61.3624                 8.8703                 5.2382

                     10                     11                     12
                      A                      A                      A
 Frequencies --    544.4549               596.9373               682.8367
 Red. masses --      3.4290                 3.9675                 4.4397
 Frc consts  --      0.5989                 0.8330                 1.2196
 IR Inten    --      3.2839                 4.9222                 4.3747

                     13                     14                     15
                      A                      A                      A
 Frequencies --    770.9758               806.9493               827.4877
 Red. masses --      2.1378                 3.1341                 3.3911
 Frc consts  --      0.7487                 1.2024                 1.3681
 IR Inten    --      0.6823                11.2496                13.2185

                     16                     17                     18
                      A                      A                      A
 Frequencies --    871.2979               923.0160               930.0909
 Red. masses --      1.9574                 2.8219                 1.8239
 Frc consts  --      0.8755                 1.4165                 0.9296
 IR Inten    --     20.2725                11.6553                 4.6666

                     19                     20                     21
                      A                      A                      A
 Frequencies --    950.1173               956.9789              1008.9219
 Red. masses --      1.4537                 3.2498                 2.1590
 Frc consts  --      0.7732                 1.7535                 1.2948
 IR Inten    --      4.1195                 9.3941                15.3967

                     22                     23                     24
                      A                      A                      A
 Frequencies --   1033.0487              1051.6507              1061.4051
 Red. masses --      1.5297                 1.9995                 1.3443
 Frc consts  --      0.9619                 1.3029                 0.8923
 IR Inten    --      7.4735                 4.5564                 5.7180

                     25                     26                     27
                      A                      A                      A
 Frequencies --   1082.0046              1106.6592              1135.5769
 Red. masses --      1.6516                 1.3765                 1.8572
 Frc consts  --      1.1392                 0.9932                 1.4111
 IR Inten    --      4.4533                 0.4816                 1.1158

                     28                     29                     30
                      A                      A                      A
 Frequencies --   1165.5474              1238.3664              1252.0989
 Red. masses --      1.6139                 1.6105                 1.4327
 Frc consts  --      1.2918                 1.4551                 1.3234
 IR Inten    --      1.7498                81.0788                12.0511

                     31                     32                     33
                      A                      A                      A
 Frequencies --   1274.2985              1285.6565              1315.1744
 Red. masses --      2.1552                 1.5177                 1.5290
 Frc consts  --      2.0620                 1.4780                 1.5582
 IR Inten    --      5.6232                42.7634                 1.2246

                     34                     35                     36
                      A                      A                      A
 Frequencies --   1346.6154              1371.6125              1403.8050
 Red. masses --      1.5610                 1.8742                 1.2996
 Frc consts  --      1.6678                 2.0774                 1.5090
 IR Inten    --      4.5632                53.0766                 8.4232

                     37                     38                     39
                      A                      A                      A
 Frequencies --   1413.1629              1433.4676              1484.8996
 Red. masses --      1.6613                 3.3700                 1.5313
 Frc consts  --      1.9548                 4.0800                 1.9893
 IR Inten    --      4.0875                18.1646                18.3264

                     40                     41                     42
                      A                      A                      A
 Frequencies --   1494.6613              1502.5140              3009.4789
 Red. masses --      1.0470                 1.0555                 1.0829
 Frc consts  --      1.3780                 1.4039                 5.7785
 IR Inten    --      3.8820                 2.6263                29.8215

                     43                     44                     45
                      A                      A                      A
 Frequencies --   3036.8331              3102.7891              3118.6364
 Red. masses --      1.0350                 1.1015                 1.1016
 Frc consts  --      5.6239                 6.2482                 6.3125
 IR Inten    --     27.1861                22.9785                19.5293

                     46                     47                     48
                      A                      A                      A
 Frequencies --   3122.9305              3137.1451              3150.0857
 Red. masses --      1.0559                 1.0868                 1.0950
 Frc consts  --      6.0675                 6.3016                 6.4018
 IR Inten    --     10.8639                19.7629                37.4827

                     49                     50                     51
                      A                      A                      A
 Frequencies --   3173.9967              3217.9730              3784.3282
 Red. masses --      1.0909                 1.1146                 1.0657
 Frc consts  --      6.4748                 6.8005                 8.9920
 IR Inten    --      7.2387                 5.7442                20.8374

 - Thermochemistry -
 -------------------
 Temperature   298.150 Kelvin.  Pressure   1.00000 Atm.
 Atom     1 has atomic number  6 and mass  12.00000

 Molecular mass:   126.06808 amu.
 Principal axes and moments of inertia in atomic units:
                           1         2         3
     Eigenvalues --   687.438251109.438171369.91872
           X            0.99952  -0.02327  -0.02066
           Y            0.02384   0.99933   0.02785
           Z            0.02000  -0.02833   0.99940
 This molecule is an asymmetric top.
 Rotational symmetry number  1.
 Warning -- assumption of classical behavior for rotation
           may cause significant error
 Rotational temperatures (Kelvin)      0.12600     0.07807     0.06323
 Rotational constants (GHZ):           2.62531     1.62672     1.31741
 Zero-point vibrational energy     418451.3 (Joules/Mol)
                                  100.01226 (Kcal/Mol)
 Warning -- explicit consideration of  11 degrees of freedom as
           vibrations may cause significant error
 Vibrational temperatures:    185.72   272.98   334.81   352.13   456.05
          (Kelvin)            512.65   592.07   610.55   687.31   783.35
                              858.86   982.45  1109.26  1161.02  1190.57
                             1253.60  1328.01  1338.19  1367.01  1376.88
                             1451.61  1486.32  1513.09  1527.12  1556.76
                             1592.23  1633.84  1676.96  1781.73  1801.49
                             1833.43  1849.77  1892.24  1937.48  1973.44
                             2019.76  2033.22  2062.44  2136.44  2150.48
                             2161.78  4329.96  4369.32  4464.22  4487.02
                             4493.19  4513.65  4532.27  4566.67  4629.94
                             5444.80

 Zero-point correction=                           0.159380 (Hartree/Particle)
 Thermal correction to Energy=                    0.167345
 Thermal correction to Enthalpy=                  0.168289
 Thermal correction to Gibbs Free Energy=         0.127397
 Sum of electronic and zero-point Energies=           -423.004666
 Sum of electronic and thermal Energies=              -422.996700
 Sum of electronic and thermal Enthalpies=            -422.995756
 Sum of electronic and thermal Free Energies=         -423.036648

                     E (Thermal)             CV                S
                      KCal/Mol        Cal/Mol-Kelvin    Cal/Mol-Kelvin
 Total                  105.011             31.981             86.065
 Electronic               0.000              0.000              0.000
 Translational            0.889              2.981             40.409
 Rotational               0.889              2.981             28.437
 Vibrational            103.233             26.020             17.219
 Vibration     1          0.612              1.924              2.960
 Vibration     2          0.633              1.854              2.230
 Vibration     3          0.653              1.791              1.858
 Vibration     4          0.660              1.771              1.768
 Vibration     5          0.704              1.641              1.326
 Vibration     6          0.732              1.562              1.138
 Vibration     7          0.775              1.445              0.921
 Vibration     8          0.786              1.417              0.877
 Vibration     9          0.834              1.300              0.716
 Vibration    10          0.900              1.152              0.556
 Vibration    11          0.955              1.038              0.455

 Optimization completed.
    -- Stationary point found.
 Normal termination of Gaussian 09 at Mon Jan 27 23:56:23 2020.
