 Gaussian 09, Revision D.01,
 Gaussian 09:  ES64L-G09RevD.01 24-Apr-2013

 -----------------------------
 # b3lyp 6-31G(2df,p) opt Freq
 -----------------------------

 -----
 titel
 -----
 Symbolic Z-matrix:
 Charge =  0 Multiplicity = 1

 SCF Done:  E(RB3LYP) =  -423.130913941     A.U. after   14 cycles
 Optimization completed.
    -- Stationary point found.
 Normal termination of Gaussian 09 at Tue Jan 28 08:11:52 2020.

 ----------------------------------------------------------------------
 #N Geom=AllCheck Guess=TCheck SCRF=Check GenChk RB3LYP/6-31G(2df,p) Fr
 eq
 ----------------------------------------------------------------------

 Structure from the checkpoint file:  "/scratch/puck/g09_2f322f10-1c2f-4dc6-8f4c-3520f3d9a696/Gau-104595.chk"
 -----
 titel
 -----
 Charge =  0 Multiplicity = 1

                         Standard orientation:
 ---------------------------------------------------------------------
 Center     Atomic      Atomic             Coordinates (Angstroms)
 Number     Number       Type             X           Y           Z
 ---------------------------------------------------------------------
      1          6           0        2.945995    1.214194   -0.346267
      2          6           0        1.769040    0.725435    0.464886
      3          6           0        1.818800   -0.601062    1.180477
      4          6           0        0.933122   -0.457781   -0.033577
      5          8           0        1.398466   -1.164447   -1.156443
      6          6           0       -0.496356   -0.402198    0.111973
      7          6           0       -1.700499   -0.353956    0.179445
      8          6           0       -3.153978   -0.247900    0.278414
      9          8           0       -3.699004    0.866229   -0.417625
     10          1           0        3.710756    1.653485    0.303223
     11          1           0        3.400877    0.391968   -0.903424
     12          1           0        2.640623    1.982253   -1.065620
     13          1           0        1.192886    1.501261    0.960928
     14          1           0        2.698331   -1.217353    1.025910
     15          1           0        1.346565   -0.702341    2.150035
     16          1           0        1.000766   -0.763322   -1.937764
     17          1           0       -3.625993   -1.132447   -0.163663
     18          1           0       -3.442615   -0.235641    1.341987
     19          1           0       -3.214642    1.647493   -0.131179
 ---------------------------------------------------------------------

 SCF Done:  E(RB3LYP) =  -423.130913941     A.U. after    1 cycles

 The electronic state is 1-A.
 Alpha  occ. eigenvalues --  -19.14966 -19.14063 -10.26008 -10.25237 -10.19849
 Alpha  occ. eigenvalues --  -10.19022 -10.18104 -10.17996 -10.17804  -1.03602
 Alpha  occ. eigenvalues --   -1.02220  -0.86043  -0.76827  -0.72095  -0.69348
 Alpha  occ. eigenvalues --   -0.61619  -0.58526  -0.55128  -0.52086  -0.48826
 Alpha  occ. eigenvalues --   -0.47086  -0.44478  -0.44298  -0.41964  -0.39537
 Alpha  occ. eigenvalues --   -0.38932  -0.36339  -0.35653  -0.34121  -0.30985
 Alpha  occ. eigenvalues --   -0.28657  -0.27898  -0.25871  -0.23606
 Alpha virt. eigenvalues --    0.02784   0.03532   0.08505   0.09987   0.11671
 Alpha virt. eigenvalues --    0.12953   0.13217   0.13657   0.15384   0.16783
 Alpha virt. eigenvalues --    0.17562   0.18329   0.19304   0.19857   0.23464

 Mulliken charges:
               1
     1  C   -0.416448
     2  C   -0.050306
     3  C   -0.322735
     4  C    0.201373
     5  O   -0.450285
     6  C    0.042752
     7  C    0.049887
     8  C   -0.197935
     9  O   -0.402150
    10  H    0.120205
    11  H    0.134289
    12  H    0.115230
    13  H    0.092092
    14  H    0.128739
    15  H    0.122418
    16  H    0.286283
    17  H    0.142375
    18  H    0.118850
    19  H    0.285366
 Sum of Mulliken charges =   0.00000

 Dipole moment (field-independent basis, Debye):
    X=              0.7648    Y=              1.3355    Z=              0.7625  Tot=              1.7175
 Quadrupole moment (field-independent basis, Debye-Ang):
   XX=            -57.4355   YY=            -52.7283   ZZ=            -50.4239
   XY=              2.4850   XZ=             -3.2114   YZ=             -0.1574

  Exact polarizability: 117.574   2.771  67.402  -0.136  -1.751  66.015
 Approx polarizability: 161.224  -0.961  98.760   1.154  -0.605  96.942

                      1                      2                      3
                      A                      A                      A
 Frequencies --     35.0240                72.0720                98.5617
 Red. masses --      3.1234                 4.0605                 2.9441
 Frc consts  --      0.0023                 0.0124                 0.0169
 IR Inten    --      1.6277                 0.1695                 2.8228

                      4                      5                      6
                      A                      A                      A
 Frequencies --    165.5888               180.1593               234.2873
 Red. masses --      3.9301                 1.0661                 2.7708
 Frc consts  --      0.0635                 0.0204                 0.0896
 IR Inten    --      1.1528                 1.6107                 2.6369

                      7                      8                      9
                      A                      A                      A
 Frequencies --    267.6717               303.2745               325.0915
 Red. masses --      1.6865                 1.5923                 2.3777
 Frc consts  --      0.0712                 0.0863                 0.1481
 IR Inten    --     42.4176                83.6590                23.2491

                     10                     11                     12
                      A                      A                      A
 Frequencies --    336.6289               367.9881               454.2085
 Red. masses --      2.0447                 2.7144                 2.3323
 Frc consts  --      0.1365                 0.2166                 0.2835
 IR Inten    --     68.1852                36.8982                 1.0466

                     13                     14                     15
                      A                      A                      A
 Frequencies --    544.0584               553.7609               573.7701
 Red. masses --      6.7886                 5.7887                 4.0107
 Frc consts  --      1.1839                 1.0459                 0.7779
 IR Inten    --      7.5297                14.3510                16.3069

                     16                     17                     18
                      A                      A                      A
 Frequencies --    656.7242               790.6814               849.8897
 Red. masses --      4.4632                 2.5130                 3.3636
 Frc consts  --      1.1341                 0.9257                 1.4314
 IR Inten    --      5.0742                 7.9978                 4.8519

                     19                     20                     21
                      A                      A                      A
 Frequencies --    892.8452               938.0380               973.5173
 Red. masses --      1.3633                 2.1107                 1.7832
 Frc consts  --      0.6403                 1.0943                 0.9957
 IR Inten    --      6.4342                 6.8014                42.9443

                     22                     23                     24
                      A                      A                      A
 Frequencies --    994.8273              1017.3167              1047.7689
 Red. masses --      1.7281                 1.4624                 4.4154
 Frc consts  --      1.0077                 0.8917                 2.8560
 IR Inten    --      4.8060                26.0241                90.6160

                     25                     26                     27
                      A                      A                      A
 Frequencies --   1077.9497              1113.2062              1134.1999
 Red. masses --      1.3958                 2.8545                 1.6728
 Frc consts  --      0.9556                 2.0841                 1.2678
 IR Inten    --     17.5388                16.9014                 5.8250

                     28                     29                     30
                      A                      A                      A
 Frequencies --   1191.1186              1214.7324              1234.1513
 Red. masses --      1.6426                 1.0914                 1.6489
 Frc consts  --      1.3730                 0.9488                 1.4797
 IR Inten    --      0.5727                16.6461                61.0065

                     31                     32                     33
                      A                      A                      A
 Frequencies --   1285.8157              1353.8593              1355.8893
 Red. masses --      3.9715                 1.3887                 1.2152
 Frc consts  --      3.8686                 1.4997                 1.3163
 IR Inten    --     55.9171                27.0849                 2.6463

                     34                     35                     36
                      A                      A                      A
 Frequencies --   1402.4825              1417.1151              1423.1070
 Red. masses --      1.2951                 1.2379                 1.6316
 Frc consts  --      1.5008                 1.4647                 1.9468
 IR Inten    --      5.7037                98.0480                16.7961

                     37                     38                     39
                      A                      A                      A
 Frequencies --   1477.6256              1488.1216              1496.8948
 Red. masses --      1.3616                 1.0781                 1.0840
 Frc consts  --      1.7516                 1.4067                 1.4311
 IR Inten    --      8.2202                 0.8450                 1.1154

                     40                     41                     42
                      A                      A                      A
 Frequencies --   1502.2574              2342.2511              2974.2826
 Red. masses --      1.0732                11.9097                 1.0714
 Frc consts  --      1.4269                38.4962                 5.5845
 IR Inten    --      3.8161                20.8237                48.2135

                     43                     44                     45
                      A                      A                      A
 Frequencies --   3033.1259              3062.5063              3089.8622
 Red. masses --      1.0372                 1.0880                 1.1009
 Frc consts  --      5.6218                 6.0123                 6.1929
 IR Inten    --     39.1485                17.3445                23.8295

                     46                     47                     48
                      A                      A                      A
 Frequencies --   3122.7287              3138.6975              3151.8392
 Red. masses --      1.0971                 1.0546                 1.0897
 Frc consts  --      6.3035                 6.1211                 6.3778
 IR Inten    --      4.8161                 7.2355                15.9555

                     49                     50                     51
                      A                      A                      A
 Frequencies --   3232.7858              3795.7317              3816.7512
 Red. masses --      1.1175                 1.0661                 1.0662
 Frc consts  --      6.8809                 9.0494                 9.1516
 IR Inten    --      4.2099                22.5400                17.4341

 - Thermochemistry -
 -------------------
 Temperature   298.150 Kelvin.  Pressure   1.00000 Atm.
 Atom     1 has atomic number  6 and mass  12.00000

 Molecular mass:   126.06808 amu.
 Principal axes and moments of inertia in atomic units:
                           1         2         3
     Eigenvalues --   517.968332639.846902725.43958
           X            0.99987   0.01485  -0.00681
           Y           -0.01540   0.99586  -0.08960
           Z            0.00545   0.08970   0.99595
 This molecule is an asymmetric top.
 Rotational symmetry number  1.
 Warning -- assumption of classical behavior for rotation
           may cause significant error
 Rotational temperatures (Kelvin)      0.16722     0.03281     0.03178
 Rotational constants (GHZ):           3.48427     0.68365     0.66218
 Zero-point vibrational energy     410336.1 (Joules/Mol)
                                   98.07269 (Kcal/Mol)
 Warning -- explicit consideration of  15 degrees of freedom as
           vibrations may cause significant error
 Vibrational temperatures:     50.39   103.70   141.81   238.24   259.21
          (Kelvin)            337.09   385.12   436.34   467.73   484.33
                              529.45   653.50   782.78   796.74   825.53
                              944.88  1137.61  1222.80  1284.60  1349.63
                             1400.67  1431.33  1463.69  1507.50  1550.93
                             1601.65  1631.86  1713.75  1747.73  1775.67
                             1850.00  1947.90  1950.82  2017.86  2038.91
                             2047.53  2125.97  2141.07  2153.70  2161.41
                             3369.97  4279.32  4363.99  4406.26  4445.62
                             4492.90  4515.88  4534.79  4651.25  5461.20
                             5491.45

 Zero-point correction=                           0.156289 (Hartree/Particle)
 Thermal correction to Energy=                    0.166750
 Thermal correction to Enthalpy=                  0.167694
 Thermal correction to Gibbs Free Energy=         0.119849
 Sum of electronic and zero-point Energies=           -422.974625
 Sum of electronic and thermal Energies=              -422.964164
 Sum of electronic and thermal Enthalpies=            -422.963220
 Sum of electronic and thermal Free Energies=         -423.011064

                     E (Thermal)             CV                S
                      KCal/Mol        Cal/Mol-Kelvin    Cal/Mol-Kelvin
 Total                  104.637             37.308            100.698
 Electronic               0.000              0.000              0.000
 Translational            0.889              2.981             40.409
 Rotational               0.889              2.981             29.701
 Vibrational            102.860             31.346             30.589
 Vibration     1          0.594              1.982              5.522
 Vibration     2          0.598              1.967              4.096
 Vibration     3          0.604              1.950              3.483
 Vibration     4          0.624              1.885              2.485
 Vibration     5          0.629              1.867              2.327
 Vibration     6          0.654              1.788              1.846
 Vibration     7          0.673              1.733              1.611
 Vibration     8          0.695              1.667              1.399
 Vibration     9          0.709              1.625              1.284
 Vibration    10          0.717              1.602              1.228
 Vibration    11          0.741              1.538              1.088
 Vibration    12          0.813              1.352              0.783
 Vibration    13          0.899              1.153              0.557
 Vibration    14          0.909              1.131              0.536
 Vibration    15          0.930              1.088              0.497

 Optimization completed.
    -- Stationary point found.
 Normal termination of Gaussian 09 at Tue Jan 28 08:44:21 2020.
