 Gaussian 09, Revision D.01,
 Gaussian 09:  ES64L-G09RevD.01 24-Apr-2013

 -----------------------------
 # b3lyp 6-31G(2df,p) opt Freq
 -----------------------------

 -----
 titel
 -----
 Symbolic Z-matrix:
 Charge =  0 Multiplicity = 1

 SCF Done:  E(RB3LYP) =  -423.154150793     A.U. after   12 cycles
 Optimization completed.
    -- Stationary point found.
 Normal termination of Gaussian 09 at Mon Jan 27 18:07:21 2020.

 ----------------------------------------------------------------------
 #N Geom=AllCheck Guess=TCheck SCRF=Check GenChk RB3LYP/6-31G(2df,p) Fr
 eq
 ----------------------------------------------------------------------

 Structure from the checkpoint file:  "/scratch/puck/g09_6dc6cdd2-c984-480d-8eee-3ae2e622febf/Gau-88988.chk"
 -----
 titel
 -----
 Charge =  0 Multiplicity = 1

                         Standard orientation:
 ---------------------------------------------------------------------
 Center     Atomic      Atomic             Coordinates (Angstroms)
 Number     Number       Type             X           Y           Z
 ---------------------------------------------------------------------
      1          8           0       -2.346885    0.131719   -0.824931
      2          6           0       -1.128194   -0.073704   -0.188485
      3          6           0       -0.932047   -1.053772    1.002448
      4          6           0        0.342377   -0.225320    1.224405
      5          6           0       -0.358948    1.045890    0.662038
      6          6           0        0.926485    1.453499   -0.072719
      7          6           0        1.136737   -0.072608   -0.162313
      8          8           0        2.429263   -0.542320   -0.364165
      9          6           0        0.010334   -0.491027   -1.132474
     10          1           0       -3.004846    0.347429   -0.155868
     11          1           0       -1.654169   -0.883050    1.809369
     12          1           0       -0.871898   -2.125070    0.782296
     13          1           0        0.929312   -0.224606    2.140853
     14          1           0       -0.957533    1.716693    1.277562
     15          1           0        0.871417    2.015569   -1.009980
     16          1           0        1.640177    1.925464    0.608777
     17          1           0        2.390064   -1.493424   -0.511035
     18          1           0        0.029216    0.071098   -2.069412
     19          1           0       -0.011225   -1.563042   -1.357193
 ---------------------------------------------------------------------

 SCF Done:  E(RB3LYP) =  -423.154150793     A.U. after    1 cycles

 The electronic state is 1-A.
 Alpha  occ. eigenvalues --  -19.14264 -19.14085 -10.24054 -10.23889 -10.18601
 Alpha  occ. eigenvalues --  -10.18501 -10.18039 -10.17644 -10.17607  -1.03065
 Alpha  occ. eigenvalues --   -1.02540  -0.90351  -0.74792  -0.71815  -0.64397
 Alpha  occ. eigenvalues --   -0.61086  -0.56455  -0.54813  -0.52964  -0.47114
 Alpha  occ. eigenvalues --   -0.47011  -0.44410  -0.42868  -0.40716  -0.38017
 Alpha  occ. eigenvalues --   -0.36749  -0.36474  -0.35789  -0.34393  -0.31851
 Alpha  occ. eigenvalues --   -0.28640  -0.27884  -0.25813  -0.25003
 Alpha virt. eigenvalues --    0.07672   0.07815   0.10994   0.11904   0.12577
 Alpha virt. eigenvalues --    0.13697   0.14173   0.15784   0.16572   0.18202
 Alpha virt. eigenvalues --    0.19078   0.19279   0.20840   0.21489   0.23927

 Mulliken charges:
               1
     1  O   -0.487272
     2  C    0.412671
     3  C   -0.311409
     4  C   -0.101627
     5  C   -0.103784
     6  C   -0.275383
     7  C    0.418738
     8  O   -0.488485
     9  C   -0.315175
    10  H    0.277134
    11  H    0.087576
    12  H    0.088080
    13  H    0.072506
    14  H    0.062216
    15  H    0.094721
    16  H    0.102650
    17  H    0.277172
    18  H    0.105152
    19  H    0.084520
 Sum of Mulliken charges =   0.00000

 Dipole moment (field-independent basis, Debye):
    X=             -0.9640    Y=             -0.7260    Z=              1.2684  Tot=              1.7507
 Quadrupole moment (field-independent basis, Debye-Ang):
   XX=            -55.0470   YY=            -49.8445   ZZ=            -54.0140
   XY=             -3.3385   XZ=             -3.8179   YZ=              1.4288

  Exact polarizability:  79.050   1.194  73.634  -2.568   0.411  70.697
 Approx polarizability: 113.886  -0.709 110.092  -1.913   0.750 106.936

                      1                      2                      3
                      A                      A                      A
 Frequencies --    222.2295               242.7308               290.6440
 Red. masses --      2.8588                 1.6070                 1.5295
 Frc consts  --      0.0832                 0.0558                 0.0761
 IR Inten    --      3.5818                33.8223                72.1707

                      4                      5                      6
                      A                      A                      A
 Frequencies --    308.5641               343.3337               402.7446
 Red. masses --      1.6105                 2.6682                 2.9760
 Frc consts  --      0.0903                 0.1853                 0.2844
 IR Inten    --     59.3238                24.8651                10.4959

                      7                      8                      9
                      A                      A                      A
 Frequencies --    467.2011               475.9220               492.1612
 Red. masses --      2.1281                 2.2415                 1.9617
 Frc consts  --      0.2737                 0.2991                 0.2800
 IR Inten    --      0.3975                 6.1755                 1.3356

                     10                     11                     12
                      A                      A                      A
 Frequencies --    550.4291               652.6210               664.1908
 Red. masses --      5.3822                 4.0706                 3.7304
 Frc consts  --      0.9607                 1.0215                 0.9696
 IR Inten    --      7.6503                 5.1460                 4.6606

                     13                     14                     15
                      A                      A                      A
 Frequencies --    710.7881               817.1171               865.2223
 Red. masses --      4.1180                 3.5331                 1.6171
 Frc consts  --      1.2258                 1.3899                 0.7132
 IR Inten    --      2.8812                 1.7320                 0.3267

                     16                     17                     18
                      A                      A                      A
 Frequencies --    896.3534               900.4583               905.5263
 Red. masses --      3.1079                 2.2344                 2.1719
 Frc consts  --      1.4712                 1.0674                 1.0493
 IR Inten    --      7.6509                 0.2165                 6.1320

                     19                     20                     21
                      A                      A                      A
 Frequencies --    969.5068               982.2578               986.8499
 Red. masses --      1.6896                 1.6565                 1.5783
 Frc consts  --      0.9357                 0.9417                 0.9056
 IR Inten    --      0.1576                 0.3784                 2.2368

                     22                     23                     24
                      A                      A                      A
 Frequencies --   1001.2847              1023.6865              1080.7951
 Red. masses --      1.8263                 1.1567                 1.8432
 Frc consts  --      1.0788                 0.7142                 1.2685
 IR Inten    --     13.5623                 2.7143                 8.0078

                     25                     26                     27
                      A                      A                      A
 Frequencies --   1103.3341              1108.4035              1127.1236
 Red. masses --      1.6806                 1.9521                 1.4761
 Frc consts  --      1.2054                 1.4130                 1.1049
 IR Inten    --      6.3357                22.3169               129.2139

                     28                     29                     30
                      A                      A                      A
 Frequencies --   1169.7698              1180.9955              1190.7849
 Red. masses --      1.8258                 1.5368                 1.8886
 Frc consts  --      1.4720                 1.2629                 1.5778
 IR Inten    --     46.1766                 8.7739                23.4549

                     31                     32                     33
                      A                      A                      A
 Frequencies --   1219.9097              1232.2704              1239.0601
 Red. masses --      1.6898                 1.5991                 1.9111
 Frc consts  --      1.4816                 1.4307                 1.7287
 IR Inten    --      0.7697                12.1566                 3.4025

                     34                     35                     36
                      A                      A                      A
 Frequencies --   1268.9751              1306.5288              1338.5158
 Red. masses --      1.6877                 3.0342                 2.2844
 Frc consts  --      1.6012                 3.0516                 2.4114
 IR Inten    --      9.6908                64.4835               245.3354

                     37                     38                     39
                      A                      A                      A
 Frequencies --   1376.4207              1403.9434              1482.9110
 Red. masses --      1.9662                 1.9351                 1.1087
 Frc consts  --      2.1947                 2.2473                 1.4365
 IR Inten    --      5.3516                 2.5417                 2.6870

                     40                     41                     42
                      A                      A                      A
 Frequencies --   1499.3057              1520.0984              3028.6133
 Red. masses --      1.1565                 1.1536                 1.0561
 Frc consts  --      1.5317                 1.5705                 5.7075
 IR Inten    --      3.9149                 0.1599                45.3021

                     43                     44                     45
                      A                      A                      A
 Frequencies --   3043.7653              3048.1226              3082.2831
 Red. masses --      1.0606                 1.0583                 1.1079
 Frc consts  --      5.7891                 5.7930                 6.2012
 IR Inten    --     43.4252                29.4807                35.4185

                     46                     47                     48
                      A                      A                      A
 Frequencies --   3102.7450              3107.8349              3119.3997
 Red. masses --      1.1056                 1.1060                 1.0895
 Frc consts  --      6.2713                 6.2940                 6.2462
 IR Inten    --     10.1717                37.4398                35.7549

                     49                     50                     51
                      A                      A                      A
 Frequencies --   3138.3827              3806.5059              3811.2682
 Red. masses --      1.0918                 1.0657                 1.0658
 Frc consts  --      6.3357                 9.0983                 9.1213
 IR Inten    --     28.4594                16.3182                19.3682

 - Thermochemistry -
 -------------------
 Temperature   298.150 Kelvin.  Pressure   1.00000 Atm.
 Atom     1 has atomic number  8 and mass  15.99491

 Molecular mass:   126.06808 amu.
 Principal axes and moments of inertia in atomic units:
                           1         2         3
     Eigenvalues --   585.252141221.521281225.58485
           X            0.99975  -0.02163   0.00545
           Y           -0.00985  -0.20883   0.97790
           Z            0.02001   0.97771   0.20899
 This molecule is an asymmetric top.
 Rotational symmetry number  1.
 Warning -- assumption of classical behavior for rotation
           may cause significant error
 Rotational temperatures (Kelvin)      0.14799     0.07091     0.07067
 Rotational constants (GHZ):           3.08370     1.47745     1.47256
 Zero-point vibrational energy     420546.5 (Joules/Mol)
                                  100.51303 (Kcal/Mol)
 Warning -- explicit consideration of  10 degrees of freedom as
           vibrations may cause significant error
 Vibrational temperatures:    319.74   349.24   418.17   443.95   493.98
          (Kelvin)            579.46   672.20   684.74   708.11   791.94
                              938.97   955.62  1022.66  1175.65  1244.86
                             1289.65  1295.56  1302.85  1394.90  1413.25
                             1419.86  1440.62  1472.85  1555.02  1587.45
                             1594.74  1621.68  1683.04  1699.19  1713.27
                             1755.18  1772.96  1782.73  1825.77  1879.80
                             1925.82  1980.36  2019.96  2133.58  2157.16
                             2187.08  4357.49  4379.29  4385.56  4434.71
                             4464.15  4471.48  4488.11  4515.43  5476.71
                             5483.56

 Zero-point correction=                           0.160178 (Hartree/Particle)
 Thermal correction to Energy=                    0.167579
 Thermal correction to Enthalpy=                  0.168523
 Thermal correction to Gibbs Free Energy=         0.129095
 Sum of electronic and zero-point Energies=           -422.993973
 Sum of electronic and thermal Energies=              -422.986572
 Sum of electronic and thermal Enthalpies=            -422.985628
 Sum of electronic and thermal Free Energies=         -423.025055

                     E (Thermal)             CV                S
                      KCal/Mol        Cal/Mol-Kelvin    Cal/Mol-Kelvin
 Total                  105.157             31.406             82.982
 Electronic               0.000              0.000              0.000
 Translational            0.889              2.981             40.409
 Rotational               0.889              2.981             28.262
 Vibrational            103.380             25.444             14.311
 Vibration     1          0.648              1.807              1.941
 Vibration     2          0.659              1.775              1.783
 Vibration     3          0.687              1.691              1.470
 Vibration     4          0.698              1.657              1.370
 Vibration     5          0.722              1.589              1.197
 Vibration     6          0.768              1.464              0.953
 Vibration     7          0.824              1.323              0.745
 Vibration     8          0.833              1.303              0.721
 Vibration     9          0.848              1.267              0.678
 Vibration    10          0.906              1.139              0.543

 Normal termination of Gaussian 09 at Mon Jan 27 18:57:40 2020.
