 Gaussian 09, Revision D.01,
 Gaussian 09:  ES64L-G09RevD.01 24-Apr-2013

 -----------------------------
 # b3lyp 6-31G(2df,p) opt Freq
 -----------------------------

 -----
 titel
 -----
 Symbolic Z-matrix:
 Charge =  0 Multiplicity = 1

 SCF Done:  E(RB3LYP) =  -423.192291383     A.U. after   12 cycles
 Optimization completed.
    -- Stationary point found.
 Normal termination of Gaussian 09 at Mon Jan 27 18:59:56 2020.

 ----------------------------------------------------------------------
 #N Geom=AllCheck Guess=TCheck SCRF=Check GenChk RB3LYP/6-31G(2df,p) Fr
 eq
 ----------------------------------------------------------------------

 Structure from the checkpoint file:  "/scratch/puck/g09_b9bbedcf-af83-420c-a1dc-c799c3628f5e/Gau-172859.chk"
 -----
 titel
 -----
 Charge =  0 Multiplicity = 1

                         Standard orientation:
 ---------------------------------------------------------------------
 Center     Atomic      Atomic             Coordinates (Angstroms)
 Number     Number       Type             X           Y           Z
 ---------------------------------------------------------------------
      1          6           0       -2.527161    0.029767    0.019459
      2          6           0       -1.016798    0.058060    0.022076
      3          6           0       -0.396259    1.445716    0.120356
      4          8           0        1.030929    1.438483    0.010693
      5          6           0        1.570460    0.143639   -0.094404
      6          6           0        1.154307   -0.713729    1.117149
      7          6           0       -0.260944   -1.078949    0.704545
      8          6           0       -0.252301   -0.945265   -0.801099
      9          8           0        1.030196   -0.529514   -1.222342
     10          1           0       -2.934769    0.619427   -0.809733
     11          1           0       -2.901167   -0.993756   -0.084231
     12          1           0       -2.933620    0.436514    0.953192
     13          1           0       -0.789211    2.083037   -0.683502
     14          1           0       -0.675874    1.915261    1.075669
     15          1           0        2.642219    0.267494   -0.248672
     16          1           0        1.780778   -1.607479    1.202313
     17          1           0        1.230496   -0.136394    2.041682
     18          1           0       -0.806699   -1.864745    1.213078
     19          1           0       -0.728981   -1.626544   -1.495096
 ---------------------------------------------------------------------

 SCF Done:  E(RB3LYP) =  -423.192291383     A.U. after    1 cycles

 The electronic state is 1-A.
 Alpha  occ. eigenvalues --  -19.14376 -19.13714 -10.27416 -10.23305 -10.23059
 Alpha  occ. eigenvalues --  -10.20070 -10.19146 -10.18731 -10.18627  -1.07827
 Alpha  occ. eigenvalues --   -1.00288  -0.86470  -0.76852  -0.71629  -0.68730
 Alpha  occ. eigenvalues --   -0.62644  -0.57991  -0.54069  -0.51399  -0.49087
 Alpha  occ. eigenvalues --   -0.47194  -0.43798  -0.42906  -0.40870  -0.40734
 Alpha  occ. eigenvalues --   -0.40430  -0.39454  -0.37930  -0.35129  -0.33538
 Alpha  occ. eigenvalues --   -0.30821  -0.28718  -0.24996  -0.22992
 Alpha virt. eigenvalues --    0.08840   0.09990   0.11182   0.11869   0.13473
 Alpha virt. eigenvalues --    0.14037   0.15152   0.16049   0.16929   0.17622
 Alpha virt. eigenvalues --    0.18230   0.18537   0.19199   0.19712   0.20893

 Mulliken charges:
               1
     1  C   -0.482190
     2  C    0.240724
     3  C   -0.123608
     4  O   -0.265201
     5  C    0.167721
     6  C   -0.259901
     7  C   -0.161879
     8  C    0.066127
     9  O   -0.250814
    10  H    0.122922
    11  H    0.119565
    12  H    0.120907
    13  H    0.107353
    14  H    0.098401
    15  H    0.093102
    16  H    0.109008
    17  H    0.111949
    18  H    0.086284
    19  H    0.099527
 Sum of Mulliken charges =   0.00000

 Dipole moment (field-independent basis, Debye):
    X=             -1.5334    Y=             -0.9957    Z=              1.2492  Tot=              2.2143
 Quadrupole moment (field-independent basis, Debye-Ang):
   XX=            -50.8586   YY=            -53.8137   ZZ=            -54.4658
   XY=             -1.2919   XZ=              2.3625   YZ=             -0.3753

  Exact polarizability:  82.790  -3.031  71.361   2.264  -0.364  65.873
 Approx polarizability: 111.423  -3.375 105.902   0.227   0.977 104.122

                      1                      2                      3
                      A                      A                      A
 Frequencies --    144.8813               202.4775               248.5840
 Red. masses --      2.3898                 1.0881                 2.3989
 Frc consts  --      0.0296                 0.0263                 0.0873
 IR Inten    --      2.7449                 0.1363                 1.2234

                      4                      5                      6
                      A                      A                      A
 Frequencies --    293.5339               389.6037               426.1159
 Red. masses --      2.4638                 2.6001                 3.3413
 Frc consts  --      0.1251                 0.2325                 0.3575
 IR Inten    --      0.7247                 0.7192                 0.5771

                      7                      8                      9
                      A                      A                      A
 Frequencies --    503.8824               511.6065               591.7166
 Red. masses --      3.4305                 4.6587                 6.5132
 Frc consts  --      0.5132                 0.7184                 1.3436
 IR Inten    --      4.9714                 2.0921                 3.8315

                     10                     11                     12
                      A                      A                      A
 Frequencies --    677.3661               732.5365               830.1469
 Red. masses --      4.6600                 3.9999                 4.6548
 Frc consts  --      1.2598                 1.2646                 1.8900
 IR Inten    --      2.9340                 5.8242                 5.0455

                     13                     14                     15
                      A                      A                      A
 Frequencies --    854.1271               866.1239               877.8070
 Red. masses --      3.1165                 1.4562                 2.5216
 Frc consts  --      1.3396                 0.6436                 1.1448
 IR Inten    --     22.8611                 3.5583                38.8166

                     16                     17                     18
                      A                      A                      A
 Frequencies --    927.3724               964.8953               982.1680
 Red. masses --      2.1726                 2.7628                 1.7548
 Frc consts  --      1.1009                 1.5155                 0.9974
 IR Inten    --      7.0916                24.4446                27.4323

                     19                     20                     21
                      A                      A                      A
 Frequencies --   1002.2844              1024.0821              1039.8044
 Red. masses --      1.9062                 1.9337                 1.9722
 Frc consts  --      1.1282                 1.1948                 1.2564
 IR Inten    --      8.8417                19.9202                 1.3944

                     22                     23                     24
                      A                      A                      A
 Frequencies --   1050.1591              1082.0386              1090.3702
 Red. masses --      2.3127                 1.8322                 1.9738
 Frc consts  --      1.5027                 1.2639                 1.3826
 IR Inten    --     19.8139                13.0032                26.3035

                     25                     26                     27
                      A                      A                      A
 Frequencies --   1134.7294              1146.1805              1192.2298
 Red. masses --      3.7087                 2.0534                 1.3916
 Frc consts  --      2.8136                 1.5894                 1.1654
 IR Inten    --     94.6300                15.3490                23.3671

                     28                     29                     30
                      A                      A                      A
 Frequencies --   1212.5021              1254.4320              1259.3992
 Red. masses --      2.6716                 1.2433                 1.3105
 Frc consts  --      2.3141                 1.1527                 1.2247
 IR Inten    --      7.9705                 3.2415                 5.4901

                     31                     32                     33
                      A                      A                      A
 Frequencies --   1304.5111              1307.6296              1353.9776
 Red. masses --      1.8333                 1.8129                 1.4792
 Frc consts  --      1.8381                 1.8264                 1.5977
 IR Inten    --      4.7559                 8.7339                 8.5935

                     34                     35                     36
                      A                      A                      A
 Frequencies --   1363.5968              1406.3932              1417.0927
 Red. masses --      1.4827                 1.6088                 1.3214
 Frc consts  --      1.6244                 1.8748                 1.5634
 IR Inten    --      0.8096                14.6539                 2.3840

                     37                     38                     39
                      A                      A                      A
 Frequencies --   1447.0628              1488.6709              1490.0432
 Red. masses --      1.8598                 1.1006                 1.0475
 Frc consts  --      2.2945                 1.4370                 1.3702
 IR Inten    --     11.8406                 4.5996                 3.0339

                     40                     41                     42
                      A                      A                      A
 Frequencies --   1501.6023              1523.3232              2983.3320
 Red. masses --      1.1066                 1.0929                 1.0629
 Frc consts  --      1.4701                 1.4942                 5.5736
 IR Inten    --      5.4213                 0.9626                70.2522

                     43                     44                     45
                      A                      A                      A
 Frequencies --   3020.7819              3022.6931              3053.9390
 Red. masses --      1.0710                 1.0632                 1.0610
 Frc consts  --      5.7579                 5.7234                 5.8300
 IR Inten    --     25.8947                57.2544                27.5411

                     46                     47                     48
                      A                      A                      A
 Frequencies --   3082.3870              3098.1015              3108.6412
 Red. masses --      1.1008                 1.1005                 1.1041
 Frc consts  --      6.1624                 6.2235                 6.2864
 IR Inten    --     24.8628                19.2413                17.5650

                     49                     50                     51
                      A                      A                      A
 Frequencies --   3127.0255              3178.4911              3192.7199
 Red. masses --      1.0908                 1.0902                 1.0946
 Frc consts  --      6.2841                 6.4892                 6.5739
 IR Inten    --     38.8315                 9.4332                16.7076

 - Thermochemistry -
 -------------------
 Temperature   298.150 Kelvin.  Pressure   1.00000 Atm.
 Atom     1 has atomic number  6 and mass  12.00000

 Molecular mass:   126.06808 amu.
 Principal axes and moments of inertia in atomic units:
                           1         2         3
     Eigenvalues --   633.99030 989.537241157.24182
           X            0.99935  -0.02611   0.02490
           Y            0.02693   0.99909  -0.03293
           Z           -0.02402   0.03358   0.99915
 This molecule is an asymmetric top.
 Rotational symmetry number  1.
 Warning -- assumption of classical behavior for rotation
           may cause significant error
 Rotational temperatures (Kelvin)      0.13662     0.08753     0.07485
 Rotational constants (GHZ):           2.84664     1.82382     1.55952
 Zero-point vibrational energy     424585.6 (Joules/Mol)
                                  101.47840 (Kcal/Mol)
 Warning -- explicit consideration of   9 degrees of freedom as
           vibrations may cause significant error
 Vibrational temperatures:    208.45   291.32   357.66   422.33   560.55
          (Kelvin)            613.08   724.97   736.09   851.35   974.58
                             1053.96  1194.39  1228.90  1246.16  1262.97
                             1334.28  1388.27  1413.12  1442.06  1473.42
                             1496.04  1510.94  1556.81  1568.80  1632.62
                             1649.10  1715.35  1744.52  1804.85  1811.99
                             1876.90  1881.39  1948.07  1961.91  2023.48
                             2038.88  2082.00  2141.86  2143.84  2160.47
                             2191.72  4292.34  4346.23  4348.98  4393.93
                             4434.86  4457.47  4472.64  4499.09  4573.13
                             4593.61

 Zero-point correction=                           0.161716 (Hartree/Particle)
 Thermal correction to Energy=                    0.168854
 Thermal correction to Enthalpy=                  0.169798
 Thermal correction to Gibbs Free Energy=         0.130526
 Sum of electronic and zero-point Energies=           -423.030575
 Sum of electronic and thermal Energies=              -423.023438
 Sum of electronic and thermal Enthalpies=            -423.022493
 Sum of electronic and thermal Free Energies=         -423.061765

                     E (Thermal)             CV                S
                      KCal/Mol        Cal/Mol-Kelvin    Cal/Mol-Kelvin
 Total                  105.957             29.086             82.654
 Electronic               0.000              0.000              0.000
 Translational            0.889              2.981             40.409
 Rotational               0.889              2.981             28.075
 Vibrational            104.180             23.124             14.170
 Vibration     1          0.616              1.908              2.738
 Vibration     2          0.639              1.836              2.110
 Vibration     3          0.662              1.765              1.741
 Vibration     4          0.688              1.686              1.454
 Vibration     5          0.758              1.492              1.002
 Vibration     6          0.788              1.413              0.871
 Vibration     7          0.859              1.241              0.648
 Vibration     8          0.867              1.224              0.630
 Vibration     9          0.949              1.049              0.464

 Optimization completed.
    -- Stationary point found.
 Normal termination of Gaussian 09 at Mon Jan 27 19:44:16 2020.
