 Gaussian 09, Revision D.01,
 Gaussian 09:  ES64L-G09RevD.01 24-Apr-2013

 -----------------------------
 # b3lyp 6-31G(2df,p) opt Freq
 -----------------------------

 -----
 titel
 -----
 Symbolic Z-matrix:
 Charge =  0 Multiplicity = 1

 SCF Done:  E(RB3LYP) =  -423.208642544     A.U. after   14 cycles
 Optimization completed.
    -- Stationary point found.
 Normal termination of Gaussian 09 at Mon Jan 27 13:09:19 2020.

 ----------------------------------------------------------------------
 #N Geom=AllCheck Guess=TCheck SCRF=Check GenChk RB3LYP/6-31G(2df,p) Fr
 eq
 ----------------------------------------------------------------------

 Structure from the checkpoint file:  "/scratch/puck/g09_381f4690-3a9e-4bb4-9844-17d256ef43b6/Gau-28011.chk"
 -----
 titel
 -----
 Charge =  0 Multiplicity = 1

                         Standard orientation:
 ---------------------------------------------------------------------
 Center     Atomic      Atomic             Coordinates (Angstroms)
 Number     Number       Type             X           Y           Z
 ---------------------------------------------------------------------
      1          8           0       -2.061497   -1.306990   -0.531690
      2          6           0       -1.344708   -0.600993    0.114548
      3          6           0       -1.571864    0.860922    0.421057
      4          6           0       -0.541939    1.784148   -0.275489
      5          6           0        0.927199    1.509121    0.095185
      6          6           0        1.510590    0.263057   -0.559747
      7          6           0        2.253141   -0.760031    0.281924
      8          6           0        0.893923   -1.076682   -0.249920
      9          8           0       -0.166983   -1.076195    0.682499
     10          1           0       -2.585883    1.123734    0.110997
     11          1           0       -1.491592    0.993717    1.506383
     12          1           0       -0.669659    1.714630   -1.362692
     13          1           0       -0.794898    2.813953   -0.000200
     14          1           0        1.535632    2.372775   -0.195869
     15          1           0        1.010408    1.432071    1.184977
     16          1           0        1.856297    0.400973   -1.580712
     17          1           0        3.101303   -1.285063   -0.142977
     18          1           0        2.325750   -0.561268    1.345606
     19          1           0        0.782432   -1.817302   -1.037320
 ---------------------------------------------------------------------

 SCF Done:  E(RB3LYP) =  -423.208642544     A.U. after    1 cycles

 The electronic state is 1-A.
 Alpha  occ. eigenvalues --  -19.15898 -19.13522 -10.30707 -10.24512 -10.19937
 Alpha  occ. eigenvalues --  -10.19914 -10.19841 -10.19454 -10.19306  -1.09007
 Alpha  occ. eigenvalues --   -1.01873  -0.86273  -0.80586  -0.71938  -0.65571
 Alpha  occ. eigenvalues --   -0.60862  -0.58360  -0.53576  -0.51530  -0.50324
 Alpha  occ. eigenvalues --   -0.46972  -0.45902  -0.43047  -0.42382  -0.41386
 Alpha  occ. eigenvalues --   -0.39466  -0.37611  -0.36042  -0.34418  -0.34275
 Alpha  occ. eigenvalues --   -0.32643  -0.29813  -0.26475  -0.25856
 Alpha virt. eigenvalues --   -0.00688   0.07944   0.10007   0.10904   0.12723
 Alpha virt. eigenvalues --    0.13270   0.14857   0.14992   0.15641   0.16769
 Alpha virt. eigenvalues --    0.17136   0.17796   0.19031   0.20236   0.23321

 Mulliken charges:
               1
     1  O   -0.294781
     2  C    0.406516
     3  C   -0.287902
     4  C   -0.206168
     5  C   -0.218157
     6  C   -0.036675
     7  C   -0.333782
     8  C    0.102915
     9  O   -0.256310
    10  H    0.123143
    11  H    0.125922
    12  H    0.112030
    13  H    0.105994
    14  H    0.103711
    15  H    0.105955
    16  H    0.091632
    17  H    0.119074
    18  H    0.127298
    19  H    0.109586
 Sum of Mulliken charges =   0.00000

 Dipole moment (field-independent basis, Debye):
    X=              1.9071    Y=              2.5018    Z=              0.0708  Tot=              3.1466
 Quadrupole moment (field-independent basis, Debye-Ang):
   XX=            -54.7936   YY=            -54.6508   ZZ=            -52.2820
   XY=             -5.4261   XZ=             -3.0608   YZ=              0.5404

  Exact polarizability:  84.498  -2.096  76.759   1.784   2.087  63.034
 Approx polarizability: 114.220   3.058 108.794   6.415   3.469 102.502

                      1                      2                      3
                      A                      A                      A
 Frequencies --     67.9636               142.8022               235.7902
 Red. masses --      5.9068                 3.0452                 2.4985
 Frc consts  --      0.0161                 0.0366                 0.0818
 IR Inten    --      2.8238                 1.8071                 1.0796

                      4                      5                      6
                      A                      A                      A
 Frequencies --    269.3740               301.2451               368.5955
 Red. masses --      3.4334                 2.9512                 3.6765
 Frc consts  --      0.1468                 0.1578                 0.2943
 IR Inten    --      0.7995                 1.3910                 0.1538

                      7                      8                      9
                      A                      A                      A
 Frequencies --    425.4273               472.7334               590.2015
 Red. masses --      2.4035                 2.0743                 2.4798
 Frc consts  --      0.2563                 0.2731                 0.5089
 IR Inten    --      0.0906                 0.0304                 0.4446

                     10                     11                     12
                      A                      A                      A
 Frequencies --    606.6599               711.4968               753.7130
 Red. masses --      5.4568                 3.0375                 2.7379
 Frc consts  --      1.1833                 0.9060                 0.9164
 IR Inten    --     15.8686                 0.5561                10.1850

                     13                     14                     15
                      A                      A                      A
 Frequencies --    803.9196               818.3984               857.9152
 Red. masses --      2.8872                 1.6694                 1.5512
 Frc consts  --      1.0994                 0.6588                 0.6727
 IR Inten    --      5.7659                20.0315                 2.1876

                     16                     17                     18
                      A                      A                      A
 Frequencies --    878.3149               898.7021               946.5251
 Red. masses --      2.7175                 2.0926                 2.6018
 Frc consts  --      1.2351                 0.9958                 1.3734
 IR Inten    --     12.2106                 0.1483                31.7359

                     19                     20                     21
                      A                      A                      A
 Frequencies --    981.1193              1036.1612              1053.6692
 Red. masses --      1.9760                 1.9104                 1.8804
 Frc consts  --      1.1207                 1.2085                 1.2300
 IR Inten    --      3.4673                44.2855                18.0282

                     22                     23                     24
                      A                      A                      A
 Frequencies --   1063.2256              1089.0353              1106.3319
 Red. masses --      1.6619                 2.1609                 2.0138
 Frc consts  --      1.1069                 1.5099                 1.4522
 IR Inten    --      8.3813                36.4700                 7.2169

                     25                     26                     27
                      A                      A                      A
 Frequencies --   1133.0150              1147.0646              1172.0324
 Red. masses --      1.2799                 2.5736                 1.9096
 Frc consts  --      0.9681                 1.9951                 1.5455
 IR Inten    --      9.9465               148.2831                21.9205

                     28                     29                     30
                      A                      A                      A
 Frequencies --   1214.3010              1231.4149              1237.3769
 Red. masses --      1.4383                 1.6954                 1.2855
 Frc consts  --      1.2495                 1.5147                 1.1596
 IR Inten    --      4.0125                53.1638                13.2419

                     31                     32                     33
                      A                      A                      A
 Frequencies --   1288.1153              1343.6273              1355.5420
 Red. masses --      1.2395                 1.3514                 1.3070
 Frc consts  --      1.2117                 1.4374                 1.4150
 IR Inten    --      3.2458                 0.6064                14.4209

                     34                     35                     36
                      A                      A                      A
 Frequencies --   1380.5739              1382.3541              1410.0402
 Red. masses --      1.4454                 1.4057                 1.6409
 Frc consts  --      1.6231                 1.5826                 1.9221
 IR Inten    --     10.6070                18.6357                 6.9155

                     37                     38                     39
                      A                      A                      A
 Frequencies --   1469.8075              1475.6927              1490.5885
 Red. masses --      1.1122                 1.2723                 1.0900
 Frc consts  --      1.4157                 1.6324                 1.4269
 IR Inten    --      4.5021                 5.4607                 2.7743

                     40                     41                     42
                      A                      A                      A
 Frequencies --   1491.2824              1857.1730              3030.8442
 Red. masses --      1.1736                12.0241                 1.0611
 Frc consts  --      1.5378                24.4347                 5.7431
 IR Inten    --     13.8134               266.6059                19.8062

                     43                     44                     45
                      A                      A                      A
 Frequencies --   3035.3306              3042.5728              3071.3579
 Red. masses --      1.0622                 1.0630                 1.0996
 Frc consts  --      5.7657                 5.7977                 6.1117
 IR Inten    --     20.5590                 8.3235                28.6029

                     46                     47                     48
                      A                      A                      A
 Frequencies --   3077.1758              3112.6047              3136.0688
 Red. masses --      1.1014                 1.1011                 1.0600
 Frc consts  --      6.1448                 6.2854                 6.1421
 IR Inten    --     31.4188                18.4050                 7.2445

                     49                     50                     51
                      A                      A                      A
 Frequencies --   3138.2029              3148.2300              3226.3986
 Red. masses --      1.0814                 1.0910                 1.1168
 Frc consts  --      6.2745                 6.3712                 6.8494
 IR Inten    --     12.6125                23.4946                 7.8282

 - Thermochemistry -
 -------------------
 Temperature   298.150 Kelvin.  Pressure   1.00000 Atm.
 Atom     1 has atomic number  8 and mass  15.99491

 Molecular mass:   126.06808 amu.
 Principal axes and moments of inertia in atomic units:
                           1         2         3
     Eigenvalues --   726.202801059.010891558.18211
           X            0.99599  -0.08908  -0.00795
           Y            0.08915   0.99598   0.00885
           Z            0.00713  -0.00952   0.99993
 This molecule is an asymmetric top.
 Rotational symmetry number  1.
 Warning -- assumption of classical behavior for rotation
           may cause significant error
 Rotational temperatures (Kelvin)      0.11927     0.08179     0.05559
 Rotational constants (GHZ):           2.48518     1.70418     1.15824
 Zero-point vibrational energy     422150.8 (Joules/Mol)
                                  100.89647 (Kcal/Mol)
 Warning -- explicit consideration of  10 degrees of freedom as
           vibrations may cause significant error
 Vibrational temperatures:     97.78   205.46   339.25   387.57   433.42
          (Kelvin)            530.33   612.09   680.16   849.17   872.85
                             1023.68  1084.42  1156.66  1177.49  1234.35
                             1263.70  1293.03  1361.84  1411.61  1490.80
                             1515.99  1529.74  1566.88  1591.76  1630.15
                             1650.37  1686.29  1747.11  1771.73  1780.31
                             1853.31  1933.18  1950.32  1986.34  1988.90
                             2028.73  2114.72  2123.19  2144.62  2145.62
                             2672.05  4360.70  4367.16  4377.58  4418.99
                             4427.36  4478.34  4512.10  4515.17  4529.60
                             4642.06

 Zero-point correction=                           0.160789 (Hartree/Particle)
 Thermal correction to Energy=                    0.168589
 Thermal correction to Enthalpy=                  0.169533
 Thermal correction to Gibbs Free Energy=         0.128287
 Sum of electronic and zero-point Energies=           -423.047854
 Sum of electronic and thermal Energies=              -423.040053
 Sum of electronic and thermal Enthalpies=            -423.039109
 Sum of electronic and thermal Free Energies=         -423.080356

                     E (Thermal)             CV                S
                      KCal/Mol        Cal/Mol-Kelvin    Cal/Mol-Kelvin
 Total                  105.791             30.487             86.811
 Electronic               0.000              0.000              0.000
 Translational            0.889              2.981             40.409
 Rotational               0.889              2.981             28.573
 Vibrational            104.014             24.526             17.829
 Vibration     1          0.598              1.969              4.211
 Vibration     2          0.616              1.910              2.766
 Vibration     3          0.655              1.786              1.834
 Vibration     4          0.674              1.730              1.600
 Vibration     5          0.693              1.671              1.410
 Vibration     6          0.741              1.537              1.086
 Vibration     7          0.787              1.415              0.874
 Vibration     8          0.830              1.311              0.730
 Vibration     9          0.948              1.053              0.467
 Vibration    10          0.965              1.018              0.438

 Normal termination of Gaussian 09 at Mon Jan 27 14:30:35 2020.
