 Gaussian 09, Revision D.01,
 Gaussian 09:  ES64L-G09RevD.01 24-Apr-2013

 -----------------------------
 # b3lyp 6-31G(2df,p) opt Freq
 -----------------------------

 -----
 titel
 -----
 Symbolic Z-matrix:
 Charge =  0 Multiplicity = 1

 SCF Done:  E(RB3LYP) =  -423.119109305     A.U. after   13 cycles
 Optimization completed.
    -- Stationary point found.
 Normal termination of Gaussian 09 at Mon Jan 27 22:14:53 2020.

 ----------------------------------------------------------------------
 #N Geom=AllCheck Guess=TCheck SCRF=Check GenChk RB3LYP/6-31G(2df,p) Fr
 eq
 ----------------------------------------------------------------------

 Structure from the checkpoint file:  "/scratch/puck/g09_287dbfad-f01e-42b8-a04c-0a34a7d2efb8/Gau-28951.chk"
 -----
 titel
 -----
 Charge =  0 Multiplicity = 1

                         Standard orientation:
 ---------------------------------------------------------------------
 Center     Atomic      Atomic             Coordinates (Angstroms)
 Number     Number       Type             X           Y           Z
 ---------------------------------------------------------------------
      1          6           0       -2.020400   -1.463496   -0.022889
      2          6           0       -0.918770   -0.440516   -0.084417
      3          8           0       -1.174752    0.613108   -1.068341
      4          6           0       -1.022688    1.650090   -0.063910
      5          6           0       -0.606889    0.617677    1.000963
      6          6           0        0.856129    0.129395    1.030782
      7          6           0        1.513755    0.160088   -0.312667
      8          8           0        2.870596   -0.180556   -0.251383
      9          6           0        0.538461   -0.951146   -0.028308
     10          1           0       -2.989859   -0.982595    0.136058
     11          1           0       -2.066935   -2.023009   -0.964251
     12          1           0       -1.841337   -2.177339    0.787687
     13          1           0       -0.284660    2.407302   -0.351345
     14          1           0       -1.981137    2.142660    0.141876
     15          1           0       -1.118610    0.623763    1.962646
     16          1           0        1.469860    0.041882    1.918417
     17          1           0        1.262815    0.917449   -1.051672
     18          1           0        3.095509   -0.633936   -1.070622
     19          1           0        0.850011   -1.989148   -0.068326
 ---------------------------------------------------------------------

 SCF Done:  E(RB3LYP) =  -423.119109305     A.U. after    1 cycles

 The electronic state is 1-A.
 Alpha  occ. eigenvalues --  -19.14300 -19.12699 -10.23840 -10.23483 -10.22592
 Alpha  occ. eigenvalues --  -10.19397 -10.19112 -10.18595 -10.17902  -1.03492
 Alpha  occ. eigenvalues --   -1.02561  -0.87351  -0.74912  -0.72555  -0.65113
 Alpha  occ. eigenvalues --   -0.60794  -0.57822  -0.53107  -0.50425  -0.49335
 Alpha  occ. eigenvalues --   -0.47521  -0.45271  -0.44096  -0.40981  -0.39924
 Alpha  occ. eigenvalues --   -0.38973  -0.38351  -0.35763  -0.32162  -0.31059
 Alpha  occ. eigenvalues --   -0.29356  -0.26817  -0.24479  -0.23887
 Alpha virt. eigenvalues --    0.06929   0.07697   0.10033   0.10608   0.11355
 Alpha virt. eigenvalues --    0.13301   0.14844   0.15657   0.16230   0.16856
 Alpha virt. eigenvalues --    0.17476   0.18618   0.19727   0.21366   0.22954

 Mulliken charges:
               1
     1  C   -0.476857
     2  C    0.438105
     3  O   -0.340451
     4  C   -0.114726
     5  C   -0.134960
     6  C   -0.086640
     7  C    0.080823
     8  O   -0.441102
     9  C   -0.153365
    10  H    0.122479
    11  H    0.129156
    12  H    0.121569
    13  H    0.103346
    14  H    0.100659
    15  H    0.079550
    16  H    0.099042
    17  H    0.104445
    18  H    0.287419
    19  H    0.081508
 Sum of Mulliken charges =   0.00000

 Dipole moment (field-independent basis, Debye):
    X=             -0.3719    Y=             -0.7637    Z=              0.5297  Tot=              1.0010
 Quadrupole moment (field-independent basis, Debye-Ang):
   XX=            -55.0547   YY=            -50.1574   ZZ=            -52.6869
   XY=             -1.6209   XZ=             -6.0978   YZ=              2.0677

  Exact polarizability:  82.984  -1.408  75.606  -1.841   1.825  64.798
 Approx polarizability: 109.819  -1.909 110.129  -0.361   4.358 104.495

                      1                      2                      3
                      A                      A                      A
 Frequencies --    172.8889               204.3644               211.8156
 Red. masses --      3.8412                 2.6641                 1.0626
 Frc consts  --      0.0676                 0.0656                 0.0281
 IR Inten    --      3.6796                 4.9243                 0.2089

                      4                      5                      6
                      A                      A                      A
 Frequencies --    236.3307               298.1760               306.7669
 Red. masses --      2.4773                 3.0825                 1.1967
 Frc consts  --      0.0815                 0.1615                 0.0664
 IR Inten    --      0.0484                 7.2282                96.7042

                      7                      8                      9
                      A                      A                      A
 Frequencies --    332.0196               398.8944               474.7167
 Red. masses --      3.0280                 4.6203                 2.4950
 Frc consts  --      0.1967                 0.4332                 0.3313
 IR Inten    --      0.7175                 4.8790                 0.0936

                     10                     11                     12
                      A                      A                      A
 Frequencies --    516.3212               618.4699               735.1937
 Red. masses --      4.5473                 3.6721                 4.1603
 Frc consts  --      0.7142                 0.8276                 1.3249
 IR Inten    --     12.5775                 3.9945                 1.5855

                     13                     14                     15
                      A                      A                      A
 Frequencies --    804.1703               822.0170               864.0930
 Red. masses --      1.8448                 2.6939                 2.0638
 Frc consts  --      0.7029                 1.0725                 0.9079
 IR Inten    --      0.4223                 6.5892                28.0430

                     16                     17                     18
                      A                      A                      A
 Frequencies --    872.8562               885.5779               928.6991
 Red. masses --      2.4124                 2.1263                 2.3710
 Frc consts  --      1.0829                 0.9825                 1.2049
 IR Inten    --      5.1635                27.7557                 1.1694

                     19                     20                     21
                      A                      A                      A
 Frequencies --    936.6460               980.6427               991.7869
 Red. masses --      2.3217                 5.5543                 1.2079
 Frc consts  --      1.2001                 3.1470                 0.7000
 IR Inten    --      6.3470                73.8651                 4.3238

                     22                     23                     24
                      A                      A                      A
 Frequencies --   1036.2738              1059.2567              1080.8847
 Red. masses --      1.8076                 1.8347                 1.6500
 Frc consts  --      1.1436                 1.2129                 1.1358
 IR Inten    --      0.8760                11.1488                 8.4529

                     25                     26                     27
                      A                      A                      A
 Frequencies --   1109.9121              1125.6265              1135.3108
 Red. masses --      1.6453                 1.9286                 2.1182
 Frc consts  --      1.1942                 1.4397                 1.6086
 IR Inten    --      2.7482                59.2402                12.2593

                     28                     29                     30
                      A                      A                      A
 Frequencies --   1164.7614              1172.4366              1192.1699
 Red. masses --      1.1990                 2.1929                 2.0800
 Frc consts  --      0.9584                 1.7760                 1.7418
 IR Inten    --      1.3940                14.5833                 6.4912

                     31                     32                     33
                      A                      A                      A
 Frequencies --   1221.5538              1278.5504              1302.1984
 Red. masses --      2.4286                 1.6084                 1.4902
 Frc consts  --      2.1352                 1.5491                 1.4888
 IR Inten    --     52.3391                 3.3804                41.1940

                     34                     35                     36
                      A                      A                      A
 Frequencies --   1314.7244              1328.2384              1351.5052
 Red. masses --      1.9106                 1.5799                 1.6875
 Frc consts  --      1.9458                 1.6422                 1.8160
 IR Inten    --     25.7094                 5.7184                12.3302

                     37                     38                     39
                      A                      A                      A
 Frequencies --   1405.9466              1454.1463              1480.3107
 Red. masses --      1.4058                 2.0005                 1.0581
 Frc consts  --      1.6373                 2.4924                 1.3661
 IR Inten    --     10.1879                12.5357                 3.1369

                     40                     41                     42
                      A                      A                      A
 Frequencies --   1486.7989              1521.7753              3016.4378
 Red. masses --      1.0501                 1.0977                 1.0569
 Frc consts  --      1.3676                 1.4978                 5.6659
 IR Inten    --      2.5402                 0.3390                75.3347

                     43                     44                     45
                      A                      A                      A
 Frequencies --   3031.2123              3063.5841              3099.1993
 Red. masses --      1.0353                 1.1088                 1.1000
 Frc consts  --      5.6045                 6.1317                 6.2252
 IR Inten    --     16.0548                33.5174                14.1363

                     46                     47                     48
                      A                      A                      A
 Frequencies --   3113.9297              3119.2099              3130.5999
 Red. masses --      1.1020                 1.0894                 1.0872
 Frc consts  --      6.2957                 6.2446                 6.2780
 IR Inten    --     19.1658                27.6025                22.1701

                     49                     50                     51
                      A                      A                      A
 Frequencies --   3170.1523              3195.6029              3807.2855
 Red. masses --      1.0911                 1.0940                 1.0662
 Frc consts  --      6.4608                 6.5824                 9.1056
 IR Inten    --     14.8752                10.6261                24.7782

 - Thermochemistry -
 -------------------
 Temperature   298.150 Kelvin.  Pressure   1.00000 Atm.
 Atom     1 has atomic number  6 and mass  12.00000

 Molecular mass:   126.06808 amu.
 Principal axes and moments of inertia in atomic units:
                           1         2         3
     Eigenvalues --   592.649471295.626701482.15484
           X            0.99974   0.01592  -0.01642
           Y           -0.01572   0.99980   0.01217
           Z            0.01661  -0.01191   0.99979
 This molecule is an asymmetric top.
 Rotational symmetry number  1.
 Warning -- assumption of classical behavior for rotation
           may cause significant error
 Rotational temperatures (Kelvin)      0.14615     0.06685     0.05844
 Rotational constants (GHZ):           3.04521     1.39295     1.21765
 Zero-point vibrational energy     416073.4 (Joules/Mol)
                                   99.44393 (Kcal/Mol)
 Warning -- explicit consideration of  11 degrees of freedom as
           vibrations may cause significant error
 Vibrational temperatures:    248.75   294.03   304.76   340.03   429.01
          (Kelvin)            441.37   477.70   573.92   683.01   742.87
                              889.84  1057.78  1157.02  1182.70  1243.24
                             1255.84  1274.15  1336.19  1347.62  1410.92
                             1426.96  1490.97  1524.03  1555.15  1596.91
                             1619.52  1633.46  1675.83  1686.87  1715.26
                             1757.54  1839.55  1873.57  1891.59  1911.04
                             1944.51  2022.84  2092.19  2129.83  2139.17
                             2189.49  4339.98  4361.23  4407.81  4459.05
                             4480.24  4487.84  4504.23  4561.14  4597.75
                             5477.83

 Zero-point correction=                           0.158474 (Hartree/Particle)
 Thermal correction to Energy=                    0.166554
 Thermal correction to Enthalpy=                  0.167498
 Thermal correction to Gibbs Free Energy=         0.126445
 Sum of electronic and zero-point Energies=           -422.960635
 Sum of electronic and thermal Energies=              -422.952555
 Sum of electronic and thermal Enthalpies=            -422.951611
 Sum of electronic and thermal Free Energies=         -422.992664

                     E (Thermal)             CV                S
                      KCal/Mol        Cal/Mol-Kelvin    Cal/Mol-Kelvin
 Total                  104.514             32.260             86.404
 Electronic               0.000              0.000              0.000
 Translational            0.889              2.981             40.409
 Rotational               0.889              2.981             28.522
 Vibrational            102.737             26.298             17.473
 Vibration     1          0.626              1.876              2.404
 Vibration     2          0.640              1.834              2.093
 Vibration     3          0.643              1.823              2.028
 Vibration     4          0.655              1.785              1.830
 Vibration     5          0.691              1.677              1.427
 Vibration     6          0.697              1.661              1.380
 Vibration     7          0.714              1.612              1.250
 Vibration     8          0.765              1.472              0.967
 Vibration     9          0.831              1.306              0.724
 Vibration    10          0.871              1.214              0.619
 Vibration    11          0.978              0.993              0.419

 Normal termination of Gaussian 09 at Tue Jan 28 00:31:45 2020.
