 Gaussian 09, Revision D.01,
 Gaussian 09:  ES64L-G09RevD.01 24-Apr-2013

 -----------------------------
 # b3lyp 6-31G(2df,p) opt Freq
 -----------------------------

 -----
 titel
 -----
 Symbolic Z-matrix:
 Charge =  0 Multiplicity = 1

 SCF Done:  E(RB3LYP) =  -423.240552307     A.U. after   14 cycles
 Optimization completed.
    -- Stationary point found.
 Normal termination of Gaussian 09 at Tue Jan 28 08:11:04 2020.

 ----------------------------------------------------------------------
 #N Geom=AllCheck Guess=TCheck SCRF=Check GenChk RB3LYP/6-31G(2df,p) Fr
 eq
 ----------------------------------------------------------------------

 Structure from the checkpoint file:  "/scratch/puck/g09_e522404b-719c-41aa-a841-0f716bba27e3/Gau-74152.chk"
 -----
 titel
 -----
 Charge =  0 Multiplicity = 1

                         Standard orientation:
 ---------------------------------------------------------------------
 Center     Atomic      Atomic             Coordinates (Angstroms)
 Number     Number       Type             X           Y           Z
 ---------------------------------------------------------------------
      1          6           0       -2.662368   -0.453699    0.307033
      2          6           0       -1.347773   -0.431347   -0.485303
      3          6           0       -0.925120    0.998635   -0.908939
      4          6           0       -0.173204    1.572781    0.312573
      5          6           0        0.552708    0.356587    0.914695
      6          6           0       -0.182417   -0.900376    0.385640
      7          8           0        1.006534   -1.256810   -0.409181
      8          6           0        1.707841   -0.174516    0.061295
      9          8           0        2.825854    0.134800   -0.200010
     10          1           0       -3.488164   -0.081709   -0.306484
     11          1           0       -2.913632   -1.469657    0.628701
     12          1           0       -2.608875    0.172712    1.204399
     13          1           0       -1.444809   -1.088855   -1.355108
     14          1           0       -0.249866    0.944460   -1.768728
     15          1           0       -1.778198    1.614162   -1.206280
     16          1           0        0.519363    2.375918    0.048185
     17          1           0       -0.874970    1.976914    1.049268
     18          1           0        0.777472    0.433616    1.978450
     19          1           0       -0.415422   -1.709875    1.079158
 ---------------------------------------------------------------------

 SCF Done:  E(RB3LYP) =  -423.240552307     A.U. after    1 cycles

 The electronic state is 1-A.
 Alpha  occ. eigenvalues --  -19.17561 -19.13039 -10.30261 -10.25019 -10.20896
 Alpha  occ. eigenvalues --  -10.20188 -10.20031 -10.19224 -10.19033  -1.10073
 Alpha  occ. eigenvalues --   -1.02799  -0.84948  -0.76945  -0.72082  -0.68093
 Alpha  occ. eigenvalues --   -0.62814  -0.57124  -0.52792  -0.51815  -0.50558
 Alpha  occ. eigenvalues --   -0.47180  -0.45350  -0.42108  -0.41879  -0.41430
 Alpha  occ. eigenvalues --   -0.40515  -0.37344  -0.35793  -0.35187  -0.34093
 Alpha  occ. eigenvalues --   -0.33787  -0.33099  -0.29404  -0.26750
 Alpha virt. eigenvalues --    0.01194   0.07095   0.08666   0.10745   0.11975
 Alpha virt. eigenvalues --    0.12844   0.13659   0.13694   0.15253   0.16774
 Alpha virt. eigenvalues --    0.17512   0.18054   0.18626   0.21161   0.21480

 Mulliken charges:
               1
     1  C   -0.406267
     2  C    0.000086
     3  C   -0.236780
     4  C   -0.228781
     5  C   -0.219504
     6  C    0.124075
     7  O   -0.265537
     8  C    0.447540
     9  O   -0.329251
    10  H    0.123569
    11  H    0.121087
    12  H    0.119780
    13  H    0.092568
    14  H    0.122770
    15  H    0.101123
    16  H    0.125127
    17  H    0.110476
    18  H    0.106515
    19  H    0.091403
 Sum of Mulliken charges =   0.00000

 Dipole moment (field-independent basis, Debye):
    X=             -3.9685    Y=              0.6270    Z=              1.4142  Tot=              4.2593
 Quadrupole moment (field-independent basis, Debye-Ang):
   XX=            -62.5886   YY=            -52.8752   ZZ=            -51.3456
   XY=              0.7751   XZ=              2.4493   YZ=             -1.3080

  Exact polarizability:  87.360   3.744  70.199  -0.917  -0.247  64.190
 Approx polarizability: 122.387   7.482 105.626  -3.998   1.890  98.572

                      1                      2                      3
                      A                      A                      A
 Frequencies --     98.2615               142.4652               206.1455
 Red. masses --      5.1198                 3.5007                 1.1625
 Frc consts  --      0.0291                 0.0419                 0.0291
 IR Inten    --      1.3000                 2.0689                 0.1209

                      4                      5                      6
                      A                      A                      A
 Frequencies --    255.1307               258.8386               327.1073
 Red. masses --      2.3427                 2.7545                 2.4589
 Frc consts  --      0.0898                 0.1087                 0.1550
 IR Inten    --      1.5599                 1.1620                 0.5461

                      7                      8                      9
                      A                      A                      A
 Frequencies --    433.3486               485.8092               582.8870
 Red. masses --      2.9728                 5.6572                 2.5268
 Frc consts  --      0.3289                 0.7866                 0.5058
 IR Inten    --      1.7189                 3.4072                 1.5653

                     10                     11                     12
                      A                      A                      A
 Frequencies --    671.4246               717.8190               778.2145
 Red. masses --      3.3026                 4.1470                 3.4099
 Frc consts  --      0.8772                 1.2590                 1.2167
 IR Inten    --      2.3099                 4.4743                 5.2546

                     13                     14                     15
                      A                      A                      A
 Frequencies --    813.5802               850.8765               864.3283
 Red. masses --      3.0719                 2.3629                 3.0504
 Frc consts  --      1.1980                 1.0079                 1.3426
 IR Inten    --      1.8550                 0.9304                 9.8778

                     16                     17                     18
                      A                      A                      A
 Frequencies --    897.8221               922.9233               957.3054
 Red. masses --      2.5143                 2.2799                 3.3504
 Frc consts  --      1.1941                 1.1442                 1.8090
 IR Inten    --      6.4265                15.0309                51.7984

                     19                     20                     21
                      A                      A                      A
 Frequencies --    977.5019               993.7473              1027.7996
 Red. masses --      1.6465                 1.8846                 1.8836
 Frc consts  --      0.9270                 1.0965                 1.1723
 IR Inten    --      1.9717                37.5671                 2.1213

                     22                     23                     24
                      A                      A                      A
 Frequencies --   1054.9527              1102.3659              1111.4866
 Red. masses --      1.6086                 1.6290                 1.4494
 Frc consts  --      1.0548                 1.1663                 1.0550
 IR Inten    --      7.0270                13.5167                 4.2673

                     25                     26                     27
                      A                      A                      A
 Frequencies --   1130.6971              1176.8748              1194.5357
 Red. masses --      2.6250                 1.6582                 1.7095
 Frc consts  --      1.9773                 1.3532                 1.4372
 IR Inten    --     75.2129                 3.1645                 2.6093

                     28                     29                     30
                      A                      A                      A
 Frequencies --   1231.8485              1262.6641              1289.4266
 Red. masses --      2.0412                 1.7252                 1.4984
 Frc consts  --      1.8250                 1.6206                 1.4679
 IR Inten    --      4.9385                 6.5265                 7.0676

                     31                     32                     33
                      A                      A                      A
 Frequencies --   1307.4946              1318.2310              1341.7324
 Red. masses --      1.2780                 1.3794                 1.4313
 Frc consts  --      1.2873                 1.4123                 1.5181
 IR Inten    --      6.7730                 0.7344                 8.9141

                     34                     35                     36
                      A                      A                      A
 Frequencies --   1362.3780              1374.0950              1409.5884
 Red. masses --      1.5285                 1.6042                 1.2299
 Frc consts  --      1.6715                 1.7846                 1.4398
 IR Inten    --      4.5724                 5.9118                 4.5605

                     37                     38                     39
                      A                      A                      A
 Frequencies --   1485.3017              1496.2433              1501.8158
 Red. masses --      1.0729                 1.0673                 1.0559
 Frc consts  --      1.3946                 1.4077                 1.4032
 IR Inten    --      0.9392                 7.7983                 7.2991

                     40                     41                     42
                      A                      A                      A
 Frequencies --   1502.6985              1932.7109              3032.2168
 Red. masses --      1.0772                12.8104                 1.0363
 Frc consts  --      1.4331                28.1932                 5.6139
 IR Inten    --      1.0935               441.6976                17.0179

                     43                     44                     45
                      A                      A                      A
 Frequencies --   3052.4516              3054.3249              3063.7760
 Red. masses --      1.0702                 1.0624                 1.0778
 Frc consts  --      5.8748                 5.8394                 5.9610
 IR Inten    --     15.5894                15.2913                17.4214

                     46                     47                     48
                      A                      A                      A
 Frequencies --   3097.4655              3097.9430              3103.7694
 Red. masses --      1.0991                 1.0993                 1.0905
 Frc consts  --      6.2133                 6.2160                 6.1897
 IR Inten    --     10.6624                32.6188                28.3183

                     49                     50                     51
                      A                      A                      A
 Frequencies --   3108.9520              3109.9802              3122.1484
 Red. masses --      1.1033                 1.1015                 1.0888
 Frc consts  --      6.2829                 6.2768                 6.2533
 IR Inten    --     19.4037                30.4793                15.4950

 - Thermochemistry -
 -------------------
 Temperature   298.150 Kelvin.  Pressure   1.00000 Atm.
 Atom     1 has atomic number  6 and mass  12.00000

 Molecular mass:   126.06808 amu.
 Principal axes and moments of inertia in atomic units:
                           1         2         3
     Eigenvalues --   528.465551353.410631561.70488
           X            0.99992   0.01219   0.00214
           Y           -0.01213   0.99956  -0.02703
           Z           -0.00247   0.02700   0.99963
 This molecule is an asymmetric top.
 Rotational symmetry number  1.
 Warning -- assumption of classical behavior for rotation
           may cause significant error
 Rotational temperatures (Kelvin)      0.16390     0.06400     0.05546
 Rotational constants (GHZ):           3.41506     1.33348     1.15562
 Zero-point vibrational energy     422841.1 (Joules/Mol)
                                  101.06144 (Kcal/Mol)
 Warning -- explicit consideration of   9 degrees of freedom as
           vibrations may cause significant error
 Vibrational temperatures:    141.38   204.98   296.60   367.08   372.41
          (Kelvin)            470.63   623.49   698.97   838.64   966.03
                             1032.78  1119.68  1170.56  1224.22  1243.57
                             1291.76  1327.88  1377.35  1406.41  1429.78
                             1478.77  1517.84  1586.06  1599.18  1626.82
                             1693.26  1718.67  1772.35  1816.69  1855.19
                             1881.19  1896.64  1930.45  1960.16  1977.01
                             2028.08  2137.02  2152.76  2160.78  2162.05
                             2780.74  4362.68  4391.79  4394.49  4408.08
                             4456.56  4457.24  4465.63  4473.08  4474.56
                             4492.07

 Zero-point correction=                           0.161052 (Hartree/Particle)
 Thermal correction to Energy=                    0.168879
 Thermal correction to Enthalpy=                  0.169823
 Thermal correction to Gibbs Free Energy=         0.128691
 Sum of electronic and zero-point Energies=           -423.079501
 Sum of electronic and thermal Energies=              -423.071673
 Sum of electronic and thermal Enthalpies=            -423.070729
 Sum of electronic and thermal Free Energies=         -423.111861

                     E (Thermal)             CV                S
                      KCal/Mol        Cal/Mol-Kelvin    Cal/Mol-Kelvin
 Total                  105.973             30.305             86.570
 Electronic               0.000              0.000              0.000
 Translational            0.889              2.981             40.409
 Rotational               0.889              2.981             28.504
 Vibrational            104.196             24.343             17.658
 Vibration     1          0.604              1.950              3.489
 Vibration     2          0.616              1.911              2.771
 Vibration     3          0.641              1.831              2.078
 Vibration     4          0.666              1.754              1.695
 Vibration     5          0.668              1.748              1.670
 Vibration     6          0.711              1.621              1.274
 Vibration     7          0.794              1.398              0.848
 Vibration     8          0.842              1.282              0.695
 Vibration     9          0.940              1.068              0.480

 Optimization completed.
    -- Stationary point found.
 Normal termination of Gaussian 09 at Tue Jan 28 09:00:13 2020.
