 Gaussian 09, Revision D.01,
 Gaussian 09:  ES64L-G09RevD.01 24-Apr-2013

 -----------------------------
 # b3lyp 6-31G(2df,p) opt Freq
 -----------------------------

 -----
 titel
 -----
 Symbolic Z-matrix:
 Charge =  0 Multiplicity = 1

 SCF Done:  E(RB3LYP) =  -423.140844598     A.U. after   14 cycles
 Optimization completed.
    -- Stationary point found.
 Normal termination of Gaussian 09 at Tue Jan 28 09:15:43 2020.

 ----------------------------------------------------------------------
 #N Geom=AllCheck Guess=TCheck SCRF=Check GenChk RB3LYP/6-31G(2df,p) Fr
 eq
 ----------------------------------------------------------------------

 Structure from the checkpoint file:  "/scratch/puck/g09_a033e9b7-96bd-4bbb-a10f-99581528aeaf/Gau-11107.chk"
 -----
 titel
 -----
 Charge =  0 Multiplicity = 1

                         Standard orientation:
 ---------------------------------------------------------------------
 Center     Atomic      Atomic             Coordinates (Angstroms)
 Number     Number       Type             X           Y           Z
 ---------------------------------------------------------------------
      1          6           0       -0.622340    2.244012    0.213689
      2          6           0        0.278542    1.076261    0.017556
      3          6           0        1.538710    0.954141   -0.409935
      4          6           0        1.748573   -0.566278   -0.338445
      5          6           0        1.174040   -0.902648    1.069055
      6          6           0       -0.084839   -0.412268    0.288897
      7          6           0       -1.509131   -0.825600    0.546637
      8          8           0       -2.332573   -0.483411   -0.556804
      9          8           0        0.486431   -1.068339   -0.904900
     10          1           0       -0.900068    2.361019    1.269750
     11          1           0       -0.147775    3.173616   -0.111968
     12          1           0       -1.556416    2.104520   -0.340856
     13          1           0        2.250258    1.702161   -0.728365
     14          1           0        2.644018   -1.023349   -0.756460
     15          1           0        1.148490   -1.975867    1.276200
     16          1           0        1.519514   -0.323088    1.927187
     17          1           0       -1.544795   -1.905134    0.756754
     18          1           0       -1.908592   -0.299480    1.420548
     19          1           0       -1.876827   -0.806124   -1.343870
 ---------------------------------------------------------------------

 SCF Done:  E(RB3LYP) =  -423.140844598     A.U. after    1 cycles

 The electronic state is 1-A.
 Alpha  occ. eigenvalues --  -19.13659 -19.12944 -10.24304 -10.24270 -10.23016
 Alpha  occ. eigenvalues --  -10.19246 -10.19007 -10.18363 -10.17661  -1.04799
 Alpha  occ. eigenvalues --   -1.01483  -0.81291  -0.73913  -0.73556  -0.68187
 Alpha  occ. eigenvalues --   -0.63917  -0.55586  -0.53167  -0.50431  -0.48071
 Alpha  occ. eigenvalues --   -0.46328  -0.44945  -0.42163  -0.41256  -0.40092
 Alpha  occ. eigenvalues --   -0.39017  -0.37870  -0.37124  -0.34260  -0.33167
 Alpha  occ. eigenvalues --   -0.30834  -0.27014  -0.25143  -0.22815
 Alpha virt. eigenvalues --    0.00747   0.07497   0.09837   0.11775   0.12788
 Alpha virt. eigenvalues --    0.13736   0.14238   0.14688   0.16179   0.16947
 Alpha virt. eigenvalues --    0.17368   0.17976   0.18931   0.20118   0.21468

 Mulliken charges:
               1
     1  C   -0.521963
     2  C    0.333411
     3  C   -0.209077
     4  C    0.021589
     5  C   -0.273335
     6  C    0.286495
     7  C   -0.184429
     8  O   -0.418560
     9  O   -0.333773
    10  H    0.126088
    11  H    0.124357
    12  H    0.152695
    13  H    0.104822
    14  H    0.081304
    15  H    0.104305
    16  H    0.097905
    17  H    0.098770
    18  H    0.110646
    19  H    0.298750
 Sum of Mulliken charges =   0.00000

 Dipole moment (field-independent basis, Debye):
    X=              1.4421    Y=              0.5045    Z=              1.2384  Tot=              1.9667
 Quadrupole moment (field-independent basis, Debye-Ang):
   XX=            -54.8449   YY=            -51.6818   ZZ=            -52.2600
   XY=              0.2263   XZ=             -1.0129   YZ=             -1.0047

  Exact polarizability:  84.952  -3.553  78.326  -5.290  -2.052  63.922
 Approx polarizability: 129.799  -5.476 108.525 -10.212   1.392 101.898

                      1                      2                      3
                      A                      A                      A
 Frequencies --    106.1388               151.6506               181.5678
 Red. masses --      3.7834                 3.9699                 1.2971
 Frc consts  --      0.0251                 0.0538                 0.0252
 IR Inten    --      6.5440                 0.3390                 0.1130

                      4                      5                      6
                      A                      A                      A
 Frequencies --    195.7925               244.8505               361.1042
 Red. masses --      1.9620                 2.2231                 2.2004
 Frc consts  --      0.0443                 0.0785                 0.1691
 IR Inten    --      0.5057                 3.0685                 7.9225

                      7                      8                      9
                      A                      A                      A
 Frequencies --    407.0682               433.0824               495.8778
 Red. masses --      1.8743                 1.9125                 2.0924
 Frc consts  --      0.1830                 0.2113                 0.3031
 IR Inten    --     52.9351                75.4941                 1.6366

                     10                     11                     12
                      A                      A                      A
 Frequencies --    550.5817               579.8022               655.8663
 Red. masses --      3.3441                 3.7848                 4.3236
 Frc consts  --      0.5973                 0.7496                 1.0958
 IR Inten    --      2.5673                 6.9311                 4.6452

                     13                     14                     15
                      A                      A                      A
 Frequencies --    683.8247               763.1629               776.8284
 Red. masses --      3.5594                 3.4876                 1.5912
 Frc consts  --      0.9807                 1.1968                 0.5658
 IR Inten    --     14.0452                11.1077                10.6211

                     16                     17                     18
                      A                      A                      A
 Frequencies --    839.3431               897.5725               903.5026
 Red. masses --      2.9001                 4.0553                 2.3924
 Frc consts  --      1.2037                 1.9249                 1.1507
 IR Inten    --     25.7981                25.6843                10.0933

                     19                     20                     21
                      A                      A                      A
 Frequencies --    935.4906               984.7195              1007.1990
 Red. masses --      2.9045                 2.5838                 1.6092
 Frc consts  --      1.4976                 1.4761                 0.9618
 IR Inten    --     33.5462                 1.2693                 2.5433

                     22                     23                     24
                      A                      A                      A
 Frequencies --   1023.2149              1051.1501              1063.4542
 Red. masses --      1.7082                 1.7541                 2.6249
 Frc consts  --      1.0537                 1.1419                 1.7490
 IR Inten    --      3.3661                38.2303                48.8778

                     25                     26                     27
                      A                      A                      A
 Frequencies --   1071.3478              1131.3319              1160.9074
 Red. masses --      1.6076                 1.6194                 2.0614
 Frc consts  --      1.0872                 1.2212                 1.6368
 IR Inten    --      1.7032                 0.6057                 0.7767

                     28                     29                     30
                      A                      A                      A
 Frequencies --   1208.2463              1230.3320              1236.0191
 Red. masses --      1.5950                 1.4131                 1.4803
 Frc consts  --      1.3719                 1.2603                 1.3324
 IR Inten    --     19.3103                 9.5398                 1.3190

                     31                     32                     33
                      A                      A                      A
 Frequencies --   1258.9896              1289.1156              1329.2463
 Red. masses --      1.6155                 1.6771                 2.9994
 Frc consts  --      1.5087                 1.6421                 3.1225
 IR Inten    --      4.0984                 9.4671                21.2865

                     34                     35                     36
                      A                      A                      A
 Frequencies --   1373.5954              1409.2182              1439.4978
 Red. masses --      1.3014                 1.2617                 1.3830
 Frc consts  --      1.4467                 1.4762                 1.6885
 IR Inten    --      8.3289                 1.9914                53.2336

                     37                     38                     39
                      A                      A                      A
 Frequencies --   1474.4889              1487.2138              1490.6229
 Red. masses --      1.0462                 1.1677                 1.0664
 Frc consts  --      1.3401                 1.5217                 1.3961
 IR Inten    --      5.4583                 1.1447                 9.5832

                     40                     41                     42
                      A                      A                      A
 Frequencies --   1499.4996              1688.6416              2994.2856
 Red. masses --      1.0875                 7.3497                 1.0680
 Frc consts  --      1.4407                12.3480                 5.6419
 IR Inten    --      0.7124                 7.6957                48.8850

                     43                     44                     45
                      A                      A                      A
 Frequencies --   3018.5194              3059.8979              3072.1957
 Red. masses --      1.0423                 1.0557                 1.0943
 Frc consts  --      5.5953                 5.8237                 6.0851
 IR Inten    --     22.5447                39.4628                21.4631

                     46                     47                     48
                      A                      A                      A
 Frequencies --   3075.8642              3116.0538              3133.1658
 Red. masses --      1.0909                 1.1019                 1.1106
 Frc consts  --      6.0812                 6.3039                 6.4236
 IR Inten    --     13.5162                13.5279                27.7509

                     49                     50                     51
                      A                      A                      A
 Frequencies --   3138.1060              3236.6749              3789.5753
 Red. masses --      1.0923                 1.0986                 1.0659
 Frc consts  --      6.3374                 6.7812                 9.0185
 IR Inten    --     49.3431                 6.4217                28.1232

 - Thermochemistry -
 -------------------
 Temperature   298.150 Kelvin.  Pressure   1.00000 Atm.
 Atom     1 has atomic number  6 and mass  12.00000

 Molecular mass:   126.06808 amu.
 Principal axes and moments of inertia in atomic units:
                           1         2         3
     Eigenvalues --   773.025951025.217001420.87754
           X            0.99936  -0.03526  -0.00630
           Y            0.03512   0.99916  -0.02119
           Z            0.00704   0.02095   0.99976
 This molecule is an asymmetric top.
 Rotational symmetry number  1.
 Warning -- assumption of classical behavior for rotation
           may cause significant error
 Rotational temperatures (Kelvin)      0.11205     0.08448     0.06096
 Rotational constants (GHZ):           2.33465     1.76035     1.27016
 Zero-point vibrational energy     416931.5 (Joules/Mol)
                                   99.64901 (Kcal/Mol)
 Warning -- explicit consideration of  11 degrees of freedom as
           vibrations may cause significant error
 Vibrational temperatures:    152.71   218.19   261.24   281.70   352.28
          (Kelvin)            519.55   585.68   623.11   713.46   792.16
                              834.21   943.64   983.87  1098.02  1117.68
                             1207.63  1291.40  1299.94  1345.96  1416.79
                             1449.13  1472.18  1512.37  1530.07  1541.43
                             1627.73  1670.28  1738.39  1770.17  1778.35
                             1811.40  1854.75  1912.49  1976.29  2027.55
                             2071.11  2121.46  2139.77  2144.67  2157.44
                             2429.58  4308.10  4342.97  4402.51  4420.20
                             4425.48  4483.30  4507.92  4515.03  4656.85
                             5452.35

 Zero-point correction=                           0.158801 (Hartree/Particle)
 Thermal correction to Energy=                    0.167177
 Thermal correction to Enthalpy=                  0.168121
 Thermal correction to Gibbs Free Energy=         0.126121
 Sum of electronic and zero-point Energies=           -422.982044
 Sum of electronic and thermal Energies=              -422.973667
 Sum of electronic and thermal Enthalpies=            -422.972723
 Sum of electronic and thermal Free Energies=         -423.014723

                     E (Thermal)             CV                S
                      KCal/Mol        Cal/Mol-Kelvin    Cal/Mol-Kelvin
 Total                  104.905             32.619             88.397
 Electronic               0.000              0.000              0.000
 Translational            0.889              2.981             40.409
 Rotational               0.889              2.981             28.512
 Vibrational            103.128             26.657             19.477
 Vibration     1          0.605              1.944              3.338
 Vibration     2          0.619              1.901              2.651
 Vibration     3          0.630              1.865              2.312
 Vibration     4          0.636              1.846              2.172
 Vibration     5          0.660              1.771              1.767
 Vibration     6          0.735              1.552              1.117
 Vibration     7          0.772              1.455              0.937
 Vibration     8          0.794              1.398              0.849
 Vibration     9          0.851              1.259              0.669
 Vibration    10          0.906              1.138              0.543
 Vibration    11          0.936              1.075              0.486

 Optimization completed.
    -- Stationary point found.
 Normal termination of Gaussian 09 at Tue Jan 28 10:02:43 2020.
