 Gaussian 09, Revision D.01,
 Gaussian 09:  ES64L-G09RevD.01 24-Apr-2013

 -----------------------------
 # b3lyp 6-31G(2df,p) opt Freq
 -----------------------------

 -----
 titel
 -----
 Symbolic Z-matrix:
 Charge =  0 Multiplicity = 1

 SCF Done:  E(RB3LYP) =  -423.222294624     A.U. after   14 cycles
 Optimization completed.
    -- Stationary point found.
 Normal termination of Gaussian 09 at Tue Jan 28 12:40:19 2020.

 ----------------------------------------------------------------------
 #N Geom=AllCheck Guess=TCheck SCRF=Check GenChk RB3LYP/6-31G(2df,p) Fr
 eq
 ----------------------------------------------------------------------

 Structure from the checkpoint file:  "/scratch/puck/g09_fef77637-c040-4230-a8ae-d4e73f769251/Gau-106700.chk"
 -----
 titel
 -----
 Charge =  0 Multiplicity = 1

                         Standard orientation:
 ---------------------------------------------------------------------
 Center     Atomic      Atomic             Coordinates (Angstroms)
 Number     Number       Type             X           Y           Z
 ---------------------------------------------------------------------
      1          6           0       -2.175527   -1.585204   -0.126940
      2          6           0       -1.344865   -0.341291   -0.074609
      3          6           0       -1.775788    0.891819    0.215012
      4          6           0       -0.692629    1.933653    0.154265
      5          6           0        0.554164    1.100316   -0.149737
      6          8           0        1.696140    1.499916   -0.137629
      7          6           0        0.135138   -0.354325   -0.395297
      8          6           0        1.025145   -1.312344    0.430201
      9          8           0        2.364049   -1.275579   -0.001436
     10          1           0       -2.114013   -2.059629   -1.114581
     11          1           0       -1.831897   -2.332379    0.598657
     12          1           0       -3.226649   -1.370174    0.083348
     13          1           0       -2.804985    1.136371    0.454667
     14          1           0       -0.845299    2.679842   -0.638337
     15          1           0       -0.550622    2.503088    1.081192
     16          1           0        0.316112   -0.601276   -1.452653
     17          1           0        0.927105   -1.062205    1.500378
     18          1           0        0.675613   -2.342462    0.304233
     19          1           0        2.619310   -0.341606   -0.021754
 ---------------------------------------------------------------------

 SCF Done:  E(RB3LYP) =  -423.222294624     A.U. after    1 cycles

 The electronic state is 1-A.
 Alpha  occ. eigenvalues --  -19.14708 -19.12269 -10.28045 -10.23238 -10.20220
 Alpha  occ. eigenvalues --  -10.20182 -10.19962 -10.19337 -10.19142  -1.05658
 Alpha  occ. eigenvalues --   -1.00779  -0.85978  -0.75873  -0.74145  -0.66514
 Alpha  occ. eigenvalues --   -0.64510  -0.54525  -0.54167  -0.50988  -0.47943
 Alpha  occ. eigenvalues --   -0.45603  -0.44600  -0.43202  -0.42399  -0.40944
 Alpha  occ. eigenvalues --   -0.40515  -0.39241  -0.38041  -0.37021  -0.36278
 Alpha  occ. eigenvalues --   -0.32380  -0.26575  -0.25245  -0.24593
 Alpha virt. eigenvalues --   -0.02969   0.00956   0.08912   0.10973   0.11929
 Alpha virt. eigenvalues --    0.12814   0.13788   0.15012   0.15953   0.16438
 Alpha virt. eigenvalues --    0.16759   0.18358   0.19397   0.21814   0.23399

 Mulliken charges:
               1
     1  C   -0.495196
     2  C    0.316333
     3  C   -0.181519
     4  C   -0.368071
     5  C    0.401478
     6  O   -0.331601
     7  C   -0.232024
     8  C   -0.061183
     9  O   -0.424531
    10  H    0.131188
    11  H    0.135951
    12  H    0.127150
    13  H    0.097055
    14  H    0.139427
    15  H    0.139440
    16  H    0.114436
    17  H    0.086958
    18  H    0.107753
    19  H    0.296956
 Sum of Mulliken charges =   0.00000

 Dipole moment (field-independent basis, Debye):
    X=             -3.5627    Y=              0.2984    Z=              0.1215  Tot=              3.5772
 Quadrupole moment (field-independent basis, Debye-Ang):
   XX=            -58.8124   YY=            -53.6508   ZZ=            -52.2987
   XY=              0.8828   XZ=              0.4055   YZ=              0.2543

  Exact polarizability:  85.401  -0.946  91.675  -2.376   3.601  56.068
 Approx polarizability: 121.531  -3.907 136.409  -5.141   8.216  88.873

                      1                      2                      3
                      A                      A                      A
 Frequencies --     57.1319               145.8060               173.7902
 Red. masses --      4.4451                 2.6395                 1.4194
 Frc consts  --      0.0085                 0.0331                 0.0253
 IR Inten    --      0.7748                 4.0064                 1.2318

                      4                      5                      6
                      A                      A                      A
 Frequencies --    186.3680               244.6428               251.7212
 Red. masses --      2.4310                 1.8870                 3.2462
 Frc consts  --      0.0497                 0.0665                 0.1212
 IR Inten    --      2.3811                 3.2632                 1.3359

                      7                      8                      9
                      A                      A                      A
 Frequencies --    286.1168               400.8263               484.4024
 Red. masses --      3.0303                 5.2755                 2.8541
 Frc consts  --      0.1462                 0.4994                 0.3946
 IR Inten    --      1.7045                 2.6743                 8.0227

                     10                     11                     12
                      A                      A                      A
 Frequencies --    515.2102               544.0055               558.7856
 Red. masses --      3.7155                 2.5542                 1.2897
 Frc consts  --      0.5811                 0.4454                 0.2373
 IR Inten    --      6.7605                21.8823                95.3752

                     13                     14                     15
                      A                      A                      A
 Frequencies --    615.7426               682.6299               758.2707
 Red. masses --      2.7119                 5.7662                 2.8162
 Frc consts  --      0.6058                 1.5831                 0.9540
 IR Inten    --      4.1081                 2.5017                 3.2025

                     16                     17                     18
                      A                      A                      A
 Frequencies --    811.8097               912.8646               930.8933
 Red. masses --      1.2284                 2.2594                 1.9198
 Frc consts  --      0.4770                 1.1093                 0.9802
 IR Inten    --     15.1314                 5.1337                 1.9848

                     19                     20                     21
                      A                      A                      A
 Frequencies --    973.5649               987.7975              1036.5338
 Red. masses --      1.6423                 2.5005                 1.6162
 Frc consts  --      0.9171                 1.4375                 1.0231
 IR Inten    --      0.8663                20.4161                 1.4288

                     22                     23                     24
                      A                      A                      A
 Frequencies --   1047.9374              1073.8146              1094.0031
 Red. masses --      1.8986                 1.9262                 4.1415
 Frc consts  --      1.2284                 1.3086                 2.9204
 IR Inten    --      2.6765                13.2640               102.0782

                     25                     26                     27
                      A                      A                      A
 Frequencies --   1140.7201              1151.6955              1195.6570
 Red. masses --      1.5386                 2.2274                 1.8762
 Frc consts  --      1.1796                 1.7407                 1.5803
 IR Inten    --     11.7044                32.9458                 4.5430

                     28                     29                     30
                      A                      A                      A
 Frequencies --   1204.6022              1258.4726              1288.2592
 Red. masses --      1.2364                 1.6228                 1.6597
 Frc consts  --      1.0571                 1.5143                 1.6229
 IR Inten    --     12.3114                 2.6593                 4.6878

                     31                     32                     33
                      A                      A                      A
 Frequencies --   1306.6486              1344.0732              1378.9811
 Red. masses --      1.5849                 2.2401                 1.2816
 Frc consts  --      1.5943                 2.3843                 1.4359
 IR Inten    --     41.5012                 1.8254                 0.6470

                     34                     35                     36
                      A                      A                      A
 Frequencies --   1416.9849              1443.9837              1460.8286
 Red. masses --      1.2941                 1.0894                 1.1890
 Frc consts  --      1.5309                 1.3384                 1.4950
 IR Inten    --      1.3977                 3.9784                94.8449

                     37                     38                     39
                      A                      A                      A
 Frequencies --   1479.7455              1488.6223              1514.4557
 Red. masses --      1.0515                 1.0632                 1.0873
 Frc consts  --      1.3565                 1.3881                 1.4694
 IR Inten    --      7.1075                14.3674                 0.2854

                     40                     41                     42
                      A                      A                      A
 Frequencies --   1710.4468              1819.3858              2958.2563
 Red. masses --      7.0684                12.1985                 1.0709
 Frc consts  --     12.1839                23.7906                 5.5218
 IR Inten    --      5.5414               180.5829                47.4102

                     43                     44                     45
                      A                      A                      A
 Frequencies --   2998.9124              3017.4244              3021.3766
 Red. masses --      1.0801                 1.0648                 1.0382
 Frc consts  --      5.7232                 5.7119                 5.5838
 IR Inten    --     18.3311                17.0414                19.4667

                     46                     47                     48
                      A                      A                      A
 Frequencies --   3052.9913              3064.7531              3070.7156
 Red. masses --      1.0949                 1.0933                 1.0963
 Frc consts  --      6.0126                 6.0503                 6.0905
 IR Inten    --      8.3136                34.1047                18.6325

                     49                     50                     51
                      A                      A                      A
 Frequencies --   3112.4563              3189.1303              3720.3406
 Red. masses --      1.0996                 1.0933                 1.0658
 Frc consts  --      6.2760                 6.5515                 8.6914
 IR Inten    --     18.7338                13.0948                76.2352

 - Thermochemistry -
 -------------------
 Temperature   298.150 Kelvin.  Pressure   1.00000 Atm.
 Atom     1 has atomic number  6 and mass  12.00000

 Molecular mass:   126.06808 amu.
 Principal axes and moments of inertia in atomic units:
                           1         2         3
     Eigenvalues --   827.783281153.743391883.92912
           X            0.99955   0.03004   0.00237
           Y           -0.03005   0.99954   0.00414
           Z           -0.00225  -0.00421   0.99999
 This molecule is an asymmetric top.
 Rotational symmetry number  1.
 Warning -- assumption of classical behavior for rotation
           may cause significant error
 Rotational temperatures (Kelvin)      0.10463     0.07507     0.04598
 Rotational constants (GHZ):           2.18021     1.56425     0.95797
 Zero-point vibrational energy     416208.3 (Joules/Mol)
                                   99.47616 (Kcal/Mol)
 Warning -- explicit consideration of  13 degrees of freedom as
           vibrations may cause significant error
 Vibrational temperatures:     82.20   209.78   250.04   268.14   351.99
          (Kelvin)            362.17   411.66   576.70   696.95   741.27
                              782.70   803.97   885.92   982.15  1090.98
                             1168.01  1313.41  1339.35  1400.74  1421.22
                             1491.34  1507.75  1544.98  1574.02  1641.24
                             1657.03  1720.28  1733.15  1810.66  1853.52
                             1879.97  1933.82  1984.04  2038.72  2077.57
                             2101.80  2129.02  2141.79  2178.96  2460.95
                             2617.69  4256.27  4314.76  4341.40  4347.08
                             4392.57  4409.49  4418.07  4478.12  4588.44
                             5352.73

 Zero-point correction=                           0.158525 (Hartree/Particle)
 Thermal correction to Energy=                    0.167463
 Thermal correction to Enthalpy=                  0.168407
 Thermal correction to Gibbs Free Energy=         0.124687
 Sum of electronic and zero-point Energies=           -423.063769
 Sum of electronic and thermal Energies=              -423.054831
 Sum of electronic and thermal Enthalpies=            -423.053887
 Sum of electronic and thermal Free Energies=         -423.097608

                     E (Thermal)             CV                S
                      KCal/Mol        Cal/Mol-Kelvin    Cal/Mol-Kelvin
 Total                  105.085             33.431             92.018
 Electronic               0.000              0.000              0.000
 Translational            0.889              2.981             40.409
 Rotational               0.889              2.981             28.977
 Vibrational            103.307             27.470             22.632
 Vibration     1          0.596              1.975              4.554
 Vibration     2          0.617              1.907              2.726
 Vibration     3          0.627              1.875              2.394
 Vibration     4          0.632              1.859              2.264
 Vibration     5          0.660              1.772              1.769
 Vibration     6          0.664              1.760              1.718
 Vibration     7          0.684              1.699              1.497
 Vibration     8          0.767              1.468              0.960
 Vibration     9          0.841              1.285              0.698
 Vibration    10          0.870              1.216              0.621
 Vibration    11          0.899              1.153              0.557
 Vibration    12          0.914              1.121              0.526
 Vibration    13          0.975              0.999              0.423

 Normal termination of Gaussian 09 at Tue Jan 28 13:21:36 2020.
