 Gaussian 09, Revision D.01,
 Gaussian 09:  ES64L-G09RevD.01 24-Apr-2013

 -----------------------------
 # b3lyp 6-31G(2df,p) opt Freq
 -----------------------------

 -----
 titel
 -----
 Symbolic Z-matrix:
 Charge =  0 Multiplicity = 1

 SCF Done:  E(RB3LYP) =  -423.129910231     A.U. after   14 cycles
 Optimization completed.
    -- Stationary point found.
 Normal termination of Gaussian 09 at Mon Jan 27 22:15:06 2020.

 ----------------------------------------------------------------------
 #N Geom=AllCheck Guess=TCheck SCRF=Check GenChk RB3LYP/6-31G(2df,p) Fr
 eq
 ----------------------------------------------------------------------

 Structure from the checkpoint file:  "/scratch/puck/g09_099a764f-ea8f-4b1b-84a3-967291a6cbb0/Gau-29077.chk"
 -----
 titel
 -----
 Charge =  0 Multiplicity = 1

                         Standard orientation:
 ---------------------------------------------------------------------
 Center     Atomic      Atomic             Coordinates (Angstroms)
 Number     Number       Type             X           Y           Z
 ---------------------------------------------------------------------
      1          6           0       -3.096077    0.425550    0.000024
      2          6           0       -1.585800    0.545472   -0.000093
      3          6           0       -0.799934   -0.495745    0.763735
      4          6           0       -0.799887   -0.495850   -0.763769
      5          6           0        0.706648   -0.319325   -0.981321
      6          8           0        1.275514   -1.278659    0.000092
      7          6           0        0.706592   -0.319205    0.981352
      8          6           0        1.173166    0.792556   -0.000038
      9          8           0        2.554184    1.014207   -0.000015
     10          1           0       -3.527621    0.902487    0.886283
     11          1           0       -3.527999    0.905200   -0.884574
     12          1           0       -3.410420   -0.623405   -0.001499
     13          1           0       -1.239059    1.572730   -0.000185
     14          1           0       -1.327441   -1.246909    1.340575
     15          1           0       -1.327366   -1.247066   -1.340563
     16          1           0        1.120110   -0.427390   -1.983915
     17          1           0        1.119993   -0.427147    1.983984
     18          1           0        0.699692    1.772942   -0.000110
     19          1           0        2.954285    0.133451    0.000052
 ---------------------------------------------------------------------

 SCF Done:  E(RB3LYP) =  -423.129910231     A.U. after    1 cycles

 The electronic state is 1-A.
 Alpha  occ. eigenvalues --  -19.13643 -19.13528 -10.23928 -10.23926 -10.23769
 Alpha  occ. eigenvalues --  -10.20504 -10.19506 -10.19483 -10.18560  -1.05918
 Alpha  occ. eigenvalues --   -1.00458  -0.87397  -0.74253  -0.70256  -0.69956
 Alpha  occ. eigenvalues --   -0.60692  -0.56292  -0.56118  -0.52898  -0.50985
 Alpha  occ. eigenvalues --   -0.45445  -0.44541  -0.42765  -0.41596  -0.40601
 Alpha  occ. eigenvalues --   -0.37496  -0.37342  -0.36215  -0.35559  -0.32926
 Alpha  occ. eigenvalues --   -0.29809  -0.26905  -0.25547  -0.25184
 Alpha virt. eigenvalues --    0.08152   0.08905   0.09360   0.10728   0.11444
 Alpha virt. eigenvalues --    0.12720   0.13613   0.15163   0.15926   0.17232
 Alpha virt. eigenvalues --    0.17667   0.17920   0.18423   0.21478   0.21752

 Mulliken charges:
               1
     1  C   -0.428442
     2  C   -0.033531
     3  C   -0.050217
     4  C   -0.050270
     5  C   -0.000756
     6  O   -0.334673
     7  C   -0.000768
     8  C    0.177640
     9  O   -0.461970
    10  H    0.122783
    11  H    0.122773
    12  H    0.118534
    13  H    0.092821
    14  H    0.096121
    15  H    0.096128
    16  H    0.082619
    17  H    0.082620
    18  H    0.083857
    19  H    0.284731
 Sum of Mulliken charges =   0.00000

 Dipole moment (field-independent basis, Debye):
    X=             -2.0054    Y=              0.0177    Z=              0.0000  Tot=              2.0055
 Quadrupole moment (field-independent basis, Debye-Ang):
   XX=            -54.4166   YY=            -56.4756   ZZ=            -50.6691
   XY=             -2.0378   XZ=              0.0000   YZ=              0.0002

  Exact polarizability:  89.517  -1.907  65.033  -0.001   0.000  68.215
 Approx polarizability: 115.031  -4.913 105.399  -0.002   0.001 109.288

                      1                      2                      3
                      A                      A                      A
 Frequencies --    191.0702               205.3374               238.5008
 Red. masses --      3.6866                 1.0708                 2.6923
 Frc consts  --      0.0793                 0.0266                 0.0902
 IR Inten    --      0.9697                 0.0128                 0.1656

                      4                      5                      6
                      A                      A                      A
 Frequencies --    299.6990               324.8808               356.2228
 Red. masses --      4.2587                 2.4997                 3.6969
 Frc consts  --      0.2254                 0.1554                 0.2764
 IR Inten    --     10.5190                 0.0020                 0.3552

                      7                      8                      9
                      A                      A                      A
 Frequencies --    403.2833               547.2575               564.0621
 Red. masses --      4.1020                 6.6914                 1.1100
 Frc consts  --      0.3931                 1.1807                 0.2081
 IR Inten    --      2.9196                 6.6966                73.7097

                     10                     11                     12
                      A                      A                      A
 Frequencies --    620.2420               681.5770               806.5789
 Red. masses --      3.6792                 4.9867                 3.1167
 Frc consts  --      0.8339                 1.3649                 1.1947
 IR Inten    --      4.6780                 0.0972                23.2924

                     13                     14                     15
                      A                      A                      A
 Frequencies --    819.9432               832.1959               838.4797
 Red. masses --      3.0110                 4.2479                 2.8388
 Frc consts  --      1.1927                 1.7333                 1.1759
 IR Inten    --     12.8352                19.9175                21.6244

                     16                     17                     18
                      A                      A                      A
 Frequencies --    848.8639               915.2296               930.9433
 Red. masses --      1.3819                 2.1880                 4.0241
 Frc consts  --      0.5867                 1.0799                 2.0548
 IR Inten    --      5.8954                 0.8353                62.4130

                     19                     20                     21
                      A                      A                      A
 Frequencies --    968.5868               986.2391              1001.0761
 Red. masses --      1.7649                 1.9761                 2.4603
 Frc consts  --      0.9755                 1.1325                 1.4527
 IR Inten    --      0.0815                 4.0449                 6.9792

                     22                     23                     24
                      A                      A                      A
 Frequencies --   1038.3040              1051.1957              1085.0956
 Red. masses --      1.3360                 2.4726                 1.2926
 Frc consts  --      0.8486                 1.6098                 0.8967
 IR Inten    --      1.5996                 3.6184                 6.4977

                     25                     26                     27
                      A                      A                      A
 Frequencies --   1100.4924              1136.5554              1139.3723
 Red. masses --      3.1062                 1.5500                 2.5699
 Frc consts  --      2.2164                 1.1797                 1.9656
 IR Inten    --     44.7400                 0.5858                92.1094

                     28                     29                     30
                      A                      A                      A
 Frequencies --   1173.6794              1205.9205              1208.3216
 Red. masses --      1.4967                 1.4487                 1.7545
 Frc consts  --      1.2147                 1.2412                 1.5093
 IR Inten    --      0.9909                 0.5887                 3.3021

                     31                     32                     33
                      A                      A                      A
 Frequencies --   1246.4358              1252.6656              1282.7816
 Red. masses --      1.5162                 1.5298                 1.3661
 Frc consts  --      1.3879                 1.4144                 1.3245
 IR Inten    --      0.0004                38.9602                19.5018

                     34                     35                     36
                      A                      A                      A
 Frequencies --   1298.5499              1304.9939              1329.7188
 Red. masses --      1.5083                 1.4679                 1.6497
 Frc consts  --      1.4985                 1.4728                 1.7186
 IR Inten    --      3.0307                 0.3313                23.0789

                     37                     38                     39
                      A                      A                      A
 Frequencies --   1417.5090              1428.5530              1467.3063
 Red. masses --      1.2441                 2.2847                 1.2737
 Frc consts  --      1.4728                 2.7471                 1.6157
 IR Inten    --      2.4157                 3.9884                64.1272

                     40                     41                     42
                      A                      A                      A
 Frequencies --   1494.4806              1501.0075              3031.3017
 Red. masses --      1.0445                 1.0672                 1.0350
 Frc consts  --      1.3745                 1.4167                 5.6033
 IR Inten    --      2.0569                 3.9058                31.4894

                     43                     44                     45
                      A                      A                      A
 Frequencies --   3098.2768              3099.3578              3120.9668
 Red. masses --      1.1015                 1.1005                 1.0857
 Frc consts  --      6.2299                 6.2287                 6.2307
 IR Inten    --     20.6655                19.3414                24.6749

                     46                     47                     48
                      A                      A                      A
 Frequencies --   3126.1583              3130.7117              3166.4681
 Red. masses --      1.0885                 1.0943                 1.0890
 Frc consts  --      6.2677                 6.3193                 6.4334
 IR Inten    --     52.0043                 7.1827                24.0464

                     49                     50                     51
                      A                      A                      A
 Frequencies --   3170.7518              3179.6713              3753.6906
 Red. masses --      1.0891                 1.0919                 1.0638
 Frc consts  --      6.4512                 6.5042                 8.8312
 IR Inten    --     15.7655                18.9748                27.1388

 - Thermochemistry -
 -------------------
 Temperature   298.150 Kelvin.  Pressure   1.00000 Atm.
 Atom     1 has atomic number  6 and mass  12.00000

 Molecular mass:   126.06808 amu.
 Principal axes and moments of inertia in atomic units:
                           1         2         3
     Eigenvalues --   448.768051510.081841599.96905
           X            0.99997  -0.00766   0.00000
           Y            0.00766   0.99997   0.00001
           Z            0.00000  -0.00001   1.00000
 This molecule is an asymmetric top.
 Rotational symmetry number  1.
 Warning -- assumption of classical behavior for rotation
           may cause significant error
 Rotational temperatures (Kelvin)      0.19300     0.05736     0.05413
 Rotational constants (GHZ):           4.02155     1.19513     1.12799
 Zero-point vibrational energy     421208.5 (Joules/Mol)
                                  100.67125 (Kcal/Mol)
 Warning -- explicit consideration of  10 degrees of freedom as
           vibrations may cause significant error
 Vibrational temperatures:    274.91   295.43   343.15   431.20   467.43
          (Kelvin)            512.52   580.23   787.38   811.56   892.39
                              980.64  1160.49  1179.71  1197.34  1206.38
                             1221.32  1316.81  1339.42  1393.58  1418.98
                             1440.32  1493.89  1512.43  1561.21  1583.36
                             1635.25  1639.30  1688.66  1735.05  1738.50
                             1793.34  1802.30  1845.63  1868.32  1877.59
                             1913.17  2039.48  2055.37  2111.12  2150.22
                             2159.61  4361.36  4457.72  4459.28  4490.37
                             4497.84  4504.39  4555.84  4562.00  4574.83
                             5400.72

 Zero-point correction=                           0.160430 (Hartree/Particle)
 Thermal correction to Energy=                    0.167882
 Thermal correction to Enthalpy=                  0.168826
 Thermal correction to Gibbs Free Energy=         0.128989
 Sum of electronic and zero-point Energies=           -422.969480
 Sum of electronic and thermal Energies=              -422.962028
 Sum of electronic and thermal Enthalpies=            -422.961084
 Sum of electronic and thermal Free Energies=         -423.000921

                     E (Thermal)             CV                S
                      KCal/Mol        Cal/Mol-Kelvin    Cal/Mol-Kelvin
 Total                  105.348             30.724             83.844
 Electronic               0.000              0.000              0.000
 Translational            0.889              2.981             40.409
 Rotational               0.889              2.981             28.474
 Vibrational            103.570             24.763             14.961
 Vibration     1          0.634              1.852              2.217
 Vibration     2          0.640              1.832              2.085
 Vibration     3          0.656              1.782              1.814
 Vibration     4          0.692              1.674              1.419
 Vibration     5          0.709              1.626              1.285
 Vibration     6          0.732              1.562              1.139
 Vibration     7          0.769              1.463              0.951
 Vibration     8          0.902              1.146              0.550
 Vibration     9          0.920              1.109              0.516
 Vibration    10          0.980              0.989              0.416

 Normal termination of Gaussian 09 at Tue Jan 28 00:30:53 2020.
