 Gaussian 09, Revision D.01,
 Gaussian 09:  ES64L-G09RevD.01 24-Apr-2013

 -----------------------------
 # b3lyp 6-31G(2df,p) opt Freq
 -----------------------------

 -----
 titel
 -----
 Symbolic Z-matrix:
 Charge =  0 Multiplicity = 1

 SCF Done:  E(RB3LYP) =  -423.168708012     A.U. after   14 cycles
 Optimization completed.
    -- Stationary point found.
 Normal termination of Gaussian 09 at Tue Jan 28 00:41:55 2020.

 ----------------------------------------------------------------------
 #N Geom=AllCheck Guess=TCheck SCRF=Check GenChk RB3LYP/6-31G(2df,p) Fr
 eq
 ----------------------------------------------------------------------

 Structure from the checkpoint file:  "/scratch/puck/g09_a7e3e739-1516-4d6c-a417-1a5bf71ca0bc/Gau-37525.chk"
 -----
 titel
 -----
 Charge =  0 Multiplicity = 1

                         Standard orientation:
 ---------------------------------------------------------------------
 Center     Atomic      Atomic             Coordinates (Angstroms)
 Number     Number       Type             X           Y           Z
 ---------------------------------------------------------------------
      1          6           0       -1.391276    2.198599   -0.232869
      2          6           0       -1.115713    0.835536    0.383203
      3          6           0       -2.128940   -0.321327    0.109917
      4          6           0       -0.919509   -1.237263   -0.119869
      5          8           0       -0.748432   -2.419740   -0.069107
      6          6           0        0.035989   -0.030049   -0.238503
      7          6           0        1.375578   -0.093816    0.438713
      8          6           0        2.459370    0.844623    0.108457
      9          8           0        2.488627   -0.503326   -0.356195
     10          1           0       -0.549470    2.881995   -0.078399
     11          1           0       -1.560587    2.113991   -1.312498
     12          1           0       -2.280017    2.661265    0.208986
     13          1           0       -0.954779    0.933887    1.462513
     14          1           0       -2.825806   -0.613264    0.898796
     15          1           0       -2.691811   -0.167980   -0.818370
     16          1           0        0.176220    0.221946   -1.297332
     17          1           0        1.368724   -0.525266    1.440919
     18          1           0        2.300197    1.601367   -0.659221
     19          1           0        3.202785    1.098774    0.862734
 ---------------------------------------------------------------------

 SCF Done:  E(RB3LYP) =  -423.168708012     A.U. after    1 cycles

 The electronic state is 1-A.
 Alpha  occ. eigenvalues --  -19.15466 -19.13882 -10.27135 -10.24605 -10.23883
 Alpha  occ. eigenvalues --  -10.21011 -10.20106 -10.19575 -10.19027  -1.07580
 Alpha  occ. eigenvalues --   -1.04763  -0.86079  -0.73498  -0.71909  -0.66448
 Alpha  occ. eigenvalues --   -0.61353  -0.59319  -0.54688  -0.49964  -0.49165
 Alpha  occ. eigenvalues --   -0.45637  -0.44961  -0.44244  -0.42208  -0.41352
 Alpha  occ. eigenvalues --   -0.40469  -0.38017  -0.37476  -0.35064  -0.34031
 Alpha  occ. eigenvalues --   -0.33123  -0.31039  -0.27070  -0.24095
 Alpha virt. eigenvalues --   -0.02083   0.06988   0.09435   0.10422   0.10794
 Alpha virt. eigenvalues --    0.11786   0.13060   0.13638   0.14447   0.15654
 Alpha virt. eigenvalues --    0.16473   0.17416   0.18040   0.19448   0.19992

 Mulliken charges:
               1
     1  C   -0.412530
     2  C    0.007423
     3  C   -0.361078
     4  C    0.382743
     5  O   -0.291009
     6  C   -0.129466
     7  C    0.073012
     8  C   -0.184167
     9  O   -0.226039
    10  H    0.121724
    11  H    0.117492
    12  H    0.123644
    13  H    0.085182
    14  H    0.128645
    15  H    0.128822
    16  H    0.106050
    17  H    0.099746
    18  H    0.112093
    19  H    0.117713
 Sum of Mulliken charges =   0.00000

 Dipole moment (field-independent basis, Debye):
    X=             -1.3249    Y=              4.0023    Z=              0.8010  Tot=              4.2914
 Quadrupole moment (field-independent basis, Debye-Ang):
   XX=            -53.4021   YY=            -61.0145   ZZ=            -50.7974
   XY=              2.0531   XZ=              2.3987   YZ=             -1.0930

  Exact polarizability:  87.202   3.361  80.942  -0.180  -1.919  61.536
 Approx polarizability: 113.804   2.019 121.719  -3.015  -1.054  97.187

                      1                      2                      3
                      A                      A                      A
 Frequencies --     59.0338                76.3482               121.2201
 Red. masses --      4.3111                 2.8841                 3.6540
 Frc consts  --      0.0089                 0.0099                 0.0316
 IR Inten    --      0.7139                 2.8501                 0.4639

                      4                      5                      6
                      A                      A                      A
 Frequencies --    186.0323               230.3261               257.1042
 Red. masses --      2.7407                 1.6992                 1.8513
 Frc consts  --      0.0559                 0.0531                 0.0721
 IR Inten    --      4.3198                 0.1993                 1.0307

                      7                      8                      9
                      A                      A                      A
 Frequencies --    334.8489               374.5507               415.6872
 Red. masses --      2.8308                 3.1512                 5.0176
 Frc consts  --      0.1870                 0.2605                 0.5108
 IR Inten    --      0.4274                 1.9334                 7.2204

                     10                     11                     12
                      A                      A                      A
 Frequencies --    465.5031               584.0069               645.1240
 Red. masses --      1.8894                 3.1791                 4.4179
 Frc consts  --      0.2412                 0.6388                 1.0833
 IR Inten    --      2.6776                 2.7039                 2.4045

                     13                     14                     15
                      A                      A                      A
 Frequencies --    744.4540               808.6845               863.7787
 Red. masses --      1.9067                 2.6402                 6.0076
 Frc consts  --      0.6226                 1.0173                 2.6409
 IR Inten    --      3.2704                 2.6583                23.8111

                     16                     17                     18
                      A                      A                      A
 Frequencies --    884.4981               892.3942               913.4455
 Red. masses --      1.8272                 2.4714                 1.8674
 Frc consts  --      0.8422                 1.1596                 0.9180
 IR Inten    --      6.2722                13.3230                 2.9677

                     19                     20                     21
                      A                      A                      A
 Frequencies --    968.9263              1017.4473              1048.6597
 Red. masses --      1.4119                 2.1002                 2.1301
 Frc consts  --      0.7810                 1.2809                 1.3802
 IR Inten    --     10.8159                29.1665                13.9410

                     22                     23                     24
                      A                      A                      A
 Frequencies --   1083.8297              1103.0526              1106.3753
 Red. masses --      1.7583                 2.4095                 1.5879
 Frc consts  --      1.2169                 1.7273                 1.1452
 IR Inten    --      7.1338                10.2949                 5.8942

                     25                     26                     27
                      A                      A                      A
 Frequencies --   1154.0585              1162.7708              1169.1785
 Red. masses --      1.5094                 1.4901                 1.6274
 Frc consts  --      1.1844                 1.1870                 1.3107
 IR Inten    --      1.0818                 3.2296                14.3232

                     28                     29                     30
                      A                      A                      A
 Frequencies --   1181.6319              1209.2501              1232.1088
 Red. masses --      1.7222                 1.5133                 1.5424
 Frc consts  --      1.4168                 1.3038                 1.3796
 IR Inten    --     10.6197                 1.9126                 4.9986

                     31                     32                     33
                      A                      A                      A
 Frequencies --   1245.8987              1287.6746              1304.3473
 Red. masses --      1.4013                 1.8300                 1.4531
 Frc consts  --      1.2816                 1.7877                 1.4566
 IR Inten    --      1.6848                 7.7381                 3.9739

                     34                     35                     36
                      A                      A                      A
 Frequencies --   1372.0169              1413.5340              1440.3213
 Red. masses --      1.4538                 1.2601                 1.4190
 Frc consts  --      1.6124                 1.4834                 1.7344
 IR Inten    --     11.8067                 2.5770                31.1911

                     37                     38                     39
                      A                      A                      A
 Frequencies --   1449.5531              1494.0539              1498.3182
 Red. masses --      1.3243                 1.0485                 1.0430
 Frc consts  --      1.6394                 1.3790                 1.3796
 IR Inten    --      2.3594                 1.3112                 5.8380

                     40                     41                     42
                      A                      A                      A
 Frequencies --   1526.6728              1891.1263              3027.1172
 Red. masses --      1.3273                12.7043                 1.0357
 Frc consts  --      1.8227                26.7696                 5.5917
 IR Inten    --      3.5862               257.0525                20.8770

                     43                     44                     45
                      A                      A                      A
 Frequencies --   3036.4119              3043.7613              3050.8854
 Red. masses --      1.0822                 1.0731                 1.0735
 Frc consts  --      5.8784                 5.8575                 5.8873
 IR Inten    --      0.0727                 4.4254                16.3312

                     46                     47                     48
                      A                      A                      A
 Frequencies --   3079.4733              3095.4092              3098.8338
 Red. masses --      1.0499                 1.1006                 1.1010
 Frc consts  --      5.8663                 6.2131                 6.2295
 IR Inten    --     23.7756                26.4258                20.8920

                     49                     50                     51
                      A                      A                      A
 Frequencies --   3099.9331              3116.2939              3166.1952
 Red. masses --      1.0887                 1.1018                 1.1194
 Frc consts  --      6.1638                 6.3041                 6.6116
 IR Inten    --     23.7115                15.5023                28.7905

 - Thermochemistry -
 -------------------
 Temperature   298.150 Kelvin.  Pressure   1.00000 Atm.
 Atom     1 has atomic number  6 and mass  12.00000

 Molecular mass:   126.06808 amu.
 Principal axes and moments of inertia in atomic units:
                           1         2         3
     Eigenvalues --   840.102031307.707562016.99874
           X            0.99963  -0.02576   0.00871
           Y            0.02588   0.99958  -0.01306
           Z           -0.00837   0.01328   0.99988
 This molecule is an asymmetric top.
 Rotational symmetry number  1.
 Warning -- assumption of classical behavior for rotation
           may cause significant error
 Rotational temperatures (Kelvin)      0.10310     0.06623     0.04294
 Rotational constants (GHZ):           2.14824     1.38008     0.89477
 Zero-point vibrational energy     412904.0 (Joules/Mol)
                                   98.68643 (Kcal/Mol)
 Warning -- explicit consideration of  11 degrees of freedom as
           vibrations may cause significant error
 Vibrational temperatures:     84.94   109.85   174.41   267.66   331.39
          (Kelvin)            369.92   481.77   538.89   598.08   669.75
                              840.25   928.19  1071.10  1163.52  1242.78
                             1272.59  1283.95  1314.24  1394.07  1463.88
                             1508.79  1559.39  1587.04  1591.83  1660.43
                             1672.97  1682.18  1700.10  1739.84  1772.73
                             1792.57  1852.67  1876.66  1974.02  2033.76
                             2072.30  2085.58  2149.61  2155.74  2196.54
                             2720.91  4355.34  4368.71  4379.29  4389.54
                             4430.67  4453.60  4458.53  4460.11  4483.65
                             4555.44

 Zero-point correction=                           0.157267 (Hartree/Particle)
 Thermal correction to Energy=                    0.166297
 Thermal correction to Enthalpy=                  0.167241
 Thermal correction to Gibbs Free Energy=         0.122701
 Sum of electronic and zero-point Energies=           -423.011441
 Sum of electronic and thermal Energies=              -423.002411
 Sum of electronic and thermal Enthalpies=            -423.001467
 Sum of electronic and thermal Free Energies=         -423.046007

                     E (Thermal)             CV                S
                      KCal/Mol        Cal/Mol-Kelvin    Cal/Mol-Kelvin
 Total                  104.353             32.935             93.743
 Electronic               0.000              0.000              0.000
 Translational            0.889              2.981             40.409
 Rotational               0.889              2.981             29.184
 Vibrational            102.575             26.973             24.150
 Vibration     1          0.596              1.974              4.489
 Vibration     2          0.599              1.965              3.983
 Vibration     3          0.609              1.931              3.081
 Vibration     4          0.632              1.859              2.267
 Vibration     5          0.652              1.795              1.876
 Vibration     6          0.667              1.751              1.681
 Vibration     7          0.716              1.606              1.237
 Vibration     8          0.746              1.524              1.061
 Vibration     9          0.779              1.436              0.907
 Vibration    10          0.823              1.327              0.750
 Vibration    11          0.941              1.066              0.478

 Optimization completed.
    -- Stationary point found.
 Normal termination of Gaussian 09 at Tue Jan 28 02:37:47 2020.
