 Gaussian 09, Revision D.01,
 Gaussian 09:  ES64L-G09RevD.01 24-Apr-2013

 -----------------------------
 # b3lyp 6-31G(2df,p) opt Freq
 -----------------------------

 -----
 titel
 -----
 Symbolic Z-matrix:
 Charge =  0 Multiplicity = 1

 SCF Done:  E(RB3LYP) =  -423.177584050     A.U. after   14 cycles
 Optimization completed.
    -- Stationary point found.
 Normal termination of Gaussian 09 at Mon Jan 27 17:14:32 2020.

 ----------------------------------------------------------------------
 #N Geom=AllCheck Guess=TCheck SCRF=Check GenChk RB3LYP/6-31G(2df,p) Fr
 eq
 ----------------------------------------------------------------------

 Structure from the checkpoint file:  "/scratch/puck/g09_c22a7869-d64a-4905-953e-d785337a4c57/Gau-39535.chk"
 -----
 titel
 -----
 Charge =  0 Multiplicity = 1

                         Standard orientation:
 ---------------------------------------------------------------------
 Center     Atomic      Atomic             Coordinates (Angstroms)
 Number     Number       Type             X           Y           Z
 ---------------------------------------------------------------------
      1          6           0        0.985065    2.072154   -0.184456
      2          6           0        0.732099    0.608456    0.037066
      3          6           0        1.443065   -0.271925    1.096790
      4          6           0        0.307613   -1.260418    0.695939
      5          6           0        0.680760   -1.494562   -0.770767
      6          8           0        0.932986   -0.134741   -1.186216
      7          6           0       -0.615257    0.014214    0.584073
      8          6           0       -1.834227    0.027416   -0.289831
      9          8           0       -2.949644    0.242954    0.120872
     10          1           0        0.817487    2.634478    0.737973
     11          1           0        2.017643    2.232959   -0.509210
     12          1           0        0.320186    2.466938   -0.958650
     13          1           0        2.475355   -0.563045    0.885380
     14          1           0        1.341014    0.108388    2.114074
     15          1           0        0.022570   -2.119661    1.300420
     16          1           0        1.586674   -2.101228   -0.885081
     17          1           0       -0.116621   -1.934999   -1.378664
     18          1           0       -0.874408    0.396202    1.572953
     19          1           0       -1.651334   -0.157735   -1.369325
 ---------------------------------------------------------------------

 SCF Done:  E(RB3LYP) =  -423.177584050     A.U. after    1 cycles

 The electronic state is 1-A.
 Alpha  occ. eigenvalues --  -19.14488 -19.13549 -10.26518 -10.25530 -10.23625
 Alpha  occ. eigenvalues --  -10.21559 -10.19968 -10.19568 -10.18634  -1.05180
 Alpha  occ. eigenvalues --   -1.03993  -0.84947  -0.76866  -0.71099  -0.68826
 Alpha  occ. eigenvalues --   -0.59915  -0.57269  -0.56194  -0.51337  -0.49485
 Alpha  occ. eigenvalues --   -0.46710  -0.44304  -0.42971  -0.42783  -0.39245
 Alpha  occ. eigenvalues --   -0.39146  -0.38467  -0.37154  -0.35344  -0.34651
 Alpha  occ. eigenvalues --   -0.33923  -0.31232  -0.25976  -0.23870
 Alpha virt. eigenvalues --   -0.02971   0.08058   0.10587   0.11158   0.11351
 Alpha virt. eigenvalues --    0.13067   0.14086   0.14802   0.15978   0.16902
 Alpha virt. eigenvalues --    0.17457   0.17692   0.19458   0.20350   0.20487

 Mulliken charges:
               1
     1  C   -0.490679
     2  C    0.415439
     3  C   -0.269281
     4  C   -0.096961
     5  C   -0.089947
     6  O   -0.307963
     7  C   -0.117375
     8  C    0.130323
     9  O   -0.262935
    10  H    0.124728
    11  H    0.133313
    12  H    0.134594
    13  H    0.101871
    14  H    0.108145
    15  H    0.086455
    16  H    0.107263
    17  H    0.106972
    18  H    0.094377
    19  H    0.091662
 Sum of Mulliken charges =   0.00000

 Dipole moment (field-independent basis, Debye):
    X=              2.5975    Y=             -0.7385    Z=              0.9362  Tot=              2.8581
 Quadrupole moment (field-independent basis, Debye-Ang):
   XX=            -63.7106   YY=            -49.0521   ZZ=            -53.6192
   XY=              1.1501   XZ=              2.9821   YZ=              0.6512

  Exact polarizability:  84.106  -1.877  74.840   0.852   2.380  69.144
 Approx polarizability: 125.036  -4.783 104.676  -3.822   3.468 107.118

                      1                      2                      3
                      A                      A                      A
 Frequencies --     63.0586               169.5335               208.4718
 Red. masses --      4.5070                 2.7159                 1.2362
 Frc consts  --      0.0106                 0.0460                 0.0317
 IR Inten    --      5.8894                 3.2131                 0.4897

                      4                      5                      6
                      A                      A                      A
 Frequencies --    216.9602               297.3051               311.2103
 Red. masses --      2.3210                 2.4855                 2.5537
 Frc consts  --      0.0644                 0.1294                 0.1457
 IR Inten    --      2.9111                 5.1240                 0.9261

                      7                      8                      9
                      A                      A                      A
 Frequencies --    396.8728               418.5623               526.8844
 Red. masses --      4.2602                 2.2954                 2.4244
 Frc consts  --      0.3954                 0.2369                 0.3965
 IR Inten    --      0.4937                 5.4273                12.3593

                     10                     11                     12
                      A                      A                      A
 Frequencies --    562.1817               619.4364               682.1473
 Red. masses --      3.6248                 3.7384                 4.0617
 Frc consts  --      0.6750                 0.8451                 1.1136
 IR Inten    --      1.5964                 2.2884                 0.3209

                     13                     14                     15
                      A                      A                      A
 Frequencies --    791.2471               852.1463               871.1815
 Red. masses --      2.7724                 2.9876                 2.7677
 Frc consts  --      1.0226                 1.2782                 1.2376
 IR Inten    --      1.8734                11.3814                 8.1977

                     16                     17                     18
                      A                      A                      A
 Frequencies --    906.1605               912.3683               951.8076
 Red. masses --      2.4623                 2.8908                 1.8680
 Frc consts  --      1.1913                 1.4178                 0.9971
 IR Inten    --      6.1776                 8.2188                10.8333

                     19                     20                     21
                      A                      A                      A
 Frequencies --    964.5870               999.3827              1018.3739
 Red. masses --      1.6470                 2.5414                 1.3390
 Frc consts  --      0.9029                 1.4955                 0.8182
 IR Inten    --     19.1167                38.3306                 5.1486

                     22                     23                     24
                      A                      A                      A
 Frequencies --   1054.8386              1082.4969              1122.8213
 Red. masses --      1.6509                 1.4831                 2.2535
 Frc consts  --      1.0823                 1.0239                 1.6739
 IR Inten    --      8.1565                17.7339                 9.7859

                     25                     26                     27
                      A                      A                      A
 Frequencies --   1127.3663              1146.2724              1186.0407
 Red. masses --      1.6275                 2.3759                 1.3266
 Frc consts  --      1.2187                 1.8393                 1.0995
 IR Inten    --      1.3303                56.3247                 2.6103

                     28                     29                     30
                      A                      A                      A
 Frequencies --   1193.6707              1203.4230              1236.8515
 Red. masses --      1.7232                 1.6640                 1.4847
 Frc consts  --      1.4466                 1.4198                 1.3382
 IR Inten    --      4.1217                11.7865                 6.4130

                     31                     32                     33
                      A                      A                      A
 Frequencies --   1278.3753              1314.1449              1339.5844
 Red. masses --      1.7310                 1.9392                 1.7419
 Frc consts  --      1.6667                 1.9731                 1.8417
 IR Inten    --      3.9552                14.2880                16.7193

                     34                     35                     36
                      A                      A                      A
 Frequencies --   1364.8643              1418.7911              1433.8655
 Red. masses --      1.4652                 1.4674                 1.2844
 Frc consts  --      1.6081                 1.7404                 1.5559
 IR Inten    --      3.0584                13.6779                 8.5643

                     37                     38                     39
                      A                      A                      A
 Frequencies --   1480.0687              1491.3295              1494.0746
 Red. masses --      1.0491                 1.0500                 1.1480
 Frc consts  --      1.3540                 1.3758                 1.5099
 IR Inten    --      2.0642                 3.0500                 3.0713

                     40                     41                     42
                      A                      A                      A
 Frequencies --   1535.2703              1812.8481              2909.8765
 Red. masses --      1.0983                 9.8828                 1.0823
 Frc consts  --      1.5252                19.1361                 5.3996
 IR Inten    --      0.5033               192.6734                61.1056

                     43                     44                     45
                      A                      A                      A
 Frequencies --   3029.9978              3043.3287              3065.8200
 Red. masses --      1.0572                 1.0353                 1.0616
 Frc consts  --      5.7186                 5.6495                 5.8789
 IR Inten    --     61.7391                14.4155                14.2809

                     46                     47                     48
                      A                      A                      A
 Frequencies --   3070.7927              3106.5834              3113.6514
 Red. masses --      1.1058                 1.0865                 1.1013
 Frc consts  --      6.1438                 6.1778                 6.2908
 IR Inten    --     45.1528                 6.8152                12.4368

                     49                     50                     51
                      A                      A                      A
 Frequencies --   3123.1197              3135.8404              3139.7622
 Red. masses --      1.1016                 1.0981                 1.1000
 Frc consts  --      6.3307                 6.3623                 6.3891
 IR Inten    --     10.2825                25.5222                29.1715

 - Thermochemistry -
 -------------------
 Temperature   298.150 Kelvin.  Pressure   1.00000 Atm.
 Atom     1 has atomic number  6 and mass  12.00000

 Molecular mass:   126.06808 amu.
 Principal axes and moments of inertia in atomic units:
                           1         2         3
     Eigenvalues --   738.076051206.768261435.21367
           X            0.99954   0.02227   0.02069
           Y           -0.02255   0.99966   0.01328
           Z           -0.02039  -0.01374   0.99970
 This molecule is an asymmetric top.
 Rotational symmetry number  1.
 Warning -- assumption of classical behavior for rotation
           may cause significant error
 Rotational temperatures (Kelvin)      0.11735     0.07177     0.06035
 Rotational constants (GHZ):           2.44520     1.49552     1.25747
 Zero-point vibrational energy     417470.7 (Joules/Mol)
                                   99.77789 (Kcal/Mol)
 Warning -- explicit consideration of  11 degrees of freedom as
           vibrations may cause significant error
 Vibrational temperatures:     90.73   243.92   299.94   312.16   427.76
          (Kelvin)            447.76   571.01   602.22   758.07   808.85
                              891.23   981.46  1138.43  1226.05  1253.43
                             1303.76  1312.69  1369.44  1387.82  1437.89
                             1465.21  1517.68  1557.47  1615.49  1622.03
                             1649.23  1706.45  1717.42  1731.46  1779.55
                             1839.29  1890.76  1927.36  1963.73  2041.32
                             2063.01  2129.49  2145.69  2149.64  2208.91
                             2608.28  4186.66  4359.49  4378.67  4411.03
                             4418.18  4469.68  4479.84  4493.47  4511.77
                             4517.41

 Zero-point correction=                           0.159006 (Hartree/Particle)
 Thermal correction to Energy=                    0.167161
 Thermal correction to Enthalpy=                  0.168105
 Thermal correction to Gibbs Free Energy=         0.126166
 Sum of electronic and zero-point Energies=           -423.018578
 Sum of electronic and thermal Energies=              -423.010423
 Sum of electronic and thermal Enthalpies=            -423.009479
 Sum of electronic and thermal Free Energies=         -423.051418

                     E (Thermal)             CV                S
                      KCal/Mol        Cal/Mol-Kelvin    Cal/Mol-Kelvin
 Total                  104.895             31.442             88.267
 Electronic               0.000              0.000              0.000
 Translational            0.889              2.981             40.409
 Rotational               0.889              2.981             28.638
 Vibrational            103.118             25.480             19.221
 Vibration     1          0.597              1.972              4.359
 Vibration     2          0.625              1.880              2.441
 Vibration     3          0.642              1.828              2.057
 Vibration     4          0.646              1.815              1.984
 Vibration     5          0.691              1.679              1.432
 Vibration     6          0.700              1.652              1.356
 Vibration     7          0.763              1.477              0.974
 Vibration     8          0.781              1.430              0.897
 Vibration     9          0.882              1.190              0.594
 Vibration    10          0.918              1.113              0.519
 Vibration    11          0.979              0.991              0.417

 Optimization completed.
    -- Stationary point found.
 Normal termination of Gaussian 09 at Mon Jan 27 18:02:55 2020.
