 Gaussian 09, Revision D.01,
 Gaussian 09:  ES64L-G09RevD.01 24-Apr-2013

 -----------------------------
 # b3lyp 6-31G(2df,p) opt Freq
 -----------------------------

 -----
 titel
 -----
 Symbolic Z-matrix:
 Charge =  0 Multiplicity = 1

 SCF Done:  E(RB3LYP) =  -423.141593920     A.U. after   13 cycles
 Optimization completed.
    -- Stationary point found.
 Normal termination of Gaussian 09 at Tue Jan 28 09:55:14 2020.

 ----------------------------------------------------------------------
 #N Geom=AllCheck Guess=TCheck SCRF=Check GenChk RB3LYP/6-31G(2df,p) Fr
 eq
 ----------------------------------------------------------------------

 Structure from the checkpoint file:  "/scratch/puck/g09_69427f0d-2964-4bad-85d2-bef6191c77ba/Gau-147484.chk"
 -----
 titel
 -----
 Charge =  0 Multiplicity = 1

                         Standard orientation:
 ---------------------------------------------------------------------
 Center     Atomic      Atomic             Coordinates (Angstroms)
 Number     Number       Type             X           Y           Z
 ---------------------------------------------------------------------
      1          6           0        2.745280   -0.345281   -0.156912
      2          6           0        1.738452    0.807886   -0.123023
      3          6           0        0.301120    0.361440    0.007103
      4          6           0       -0.775026    1.442238    0.083919
      5          8           0       -2.014985    0.727076    0.035100
      6          6           0       -1.724893   -0.572420   -0.418192
      7          6           0       -0.703035   -1.379898    0.362681
      8          8           0        0.066645   -0.503403    1.181026
      9          6           0       -0.323214   -0.708362   -0.934087
     10          1           0        3.769429    0.036536   -0.194279
     11          1           0        2.639500   -0.967303    0.735001
     12          1           0        2.593660   -0.982575   -1.033863
     13          1           0        1.963620    1.470375    0.722654
     14          1           0        1.824434    1.420438   -1.029893
     15          1           0       -0.722571    1.991937    1.028637
     16          1           0       -0.706174    2.150654   -0.756431
     17          1           0       -2.562723   -1.070380   -0.891218
     18          1           0       -0.790123   -2.419132    0.659223
     19          1           0        0.025561   -1.053550   -1.897783
 ---------------------------------------------------------------------

 SCF Done:  E(RB3LYP) =  -423.141593920     A.U. after    1 cycles

 The electronic state is 1-A.
 Alpha  occ. eigenvalues --  -19.14050 -19.13711 -10.24755 -10.23893 -10.23658
 Alpha  occ. eigenvalues --  -10.22721 -10.19297 -10.19238 -10.17666  -1.07440
 Alpha  occ. eigenvalues --   -1.01391  -0.82648  -0.79459  -0.72765  -0.64593
 Alpha  occ. eigenvalues --   -0.61614  -0.58633  -0.54251  -0.51635  -0.50174
 Alpha  occ. eigenvalues --   -0.46430  -0.44931  -0.43880  -0.41638  -0.40164
 Alpha  occ. eigenvalues --   -0.38719  -0.36816  -0.36122  -0.34871  -0.32954
 Alpha  occ. eigenvalues --   -0.31558  -0.30318  -0.25451  -0.21526
 Alpha virt. eigenvalues --    0.07593   0.09232   0.10262   0.11078   0.12155
 Alpha virt. eigenvalues --    0.13768   0.14053   0.15429   0.16030   0.17052
 Alpha virt. eigenvalues --    0.17833   0.17891   0.19502   0.21284   0.21690

 Mulliken charges:
               1
     1  C   -0.382556
     2  C   -0.290649
     3  C    0.392532
     4  C   -0.099658
     5  O   -0.269195
     6  C    0.080444
     7  C    0.056870
     8  O   -0.331644
     9  C   -0.258624
    10  H    0.112666
    11  H    0.139238
    12  H    0.116152
    13  H    0.112454
    14  H    0.104839
    15  H    0.116927
    16  H    0.089668
    17  H    0.108463
    18  H    0.103394
    19  H    0.098679
 Sum of Mulliken charges =   0.00000

 Dipole moment (field-independent basis, Debye):
    X=              1.2413    Y=             -0.3532    Z=             -1.7777  Tot=              2.1968
 Quadrupole moment (field-independent basis, Debye-Ang):
   XX=            -55.3375   YY=            -49.3260   ZZ=            -54.3668
   XY=              4.1549   XZ=              0.6927   YZ=              1.2217

  Exact polarizability:  80.105   3.664  76.354   0.683   0.286  63.409
 Approx polarizability: 107.490   4.361 110.236   0.513  -1.628 104.230

                      1                      2                      3
                      A                      A                      A
 Frequencies --     89.2694               169.5646               196.0350
 Red. masses --      2.1293                 3.2568                 1.4475
 Frc consts  --      0.0100                 0.0552                 0.0328
 IR Inten    --      0.4392                 0.1305                 0.6765

                      4                      5                      6
                      A                      A                      A
 Frequencies --    245.3949               328.3813               372.6093
 Red. masses --      1.7790                 2.8350                 3.1082
 Frc consts  --      0.0631                 0.1801                 0.2543
 IR Inten    --      2.3783                 6.7226                 2.6721

                      7                      8                      9
                      A                      A                      A
 Frequencies --    426.8951               542.3134               613.3500
 Red. masses --      3.3340                 3.6907                 3.5516
 Frc consts  --      0.3580                 0.6395                 0.7872
 IR Inten    --      1.2648                 2.4231                 2.6329

                     10                     11                     12
                      A                      A                      A
 Frequencies --    695.8571               737.3106               763.4104
 Red. masses --      5.0424                 1.9885                 1.4255
 Frc consts  --      1.4386                 0.6369                 0.4895
 IR Inten    --      2.3604                15.8143                 1.7558

                     13                     14                     15
                      A                      A                      A
 Frequencies --    781.3103               804.0987               857.8437
 Red. masses --      4.7012                 1.8791                 2.2068
 Frc consts  --      1.6909                 0.7159                 0.9568
 IR Inten    --     11.4394                14.3143                21.7281

                     16                     17                     18
                      A                      A                      A
 Frequencies --    864.9961               945.3135               967.9156
 Red. masses --      3.5913                 1.4886                 2.8176
 Frc consts  --      1.5832                 0.7838                 1.5552
 IR Inten    --     18.1429                 2.7204                36.3506

                     19                     20                     21
                      A                      A                      A
 Frequencies --    981.8587              1010.0144              1031.8172
 Red. masses --      1.8568                 2.2809                 1.7280
 Frc consts  --      1.0547                 1.3709                 1.0839
 IR Inten    --      3.6175                 8.5625                 2.8753

                     22                     23                     24
                      A                      A                      A
 Frequencies --   1039.6596              1046.5887              1081.7175
 Red. masses --      1.4902                 2.8376                 2.5593
 Frc consts  --      0.9490                 1.8313                 1.7644
 IR Inten    --      0.3988                 8.6451                 8.4268

                     25                     26                     27
                      A                      A                      A
 Frequencies --   1089.8168              1119.0865              1147.1255
 Red. masses --      3.8720                 2.5917                 1.8845
 Frc consts  --      2.7096                 1.9123                 1.4611
 IR Inten    --     66.3356                69.1453                 2.6361

                     28                     29                     30
                      A                      A                      A
 Frequencies --   1174.1631              1196.1360              1223.3818
 Red. masses --      2.2493                 1.7332                 1.2605
 Frc consts  --      1.8271                 1.4610                 1.1115
 IR Inten    --      7.6832                 4.5406                 0.3451

                     31                     32                     33
                      A                      A                      A
 Frequencies --   1267.7772              1292.0180              1323.3232
 Red. masses --      1.9724                 1.4302                 1.4095
 Frc consts  --      1.8678                 1.4066                 1.4542
 IR Inten    --     15.8645                 3.6109                12.0474

                     34                     35                     36
                      A                      A                      A
 Frequencies --   1364.4283              1392.1402              1402.8836
 Red. masses --      1.6356                 2.0742                 1.3193
 Frc consts  --      1.7940                 2.3685                 1.5298
 IR Inten    --      3.5553                 2.6268                 5.6697

                     37                     38                     39
                      A                      A                      A
 Frequencies --   1413.4847              1470.9081              1494.8792
 Red. masses --      1.8412                 1.0776                 1.0419
 Frc consts  --      2.1674                 1.3737                 1.3718
 IR Inten    --      3.9538                 1.0517                 5.9247

                     40                     41                     42
                      A                      A                      A
 Frequencies --   1498.8658              1510.2327              2983.3015
 Red. masses --      1.0968                 1.0612                 1.0684
 Frc consts  --      1.4518                 1.4260                 5.6026
 IR Inten    --      0.7951                 5.1159                58.3624

                     43                     44                     45
                      A                      A                      A
 Frequencies --   3022.3987              3044.3003              3057.4991
 Red. masses --      1.0595                 1.0373                 1.0992
 Frc consts  --      5.7025                 5.6643                 6.0542
 IR Inten    --     27.6260                21.3587                11.0466

                     46                     47                     48
                      A                      A                      A
 Frequencies --   3083.3192              3110.1348              3129.9022
 Red. masses --      1.0951                 1.1013                 1.1015
 Frc consts  --      6.1341                 6.2763                 6.3579
 IR Inten    --     23.3660                34.2693                16.5864

                     49                     50                     51
                      A                      A                      A
 Frequencies --   3175.3063              3191.6132              3204.0375
 Red. masses --      1.0910                 1.0905                 1.1005
 Frc consts  --      6.4810                 6.5448                 6.6565
 IR Inten    --     21.6323                13.3566                13.2679

 - Thermochemistry -
 -------------------
 Temperature   298.150 Kelvin.  Pressure   1.00000 Atm.
 Atom     1 has atomic number  6 and mass  12.00000

 Molecular mass:   126.06808 amu.
 Principal axes and moments of inertia in atomic units:
                           1         2         3
     Eigenvalues --   538.459471188.338041393.24593
           X            0.99992   0.01216  -0.00221
           Y           -0.01209   0.99952   0.02867
           Z            0.00255  -0.02864   0.99959
 This molecule is an asymmetric top.
 Rotational symmetry number  1.
 Warning -- assumption of classical behavior for rotation
           may cause significant error
 Rotational temperatures (Kelvin)      0.16085     0.07289     0.06217
 Rotational constants (GHZ):           3.35168     1.51871     1.29535
 Zero-point vibrational energy     418549.4 (Joules/Mol)
                                  100.03570 (Kcal/Mol)
 Warning -- explicit consideration of   9 degrees of freedom as
           vibrations may cause significant error
 Vibrational temperatures:    128.44   243.97   282.05   353.07   472.47
          (Kelvin)            536.10   614.21   780.27   882.47  1001.18
                             1060.82  1098.38  1124.13  1156.92  1234.24
                             1244.53  1360.09  1392.61  1412.67  1453.18
                             1484.55  1495.84  1505.81  1556.35  1568.00
                             1610.11  1650.46  1689.36  1720.97  1760.17
                             1824.05  1858.92  1903.96  1963.11  2002.98
                             2018.43  2033.69  2116.31  2150.80  2156.53
                             2172.89  4292.30  4348.55  4380.06  4399.05
                             4436.20  4474.78  4503.23  4568.55  4592.01
                             4609.89

 Zero-point correction=                           0.159417 (Hartree/Particle)
 Thermal correction to Energy=                    0.167108
 Thermal correction to Enthalpy=                  0.168052
 Thermal correction to Gibbs Free Energy=         0.127321
 Sum of electronic and zero-point Energies=           -422.982177
 Sum of electronic and thermal Energies=              -422.974486
 Sum of electronic and thermal Enthalpies=            -422.973542
 Sum of electronic and thermal Free Energies=         -423.014273

                     E (Thermal)             CV                S
                      KCal/Mol        Cal/Mol-Kelvin    Cal/Mol-Kelvin
 Total                  104.862             30.412             85.726
 Electronic               0.000              0.000              0.000
 Translational            0.889              2.981             40.409
 Rotational               0.889              2.981             28.279
 Vibrational            103.084             24.450             17.037
 Vibration     1          0.602              1.957              3.676
 Vibration     2          0.625              1.880              2.440
 Vibration     3          0.636              1.845              2.170
 Vibration     4          0.660              1.770              1.763
 Vibration     5          0.712              1.619              1.268
 Vibration     6          0.744              1.528              1.069
 Vibration     7          0.789              1.412              0.869
 Vibration     8          0.897              1.157              0.560
 Vibration     9          0.973              1.004              0.427

 Normal termination of Gaussian 09 at Tue Jan 28 10:42:02 2020.
