 Gaussian 09, Revision D.01,
 Gaussian 09:  ES64L-G09RevD.01 24-Apr-2013

 -----------------------------
 # b3lyp 6-31G(2df,p) opt Freq
 -----------------------------

 -----
 titel
 -----
 Symbolic Z-matrix:
 Charge =  0 Multiplicity = 1

 SCF Done:  E(RB3LYP) =  -423.085295025     A.U. after   13 cycles
 SCF Done:  E(RB3LYP) =  -423.085295014     A.U. after    6 cycles
 SCF Done:  E(RB3LYP) =  -423.085295071     A.U. after    6 cycles
 Optimization completed.
    -- Stationary point found.
 Normal termination of Gaussian 09 at Tue Jan 28 08:33:35 2020.

 ----------------------------------------------------------------------
 #N Geom=AllCheck Guess=TCheck SCRF=Check GenChk RB3LYP/6-31G(2df,p) Fr
 eq
 ----------------------------------------------------------------------

 Structure from the checkpoint file:  "/scratch/puck/g09_ab7ac5f5-31d0-4352-a0f1-181a7af8fd3c/Gau-81461.chk"
 -----
 titel
 -----
 Charge =  0 Multiplicity = 1

                         Standard orientation:
 ---------------------------------------------------------------------
 Center     Atomic      Atomic             Coordinates (Angstroms)
 Number     Number       Type             X           Y           Z
 ---------------------------------------------------------------------
      1          8           0       -2.612220    0.977223    0.163573
      2          6           0       -1.219818    1.031173   -0.118888
      3          6           0       -0.578738   -0.375179   -0.041688
      4          8           0       -1.574071   -1.376454   -0.113673
      5          6           0        0.579086   -0.827562    0.819907
      6          6           0        1.858925    0.050882    0.806891
      7          6           0        1.826678    1.277150   -0.074949
      8          6           0        1.944368   -0.078604   -0.708091
      9          6           0        0.652489   -0.931066   -0.708839
     10          1           0       -3.019689    0.474892   -0.550510
     11          1           0       -1.038452    1.482921   -1.104768
     12          1           0       -0.800212    1.689099    0.643319
     13          1           0       -2.200508   -1.171799    0.591999
     14          1           0        0.442489   -1.638929    1.523969
     15          1           0        2.648207   -0.088401    1.534722
     16          1           0        0.968415    1.921449   -0.203749
     17          1           0        2.764789    1.826458   -0.060380
     18          1           0        2.799837   -0.356930   -1.310344
     19          1           0        0.547515   -1.825679   -1.309514
 ---------------------------------------------------------------------

 SCF Done:  E(RB3LYP) =  -423.085295071     A.U. after    1 cycles

 The electronic state is 1-A.
 Alpha  occ. eigenvalues --  -19.14397 -19.14305 -10.24355 -10.23065 -10.19470
 Alpha  occ. eigenvalues --  -10.19404 -10.19004 -10.18872 -10.18695  -1.04350
 Alpha  occ. eigenvalues --   -1.01040  -0.90928  -0.79499  -0.70357  -0.63561
 Alpha  occ. eigenvalues --   -0.61772  -0.55651  -0.53544  -0.52696  -0.50696
 Alpha  occ. eigenvalues --   -0.47829  -0.46362  -0.44188  -0.42865  -0.38892
 Alpha  occ. eigenvalues --   -0.38318  -0.35872  -0.33955  -0.32924  -0.31103
 Alpha  occ. eigenvalues --   -0.29769  -0.28157  -0.25122  -0.20919
 Alpha virt. eigenvalues --    0.06012   0.07128   0.09320   0.11336   0.12690
 Alpha virt. eigenvalues --    0.13734   0.14436   0.15426   0.15899   0.16352
 Alpha virt. eigenvalues --    0.18669   0.19770   0.20604   0.21576   0.22433

 Mulliken charges:
               1
     1  O   -0.430136
     2  C   -0.170623
     3  C    0.349347
     4  O   -0.467728
     5  C   -0.133491
     6  C   -0.068184
     7  C   -0.314208
     8  C   -0.059969
     9  C   -0.109621
    10  H    0.286289
    11  H    0.104844
    12  H    0.129493
    13  H    0.285046
    14  H    0.090063
    15  H    0.092020
    16  H    0.116054
    17  H    0.112106
    18  H    0.090841
    19  H    0.097857
 Sum of Mulliken charges =   0.00000

 Dipole moment (field-independent basis, Debye):
    X=              0.7610    Y=              0.0973    Z=             -0.1898  Tot=              0.7903
 Quadrupole moment (field-independent basis, Debye-Ang):
   XX=            -50.1128   YY=            -55.4161   ZZ=            -52.2632
   XY=              2.0014   XZ=              1.4419   YZ=             -2.0528

  Exact polarizability:  86.455   3.650  71.484  -0.023  -0.565  65.304
 Approx polarizability: 114.859   4.236 105.547  -1.008   1.289 109.556

                      1                      2                      3
                      A                      A                      A
 Frequencies --     67.6952               169.1958               200.1253
 Red. masses --      3.4259                 1.6501                 1.5081
 Frc consts  --      0.0092                 0.0278                 0.0356
 IR Inten    --      0.5727                69.8741               186.0296

                      4                      5                      6
                      A                      A                      A
 Frequencies --    217.2393               341.0079               351.1490
 Red. masses --      4.0136                 4.2772                 3.6525
 Frc consts  --      0.1116                 0.2931                 0.2654
 IR Inten    --     10.6816                 5.2337                 2.2104

                      7                      8                      9
                      A                      A                      A
 Frequencies --    378.2606               438.0391               468.3474
 Red. masses --      3.5350                 3.5047                 3.1568
 Frc consts  --      0.2980                 0.3962                 0.4080
 IR Inten    --      3.0173                 7.7887                12.0750

                     10                     11                     12
                      A                      A                      A
 Frequencies --    606.9267               610.8280               690.6404
 Red. masses --      2.7013                 1.2362                 3.3757
 Frc consts  --      0.5863                 0.2718                 0.9487
 IR Inten    --      0.2522                 0.5964                 7.8469

                     13                     14                     15
                      A                      A                      A
 Frequencies --    702.9836               737.5649               775.6384
 Red. masses --      1.8886                 2.6535                 3.0854
 Frc consts  --      0.5499                 0.8505                 1.0936
 IR Inten    --      7.9417                 8.7140                11.2854

                     16                     17                     18
                      A                      A                      A
 Frequencies --    839.3383               877.6780               885.9814
 Red. masses --      1.1448                 1.7485                 2.3362
 Frc consts  --      0.4752                 0.7936                 1.0805
 IR Inten    --     18.1102                 1.0419                 9.4970

                     19                     20                     21
                      A                      A                      A
 Frequencies --    920.6804               974.3356               991.9323
 Red. masses --      3.2074                 1.6988                 1.5122
 Frc consts  --      1.6018                 0.9502                 0.8766
 IR Inten    --     13.8948                 2.4387                 8.1292

                     22                     23                     24
                      A                      A                      A
 Frequencies --   1006.0413              1026.3317              1037.6195
 Red. masses --      2.5039                 1.3469                 1.6120
 Frc consts  --      1.4932                 0.8359                 1.0226
 IR Inten    --      2.5977                 4.0057                60.0622

                     25                     26                     27
                      A                      A                      A
 Frequencies --   1057.8789              1072.7804              1082.5087
 Red. masses --      1.5370                 4.8726                 1.5872
 Frc consts  --      1.0134                 3.3040                 1.0958
 IR Inten    --      0.4264                85.3793                 0.5387

                     28                     29                     30
                      A                      A                      A
 Frequencies --   1094.2195              1115.7397              1189.4907
 Red. masses --      1.6765                 2.1484                 1.7865
 Frc consts  --      1.1827                 1.5757                 1.4892
 IR Inten    --     15.5193                26.7219                 6.9832

                     31                     32                     33
                      A                      A                      A
 Frequencies --   1218.7891              1235.9185              1258.7796
 Red. masses --      1.2158                 1.5006                 2.3804
 Frc consts  --      1.0640                 1.3505                 2.2223
 IR Inten    --     35.8107                 5.3256                 1.9966

                     34                     35                     36
                      A                      A                      A
 Frequencies --   1277.2365              1318.4548              1347.6474
 Red. masses --      1.4918                 2.1129                 1.6403
 Frc consts  --      1.4338                 2.1640                 1.7552
 IR Inten    --     10.2838                43.9283                11.7448

                     37                     38                     39
                      A                      A                      A
 Frequencies --   1371.2487              1421.1947              1444.0884
 Red. masses --      1.3719                 1.4020                 2.0495
 Frc consts  --      1.5199                 1.6685                 2.5182
 IR Inten    --      1.1982                28.6708                17.7529

                     40                     41                     42
                      A                      A                      A
 Frequencies --   1498.0882              1515.2610              2996.1016
 Red. masses --      1.1594                 1.1164                 1.0698
 Frc consts  --      1.5330                 1.5103                 5.6583
 IR Inten    --      1.9555                 1.4103                39.5870

                     43                     44                     45
                      A                      A                      A
 Frequencies --   3113.5240              3133.4987              3179.1300
 Red. masses --      1.0939                 1.0614                 1.0875
 Frc consts  --      6.2478                 6.1401                 6.4761
 IR Inten    --     13.4664                20.3057                 2.1064

                     46                     47                     48
                      A                      A                      A
 Frequencies --   3187.9406              3190.2312              3199.7070
 Red. masses --      1.0921                 1.0908                 1.0979
 Frc consts  --      6.5395                 6.5410                 6.6229
 IR Inten    --     22.8745                21.7981                 8.3255

                     49                     50                     51
                      A                      A                      A
 Frequencies --   3231.5905              3775.0656              3808.3141
 Red. masses --      1.1063                 1.0651                 1.0658
 Frc consts  --      6.8068                 8.9433                 9.1073
 IR Inten    --     12.8537                40.3762                29.4724

 - Thermochemistry -
 -------------------
 Temperature   298.150 Kelvin.  Pressure   1.00000 Atm.
 Atom     1 has atomic number  8 and mass  15.99491

 Molecular mass:   126.06808 amu.
 Principal axes and moments of inertia in atomic units:
                           1         2         3
     Eigenvalues --   562.768501377.814061659.89696
           X            0.99995   0.00991   0.00298
           Y           -0.00985   0.99970  -0.02235
           Z           -0.00320   0.02232   0.99975
 This molecule is an asymmetric top.
 Rotational symmetry number  1.
 Warning -- assumption of classical behavior for rotation
           may cause significant error
 Rotational temperatures (Kelvin)      0.15391     0.06286     0.05218
 Rotational constants (GHZ):           3.20690     1.30986     1.08726
 Zero-point vibrational energy     416599.6 (Joules/Mol)
                                   99.56968 (Kcal/Mol)
 Warning -- explicit consideration of  11 degrees of freedom as
           vibrations may cause significant error
 Vibrational temperatures:     97.40   243.43   287.94   312.56   490.63
          (Kelvin)            505.22   544.23   630.24   673.85   873.23
                              878.84   993.68  1011.44  1061.19  1115.97
                             1207.62  1262.78  1274.73  1324.65  1401.85
                             1427.17  1447.47  1476.66  1492.90  1522.05
                             1543.49  1557.49  1574.34  1605.30  1711.41
                             1753.56  1778.21  1811.10  1837.66  1896.96
                             1938.96  1972.92  2044.78  2077.72  2155.41
                             2180.12  4310.72  4479.66  4508.40  4574.05
                             4586.73  4590.03  4603.66  4649.53  5431.47
                             5479.31

 Zero-point correction=                           0.158674 (Hartree/Particle)
 Thermal correction to Energy=                    0.166988
 Thermal correction to Enthalpy=                  0.167932
 Thermal correction to Gibbs Free Energy=         0.125883
 Sum of electronic and zero-point Energies=           -422.926621
 Sum of electronic and thermal Energies=              -422.918307
 Sum of electronic and thermal Enthalpies=            -422.917363
 Sum of electronic and thermal Free Energies=         -422.959412

                     E (Thermal)             CV                S
                      KCal/Mol        Cal/Mol-Kelvin    Cal/Mol-Kelvin
 Total                  104.786             33.070             88.499
 Electronic               0.000              0.000              0.000
 Translational            0.889              2.981             40.409
 Rotational               0.889              2.981             28.644
 Vibrational            103.009             27.108             19.446
 Vibration     1          0.598              1.970              4.219
 Vibration     2          0.625              1.880              2.444
 Vibration     3          0.638              1.840              2.132
 Vibration     4          0.646              1.815              1.982
 Vibration     5          0.721              1.594              1.207
 Vibration     6          0.728              1.573              1.161
 Vibration     7          0.749              1.516              1.046
 Vibration     8          0.798              1.387              0.833
 Vibration     9          0.826              1.320              0.742
 Vibration    10          0.966              1.017              0.438
 Vibration    11          0.970              1.009              0.431

 Normal termination of Gaussian 09 at Tue Jan 28 09:21:14 2020.
