 Gaussian 09, Revision D.01,
 Gaussian 09:  ES64L-G09RevD.01 24-Apr-2013

 -----------------------------
 # b3lyp 6-31G(2df,p) opt Freq
 -----------------------------

 -----
 titel
 -----
 Symbolic Z-matrix:
 Charge =  0 Multiplicity = 1

 SCF Done:  E(RB3LYP) =  -423.211576756     A.U. after   14 cycles
 Optimization completed.
    -- Stationary point found.
 Normal termination of Gaussian 09 at Tue Jan 28 12:09:01 2020.

 ----------------------------------------------------------------------
 #N Geom=AllCheck Guess=TCheck SCRF=Check GenChk RB3LYP/6-31G(2df,p) Fr
 eq
 ----------------------------------------------------------------------

 Structure from the checkpoint file:  "/scratch/puck/g09_d2b4c60f-d798-4f2d-9a52-25e68d3b9828/Gau-128761.chk"
 -----
 titel
 -----
 Charge =  0 Multiplicity = 1

                         Standard orientation:
 ---------------------------------------------------------------------
 Center     Atomic      Atomic             Coordinates (Angstroms)
 Number     Number       Type             X           Y           Z
 ---------------------------------------------------------------------
      1          8           0        2.715665   -0.984060    0.471521
      2          6           0        1.649415   -1.041842   -0.472041
      3          6           0        0.614317    0.012957   -0.206648
      4          6           0       -0.718003   -0.127520   -0.041187
      5          6           0       -1.395488    1.196638    0.244198
      6          6           0       -0.303929    2.235817   -0.107973
      7          6           0        1.031668    1.457794   -0.040098
      8          6           0       -1.478462   -1.377709   -0.076963
      9          8           0       -2.677317   -1.437033    0.103131
     10          1           0        2.349856   -1.197617    1.336489
     11          1           0        2.119252   -0.848841   -1.444592
     12          1           0        1.210371   -2.046213   -0.519854
     13          1           0       -2.316746    1.320238   -0.331483
     14          1           0       -1.689346    1.246524    1.300890
     15          1           0       -0.460647    2.598169   -1.128956
     16          1           0       -0.319418    3.108289    0.549234
     17          1           0        1.757813    1.769035   -0.799849
     18          1           0        1.540169    1.583618    0.925009
     19          1           0       -0.895185   -2.301265   -0.279836
 ---------------------------------------------------------------------

 SCF Done:  E(RB3LYP) =  -423.211576756     A.U. after    1 cycles

 The electronic state is 1-A.
 Alpha  occ. eigenvalues --  -19.15138 -19.13086 -10.26424 -10.24680 -10.21268
 Alpha  occ. eigenvalues --  -10.19609 -10.19439 -10.18927 -10.18737  -1.03559
 Alpha  occ. eigenvalues --   -1.03097  -0.86083  -0.75309  -0.73290  -0.67440
 Alpha  occ. eigenvalues --   -0.62294  -0.58254  -0.53123  -0.50711  -0.49365
 Alpha  occ. eigenvalues --   -0.47924  -0.44534  -0.44234  -0.40960  -0.40385
 Alpha  occ. eigenvalues --   -0.38652  -0.37836  -0.35693  -0.34874  -0.34734
 Alpha  occ. eigenvalues --   -0.33773  -0.28832  -0.25630  -0.24817
 Alpha virt. eigenvalues --   -0.05834   0.04885   0.08037   0.09138   0.10241
 Alpha virt. eigenvalues --    0.12435   0.13000   0.14961   0.16635   0.16811
 Alpha virt. eigenvalues --    0.17280   0.18899   0.20500   0.21561   0.23498

 Mulliken charges:
               1
     1  O   -0.406880
     2  C   -0.182779
     3  C    0.202206
     4  C    0.136136
     5  C   -0.301429
     6  C   -0.223418
     7  C   -0.281858
     8  C    0.056187
     9  O   -0.270399
    10  H    0.287855
    11  H    0.126354
    12  H    0.105291
    13  H    0.123945
    14  H    0.116151
    15  H    0.110052
    16  H    0.103971
    17  H    0.113155
    18  H    0.121045
    19  H    0.064413
 Sum of Mulliken charges =   0.00000

 Dipole moment (field-independent basis, Debye):
    X=              1.9331    Y=              1.0158    Z=              0.1531  Tot=              2.1891
 Quadrupole moment (field-independent basis, Debye-Ang):
   XX=            -68.1569   YY=            -51.9618   ZZ=            -49.3639
   XY=             -4.2152   XZ=              1.0327   YZ=             -0.4340

  Exact polarizability: 103.757   5.502  83.454  -3.782   1.449  58.187
 Approx polarizability: 174.717  16.313 110.609  -8.658   0.698  91.559

                      1                      2                      3
                      A                      A                      A
 Frequencies --     54.9745               119.3482               126.8381
 Red. masses --      3.7473                 3.0784                 1.9132
 Frc consts  --      0.0067                 0.0258                 0.0181
 IR Inten    --      6.0115                 1.5552                 0.1224

                      4                      5                      6
                      A                      A                      A
 Frequencies --    154.1869               203.5486               243.8523
 Red. masses --      2.7790                 4.4747                 2.9406
 Frc consts  --      0.0389                 0.1092                 0.1030
 IR Inten    --      3.1591                 9.0771                 1.8779

                      7                      8                      9
                      A                      A                      A
 Frequencies --    299.3230               358.5945               392.3677
 Red. masses --      1.7598                 1.3826                 3.3016
 Frc consts  --      0.0929                 0.1048                 0.2995
 IR Inten    --     21.4237                69.7255                30.9373

                     10                     11                     12
                      A                      A                      A
 Frequencies --    510.1411               523.9085               634.3938
 Red. masses --      2.6991                 4.6658                 2.0808
 Frc consts  --      0.4139                 0.7545                 0.4934
 IR Inten    --      0.2272                 3.3238                 1.4623

                     13                     14                     15
                      A                      A                      A
 Frequencies --    676.6585               754.3565               850.3685
 Red. masses --      4.0609                 2.6249                 2.4877
 Frc consts  --      1.0955                 0.8801                 1.0599
 IR Inten    --      4.5923                24.7360                 2.0122

                     16                     17                     18
                      A                      A                      A
 Frequencies --    885.1998               914.8277               929.7376
 Red. masses --      1.4200                 1.9525                 2.1828
 Frc consts  --      0.6556                 0.9628                 1.1117
 IR Inten    --      1.1860                 3.4832                 0.3851

                     19                     20                     21
                      A                      A                      A
 Frequencies --    990.8044              1014.6077              1025.2993
 Red. masses --      2.9841                 1.9018                 2.1173
 Frc consts  --      1.7260                 1.1535                 1.3114
 IR Inten    --     31.9072                 5.6039                18.6332

                     22                     23                     24
                      A                      A                      A
 Frequencies --   1060.2559              1068.8084              1144.0454
 Red. masses --      2.0963                 3.1030                 1.2034
 Frc consts  --      1.3885                 2.0885                 0.9280
 IR Inten    --     25.9277                24.3549                 1.6088

                     25                     26                     27
                      A                      A                      A
 Frequencies --   1175.7535              1207.6765              1223.2195
 Red. masses --      1.7216                 1.7508                 1.5850
 Frc consts  --      1.4022                 1.5045                 1.3973
 IR Inten    --     15.5930                24.7582                 5.7255

                     28                     29                     30
                      A                      A                      A
 Frequencies --   1236.5532              1269.9987              1321.7739
 Red. masses --      1.2566                 1.5318                 1.7018
 Frc consts  --      1.1321                 1.4557                 1.7518
 IR Inten    --      1.1073                32.0655                 0.4556

                     31                     32                     33
                      A                      A                      A
 Frequencies --   1328.4894              1368.6820              1378.8940
 Red. masses --      1.3912                 1.8769                 1.5601
 Frc consts  --      1.4466                 2.0715                 1.7477
 IR Inten    --      3.0840                 8.3529                11.6765

                     34                     35                     36
                      A                      A                      A
 Frequencies --   1408.3861              1429.6863              1473.3948
 Red. masses --      1.2188                 1.2641                 1.0820
 Frc consts  --      1.4243                 1.5223                 1.3839
 IR Inten    --     67.1165                 6.2800                 4.8307

                     37                     38                     39
                      A                      A                      A
 Frequencies --   1485.2304              1494.4949              1504.4833
 Red. masses --      1.0809                 1.0896                 1.1008
 Frc consts  --      1.4048                 1.4338                 1.4681
 IR Inten    --      1.8721                 1.3987                 0.9695

                     40                     41                     42
                      A                      A                      A
 Frequencies --   1684.8193              1770.6574              2894.0801
 Red. masses --      7.6021                10.2614                 1.0815
 Frc consts  --     12.7142                18.9550                 5.3369
 IR Inten    --     39.7004               255.6273                99.7246

                     43                     44                     45
                      A                      A                      A
 Frequencies --   3020.8216              3024.0181              3027.0551
 Red. masses --      1.0572                 1.0652                 1.0707
 Frc consts  --      5.6842                 5.7390                 5.7802
 IR Inten    --     42.5690                16.2439                23.1278

                     46                     47                     48
                      A                      A                      A
 Frequencies --   3049.5944              3058.3916              3064.0356
 Red. masses --      1.0761                 1.1033                 1.0854
 Frc consts  --      5.8965                 6.0803                 6.0039
 IR Inten    --     13.7074                13.6222                43.5619

                     49                     50                     51
                      A                      A                      A
 Frequencies --   3088.8985              3107.0468              3810.5948
 Red. masses --      1.0899                 1.1029                 1.0664
 Frc consts  --      6.1272                 6.2730                 9.1234
 IR Inten    --     15.9271                32.7208                19.6269

 - Thermochemistry -
 -------------------
 Temperature   298.150 Kelvin.  Pressure   1.00000 Atm.
 Atom     1 has atomic number  8 and mass  15.99491

 Molecular mass:   126.06808 amu.
 Principal axes and moments of inertia in atomic units:
                           1         2         3
     Eigenvalues --   860.554301368.419722107.34149
           X            0.99890  -0.04669  -0.00402
           Y            0.04671   0.99889   0.00646
           Z            0.00372  -0.00664   0.99997
 This molecule is an asymmetric top.
 Rotational symmetry number  1.
 Warning -- assumption of classical behavior for rotation
           may cause significant error
 Rotational temperatures (Kelvin)      0.10065     0.06329     0.04110
 Rotational constants (GHZ):           2.09718     1.31885     0.85641
 Zero-point vibrational energy     417755.0 (Joules/Mol)
                                   99.84583 (Kcal/Mol)
 Warning -- explicit consideration of  11 degrees of freedom as
           vibrations may cause significant error
 Vibrational temperatures:     79.10   171.72   182.49   221.84   292.86
          (Kelvin)            350.85   430.66   515.94   564.53   733.98
                              753.79   912.75   973.56  1085.35  1223.49
                             1273.60  1316.23  1337.68  1425.54  1459.79
                             1475.18  1525.47  1537.77  1646.02  1691.64
                             1737.58  1759.94  1779.12  1827.24  1901.74
                             1911.40  1969.23  1983.92  2026.35  2057.00
                             2119.88  2136.91  2150.24  2164.61  2424.08
                             2547.58  4163.93  4346.28  4350.88  4355.25
                             4387.68  4400.34  4408.46  4444.23  4470.34
                             5482.59

 Zero-point correction=                           0.159114 (Hartree/Particle)
 Thermal correction to Energy=                    0.168269
 Thermal correction to Enthalpy=                  0.169214
 Thermal correction to Gibbs Free Energy=         0.124505
 Sum of electronic and zero-point Energies=           -423.052462
 Sum of electronic and thermal Energies=              -423.043307
 Sum of electronic and thermal Enthalpies=            -423.042363
 Sum of electronic and thermal Free Energies=         -423.087071

                     E (Thermal)             CV                S
                      KCal/Mol        Cal/Mol-Kelvin    Cal/Mol-Kelvin
 Total                  105.591             33.048             94.096
 Electronic               0.000              0.000              0.000
 Translational            0.889              2.981             40.409
 Rotational               0.889              2.981             29.297
 Vibrational            103.813             27.087             24.391
 Vibration     1          0.596              1.976              4.630
 Vibration     2          0.609              1.933              3.111
 Vibration     3          0.611              1.926              2.993
 Vibration     4          0.620              1.898              2.620
 Vibration     5          0.639              1.835              2.101
 Vibration     6          0.659              1.773              1.775
 Vibration     7          0.692              1.675              1.421
 Vibration     8          0.733              1.558              1.128
 Vibration     9          0.760              1.486              0.991
 Vibration    10          0.865              1.228              0.633
 Vibration    11          0.879              1.197              0.601

 Optimization completed.
    -- Stationary point found.
 Normal termination of Gaussian 09 at Tue Jan 28 12:58:48 2020.
