 Gaussian 09, Revision D.01,
 Gaussian 09:  ES64L-G09RevD.01 24-Apr-2013

 -----------------------------
 # b3lyp 6-31G(2df,p) opt Freq
 -----------------------------

 -----
 titel
 -----
 Symbolic Z-matrix:
 Charge =  0 Multiplicity = 1

 SCF Done:  E(RB3LYP) =  -423.150524538     A.U. after   13 cycles
 Optimization completed.
    -- Stationary point found.
 Normal termination of Gaussian 09 at Mon Jan 27 11:14:22 2020.

 ----------------------------------------------------------------------
 #N Geom=AllCheck Guess=TCheck SCRF=Check GenChk RB3LYP/6-31G(2df,p) Fr
 eq
 ----------------------------------------------------------------------

 Structure from the checkpoint file:  "/scratch/puck/g09_fb5d97c5-16fd-4f11-8f59-1f5af1b4b50a/Gau-162847.chk"
 -----
 titel
 -----
 Charge =  0 Multiplicity = 1

                         Standard orientation:
 ---------------------------------------------------------------------
 Center     Atomic      Atomic             Coordinates (Angstroms)
 Number     Number       Type             X           Y           Z
 ---------------------------------------------------------------------
      1          6           0        2.116583    0.879684   -0.362193
      2          6           0        1.810880   -0.602523   -0.508995
      3          6           0        0.391992   -0.986535   -0.887134
      4          6           0       -0.482321   -0.175245    0.093845
      5          6           0       -1.874856   -0.716667    0.467216
      6          8           0       -2.533158    0.348027   -0.247864
      7          6           0       -1.283418    1.026103   -0.478726
      8          8           0        0.334904    0.112956    1.218765
      9          6           0        1.684370    0.065177    0.829295
     10          1           0        3.160338    1.171551   -0.409056
     11          1           0        1.431667    1.611626   -0.777964
     12          1           0        2.617728   -1.288195   -0.737495
     13          1           0        0.130087   -0.776139   -1.928142
     14          1           0        0.246840   -2.059885   -0.719032
     15          1           0       -2.139474   -1.705663    0.074609
     16          1           0       -2.068533   -0.681651    1.546443
     17          1           0       -1.136997    1.270980   -1.538126
     18          1           0       -1.180549    1.932539    0.131275
     19          1           0        2.345537   -0.102996    1.670436
 ---------------------------------------------------------------------

 SCF Done:  E(RB3LYP) =  -423.150524538     A.U. after    1 cycles

 The electronic state is 1-A.
 Alpha  occ. eigenvalues --  -19.14928 -19.13096 -10.24400 -10.23809 -10.22642
 Alpha  occ. eigenvalues --  -10.22455 -10.19686 -10.19457 -10.18977  -1.05855
 Alpha  occ. eigenvalues --   -1.02968  -0.85303  -0.77233  -0.69220  -0.68531
 Alpha  occ. eigenvalues --   -0.60575  -0.58456  -0.54747  -0.52483  -0.48989
 Alpha  occ. eigenvalues --   -0.47892  -0.45405  -0.44517  -0.42369  -0.40230
 Alpha  occ. eigenvalues --   -0.39458  -0.38282  -0.36988  -0.34836  -0.31304
 Alpha  occ. eigenvalues --   -0.30246  -0.28601  -0.24759  -0.23736
 Alpha virt. eigenvalues --    0.06548   0.08672   0.09811   0.11147   0.12409
 Alpha virt. eigenvalues --    0.13063   0.14076   0.15502   0.16318   0.17227
 Alpha virt. eigenvalues --    0.17836   0.18612   0.19964   0.20884   0.22169

 Mulliken charges:
               1
     1  C   -0.326274
     2  C   -0.073993
     3  C   -0.301332
     4  C    0.338274
     5  C   -0.132391
     6  O   -0.274159
     7  C   -0.116357
     8  O   -0.290987
     9  C    0.107755
    10  H    0.115396
    11  H    0.122112
    12  H    0.093829
    13  H    0.114097
    14  H    0.109600
    15  H    0.100380
    16  H    0.110520
    17  H    0.095888
    18  H    0.104407
    19  H    0.103235
 Sum of Mulliken charges =   0.00000

 Dipole moment (field-independent basis, Debye):
    X=              2.2652    Y=             -0.8318    Z=             -0.7164  Tot=              2.5172
 Quadrupole moment (field-independent basis, Debye-Ang):
   XX=            -56.1526   YY=            -50.9977   ZZ=            -54.1714
   XY=              1.4256   XZ=             -0.6577   YZ=             -0.7987

  Exact polarizability:  82.553   3.668  71.990  -0.669  -1.464  66.521
 Approx polarizability: 107.755   3.986 106.609   0.090  -1.935 104.069

                      1                      2                      3
                      A                      A                      A
 Frequencies --     86.8586                98.6140               227.2187
 Red. masses --      3.7446                 3.7809                 2.3598
 Frc consts  --      0.0166                 0.0217                 0.0718
 IR Inten    --      3.9169                 0.6261                 0.1169

                      4                      5                      6
                      A                      A                      A
 Frequencies --    318.1757               379.8769               401.4933
 Red. masses --      2.0200                 2.2015                 2.6586
 Frc consts  --      0.1205                 0.1872                 0.2525
 IR Inten    --      2.1390                 1.1204                 1.0536

                      7                      8                      9
                      A                      A                      A
 Frequencies --    441.0363               496.9346               676.4902
 Red. masses --      4.2735                 2.9715                 3.3023
 Frc consts  --      0.4898                 0.4323                 0.8904
 IR Inten    --      5.2250                 2.3748                 1.6470

                     10                     11                     12
                      A                      A                      A
 Frequencies --    754.4100               773.0402               810.1794
 Red. masses --      3.7221                 2.4859                 1.5361
 Frc consts  --      1.2481                 0.8752                 0.5941
 IR Inten    --     14.3717                10.9226                 7.9496

                     13                     14                     15
                      A                      A                      A
 Frequencies --    834.5403               895.0644               905.8236
 Red. masses --      2.7016                 2.2639                 1.9820
 Frc consts  --      1.1086                 1.0686                 0.9582
 IR Inten    --      1.8874                10.2582                 7.2867

                     16                     17                     18
                      A                      A                      A
 Frequencies --    924.5736               952.0517               972.4943
 Red. masses --      2.0427                 1.6126                 2.4302
 Frc consts  --      1.0288                 0.8612                 1.3542
 IR Inten    --     21.8491                 3.9448                 6.2764

                     19                     20                     21
                      A                      A                      A
 Frequencies --   1000.6212              1006.6077              1036.8696
 Red. masses --      3.6808                 1.7747                11.2693
 Frc consts  --      2.1713                 1.0595                 7.1383
 IR Inten    --      7.1499                 8.3287                83.1477

                     22                     23                     24
                      A                      A                      A
 Frequencies --   1039.0905              1075.8997              1089.8762
 Red. masses --      1.3782                 1.8001                 1.2277
 Frc consts  --      0.8767                 1.2277                 0.8592
 IR Inten    --      4.0453                 8.5816                 2.1434

                     25                     26                     27
                      A                      A                      A
 Frequencies --   1131.7841              1151.2664              1156.5798
 Red. masses --      2.1790                 1.3889                 1.5631
 Frc consts  --      1.6445                 1.0846                 1.2320
 IR Inten    --      2.2675                 1.0273                 9.2670

                     28                     29                     30
                      A                      A                      A
 Frequencies --   1164.4706              1171.0396              1203.8627
 Red. masses --      1.5509                 2.4664                 1.9064
 Frc consts  --      1.2391                 1.9928                 1.6279
 IR Inten    --     26.2706                81.3221                24.5126

                     31                     32                     33
                      A                      A                      A
 Frequencies --   1231.9418              1246.9037              1302.2479
 Red. masses --      1.5549                 1.7530                 1.3123
 Frc consts  --      1.3904                 1.6058                 1.3112
 IR Inten    --      5.9231                18.4844                 2.5245

                     34                     35                     36
                      A                      A                      A
 Frequencies --   1316.3554              1343.0208              1381.7220
 Red. masses --      1.9923                 1.5974                 1.7235
 Frc consts  --      2.0340                 1.6976                 1.9387
 IR Inten    --     15.8294                 1.3713                 1.3519

                     37                     38                     39
                      A                      A                      A
 Frequencies --   1392.3839              1477.6670              1490.3699
 Red. masses --      1.6815                 1.2561                 1.1118
 Frc consts  --      1.9208                 1.6159                 1.4550
 IR Inten    --     13.0306                 8.7648                 4.2442

                     40                     41                     42
                      A                      A                      A
 Frequencies --   1501.1218              1526.7096              3005.2577
 Red. masses --      1.0848                 1.1149                 1.0522
 Frc consts  --      1.4402                 1.5311                 5.5991
 IR Inten    --      0.6496                 1.9274                90.5789

                     43                     44                     45
                      A                      A                      A
 Frequencies --   3019.6879              3039.9024              3059.9740
 Red. masses --      1.0571                 1.0627                 1.1113
 Frc consts  --      5.6791                 5.7860                 6.1306
 IR Inten    --      9.4582                21.1930                30.3532

                     46                     47                     48
                      A                      A                      A
 Frequencies --   3067.7791              3088.2256              3129.5893
 Red. masses --      1.1112                 1.1018                 1.0543
 Frc consts  --      6.1614                 6.1909                 6.0838
 IR Inten    --     40.8565                20.9340                 9.6191

                     49                     50                     51
                      A                      A                      A
 Frequencies --   3180.6286              3192.1357              3216.6716
 Red. masses --      1.0899                 1.0960                 1.1145
 Frc consts  --      6.4960                 6.5802                 6.7942
 IR Inten    --     10.3299                15.1974                15.2788

 - Thermochemistry -
 -------------------
 Temperature   298.150 Kelvin.  Pressure   1.00000 Atm.
 Atom     1 has atomic number  6 and mass  12.00000

 Molecular mass:   126.06808 amu.
 Principal axes and moments of inertia in atomic units:
                           1         2         3
     Eigenvalues --   470.454591426.372451432.65878
           X            0.99989   0.00223  -0.01492
           Y           -0.01142   0.75817  -0.65196
           Z            0.00985   0.65205   0.75811
 This molecule is an asymmetric top.
 Rotational symmetry number  1.
 Warning -- assumption of classical behavior for rotation
           may cause significant error
 Rotational temperatures (Kelvin)      0.18411     0.06072     0.06046
 Rotational constants (GHZ):           3.83616     1.26527     1.25971
 Zero-point vibrational energy     421008.6 (Joules/Mol)
                                  100.62347 (Kcal/Mol)
 Warning -- explicit consideration of   8 degrees of freedom as
           vibrations may cause significant error
 Vibrational temperatures:    124.97   141.88   326.92   457.78   546.56
          (Kelvin)            577.66   634.55   714.98   973.32  1085.43
                             1112.23  1165.67  1200.72  1287.80  1303.28
                             1330.25  1369.79  1399.20  1439.67  1448.28
                             1491.82  1495.02  1547.98  1568.09  1628.38
                             1656.41  1664.06  1675.41  1684.86  1732.09
                             1772.49  1794.01  1873.64  1893.94  1932.30
                             1987.99  2003.33  2126.03  2144.31  2159.78
                             2196.59  4323.89  4344.65  4373.74  4402.61
                             4413.84  4443.26  4502.78  4576.21  4592.77
                             4628.07

 Zero-point correction=                           0.160354 (Hartree/Particle)
 Thermal correction to Energy=                    0.167826
 Thermal correction to Enthalpy=                  0.168770
 Thermal correction to Gibbs Free Energy=         0.128148
 Sum of electronic and zero-point Energies=           -422.990171
 Sum of electronic and thermal Energies=              -422.982698
 Sum of electronic and thermal Enthalpies=            -422.981754
 Sum of electronic and thermal Free Energies=         -423.022377

                     E (Thermal)             CV                S
                      KCal/Mol        Cal/Mol-Kelvin    Cal/Mol-Kelvin
 Total                  105.313             29.459             85.497
 Electronic               0.000              0.000              0.000
 Translational            0.889              2.981             40.409
 Rotational               0.889              2.981             28.354
 Vibrational            103.535             23.497             16.734
 Vibration     1          0.601              1.958              3.730
 Vibration     2          0.604              1.950              3.482
 Vibration     3          0.651              1.800              1.901
 Vibration     4          0.705              1.639              1.319
 Vibration     5          0.750              1.513              1.040
 Vibration     6          0.767              1.467              0.957
 Vibration     7          0.801              1.381              0.823
 Vibration     8          0.852              1.257              0.666

 Optimization completed.
    -- Stationary point found.
 Normal termination of Gaussian 09 at Mon Jan 27 11:57:06 2020.
