 Gaussian 09, Revision D.01,
 Gaussian 09:  ES64L-G09RevD.01 24-Apr-2013

 -----------------------------
 # b3lyp 6-31G(2df,p) opt Freq
 -----------------------------

 -----
 titel
 -----
 Symbolic Z-matrix:
 Charge =  0 Multiplicity = 1

 SCF Done:  E(RB3LYP) =  -423.134579065     A.U. after   14 cycles
 Optimization completed.
    -- Stationary point found.
 Normal termination of Gaussian 09 at Mon Jan 27 12:10:31 2020.

 ----------------------------------------------------------------------
 #N Geom=AllCheck Guess=TCheck SCRF=Check GenChk RB3LYP/6-31G(2df,p) Fr
 eq
 ----------------------------------------------------------------------

 Structure from the checkpoint file:  "/scratch/puck/g09_d16d2816-bae8-4630-a86f-5080278da826/Gau-49036.chk"
 -----
 titel
 -----
 Charge =  0 Multiplicity = 1

                         Standard orientation:
 ---------------------------------------------------------------------
 Center     Atomic      Atomic             Coordinates (Angstroms)
 Number     Number       Type             X           Y           Z
 ---------------------------------------------------------------------
      1          6           0        2.597329    0.253346    0.616339
      2          8           0        2.523261   -0.404518   -0.646275
      3          6           0        1.363377    0.302210   -0.180876
      4          6           0        0.173088   -0.546821    0.154530
      5          6           0       -0.984530   -0.027183    1.083758
      6          6           0       -1.889307   -1.070973    0.354673
      7          6           0       -1.019174   -0.623027   -0.841335
      8          8           0       -1.384817    0.757912   -1.026847
      9          6           0       -1.408491    1.242841    0.336985
     10          1           0        2.649855   -0.404204    1.483945
     11          1           0        3.251365    1.123645    0.656965
     12          1           0        1.153239    1.210035   -0.744007
     13          1           0        0.505977   -1.539422    0.466299
     14          1           0       -0.888461    0.025784    2.167542
     15          1           0       -1.699866   -2.096918    0.672956
     16          1           0       -2.960768   -0.867512    0.292188
     17          1           0       -0.980394   -1.124118   -1.806657
     18          1           0       -0.714483    2.083007    0.451258
     19          1           0       -2.417771    1.580196    0.600036
 ---------------------------------------------------------------------

 SCF Done:  E(RB3LYP) =  -423.134579065     A.U. after    1 cycles

 The electronic state is 1-A.
 Alpha  occ. eigenvalues --  -19.14786 -19.13740 -10.23756 -10.23435 -10.23279
 Alpha  occ. eigenvalues --  -10.22908 -10.20469 -10.19557 -10.18941  -1.06729
 Alpha  occ. eigenvalues --   -1.04152  -0.84136  -0.72707  -0.71277  -0.65697
 Alpha  occ. eigenvalues --   -0.60552  -0.57726  -0.56805  -0.53015  -0.50141
 Alpha  occ. eigenvalues --   -0.48531  -0.45955  -0.42439  -0.40297  -0.39424
 Alpha  occ. eigenvalues --   -0.39027  -0.36865  -0.35498  -0.34593  -0.32755
 Alpha  occ. eigenvalues --   -0.31716  -0.29428  -0.26281  -0.24306
 Alpha virt. eigenvalues --    0.07961   0.09027   0.10930   0.11264   0.12368
 Alpha virt. eigenvalues --    0.13125   0.14065   0.14539   0.15081   0.16092
 Alpha virt. eigenvalues --    0.16834   0.17546   0.19602   0.20188   0.20501

 Mulliken charges:
               1
     1  C   -0.187050
     2  O   -0.239207
     3  C    0.045779
     4  C   -0.000112
     5  C   -0.092962
     6  C   -0.238293
     7  C    0.087794
     8  O   -0.280653
     9  C   -0.085070
    10  H    0.108379
    11  H    0.114193
    12  H    0.109353
    13  H    0.085465
    14  H    0.073727
    15  H    0.105318
    16  H    0.101302
    17  H    0.086941
    18  H    0.101913
    19  H    0.103184
 Sum of Mulliken charges =   0.00000

 Dipole moment (field-independent basis, Debye):
    X=             -0.7498    Y=              0.0406    Z=              2.5017  Tot=              2.6120
 Quadrupole moment (field-independent basis, Debye-Ang):
   XX=            -55.9199   YY=            -51.4504   ZZ=            -54.1053
   XY=              3.6780   XZ=              1.7061   YZ=              1.2581

  Exact polarizability:  87.265   1.975  71.080   2.486   1.219  66.423
 Approx polarizability: 114.190  -1.539 106.842   3.026   2.394 106.258

                      1                      2                      3
                      A                      A                      A
 Frequencies --     63.5684               162.8145               178.5019
 Red. masses --      3.4667                 3.5966                 3.8695
 Frc consts  --      0.0083                 0.0562                 0.0726
 IR Inten    --      2.2499                 0.9763                 2.9600

                      4                      5                      6
                      A                      A                      A
 Frequencies --    320.0281               356.3539               458.8644
 Red. masses --      4.3172                 2.7195                 3.0588
 Frc consts  --      0.2605                 0.2035                 0.3795
 IR Inten    --      0.7402                13.3424                 0.3386

                      7                      8                      9
                      A                      A                      A
 Frequencies --    501.6211               543.4842               708.4278
 Red. masses --      1.9739                 3.6515                 4.4131
 Frc consts  --      0.2926                 0.6355                 1.3049
 IR Inten    --      2.6520                 0.8792                 2.0915

                     10                     11                     12
                      A                      A                      A
 Frequencies --    812.3704               834.6122               851.2143
 Red. masses --      2.2215                 2.8454                 3.5862
 Frc consts  --      0.8638                 1.1678                 1.5310
 IR Inten    --      3.2264                 8.2657                15.4085

                     13                     14                     15
                      A                      A                      A
 Frequencies --    862.6215               872.7724               895.7209
 Red. masses --      3.0437                 2.8559                 2.9917
 Frc consts  --      1.3344                 1.2817                 1.4142
 IR Inten    --      3.1098                15.6650                10.4362

                     16                     17                     18
                      A                      A                      A
 Frequencies --    921.6421               954.2777               956.2736
 Red. masses --      3.3044                 1.6626                 1.9888
 Frc consts  --      1.6537                 0.8920                 1.0715
 IR Inten    --     18.3101                17.2266                34.0300

                     19                     20                     21
                      A                      A                      A
 Frequencies --    989.3149              1016.5250              1041.6859
 Red. masses --      1.6184                 2.3466                 2.2863
 Frc consts  --      0.9333                 1.4287                 1.4617
 IR Inten    --      7.3727                21.8425                 3.0589

                     22                     23                     24
                      A                      A                      A
 Frequencies --   1065.8343              1095.5361              1108.4906
 Red. masses --      2.1473                 1.1686                 1.2458
 Frc consts  --      1.4372                 0.8264                 0.9019
 IR Inten    --     14.9692                 0.5425                 0.5943

                     25                     26                     27
                      A                      A                      A
 Frequencies --   1124.6484              1154.0494              1171.8684
 Red. masses --      1.5796                 1.4431                 1.4636
 Frc consts  --      1.1771                 1.1324                 1.1843
 IR Inten    --      4.0375                 1.0073                 3.5256

                     28                     29                     30
                      A                      A                      A
 Frequencies --   1174.6539              1193.7681              1195.8401
 Red. masses --      1.4897                 1.3934                 1.8976
 Frc consts  --      1.2110                 1.1699                 1.5989
 IR Inten    --      7.3001                 1.5497                 3.5991

                     31                     32                     33
                      A                      A                      A
 Frequencies --   1226.4208              1254.8560              1281.5107
 Red. masses --      1.5254                 1.5495                 1.3740
 Frc consts  --      1.3518                 1.4376                 1.3295
 IR Inten    --      7.7888                 2.8176                 4.0369

                     34                     35                     36
                      A                      A                      A
 Frequencies --   1292.9367              1295.2405              1323.8913
 Red. masses --      1.3970                 1.7778                 1.5690
 Frc consts  --      1.3759                 1.7572                 1.6203
 IR Inten    --      1.0258                 9.7583                 5.5575

                     37                     38                     39
                      A                      A                      A
 Frequencies --   1370.6737              1457.1262              1494.4845
 Red. masses --      1.4242                 1.6853                 1.1357
 Frc consts  --      1.5765                 2.1083                 1.4945
 IR Inten    --      2.2125                 6.1762                 1.7888

                     40                     41                     42
                      A                      A                      A
 Frequencies --   1529.3941              1532.9827              3027.5078
 Red. masses --      1.3532                 1.0987                 1.0562
 Frc consts  --      1.8649                 1.5212                 5.7036
 IR Inten    --      2.2380                 0.3972                60.0563

                     43                     44                     45
                      A                      A                      A
 Frequencies --   3065.9481              3072.1848              3076.9571
 Red. masses --      1.1082                 1.0596                 1.0501
 Frc consts  --      6.1379                 5.8921                 5.8579
 IR Inten    --     24.3241                41.6374                27.9114

                     46                     47                     48
                      A                      A                      A
 Frequencies --   3090.9812              3127.0952              3128.8831
 Red. masses --      1.0846                 1.0903                 1.0889
 Frc consts  --      6.1052                 6.2815                 6.2808
 IR Inten    --      8.0830                37.7991                 7.6710

                     49                     50                     51
                      A                      A                      A
 Frequencies --   3140.9902              3146.2445              3162.7608
 Red. masses --      1.1079                 1.0931                 1.1184
 Frc consts  --      6.4401                 6.3750                 6.5915
 IR Inten    --     25.6239                27.5960                31.9642

 - Thermochemistry -
 -------------------
 Temperature   298.150 Kelvin.  Pressure   1.00000 Atm.
 Atom     1 has atomic number  6 and mass  12.00000

 Molecular mass:   126.06808 amu.
 Principal axes and moments of inertia in atomic units:
                           1         2         3
     Eigenvalues --   498.013191545.273721567.98091
           X            0.99984   0.01642   0.00698
           Y           -0.01721   0.99082   0.13411
           Z           -0.00472  -0.13421   0.99094
 This molecule is an asymmetric top.
 Rotational symmetry number  1.
 Warning -- assumption of classical behavior for rotation
           may cause significant error
 Rotational temperatures (Kelvin)      0.17392     0.05605     0.05524
 Rotational constants (GHZ):           3.62388     1.16791     1.15100
 Zero-point vibrational energy     422798.9 (Joules/Mol)
                                  101.05136 (Kcal/Mol)
 Warning -- explicit consideration of   8 degrees of freedom as
           vibrations may cause significant error
 Vibrational temperatures:     91.46   234.25   256.82   460.45   512.71
          (Kelvin)            660.20   721.72   781.95  1019.27  1168.82
                             1200.82  1224.71  1241.12  1255.72  1288.74
                             1326.04  1372.99  1375.86  1423.40  1462.55
                             1498.75  1533.50  1576.23  1594.87  1618.12
                             1660.42  1686.06  1690.06  1717.56  1720.54
                             1764.54  1805.46  1843.81  1860.25  1863.56
                             1904.78  1972.09  2096.48  2150.23  2200.45
                             2205.62  4355.90  4411.21  4420.18  4427.05
                             4447.23  4499.19  4501.76  4519.18  4526.74
                             4550.50

 Zero-point correction=                           0.161036 (Hartree/Particle)
 Thermal correction to Energy=                    0.168345
 Thermal correction to Enthalpy=                  0.169289
 Thermal correction to Gibbs Free Energy=         0.128776
 Sum of electronic and zero-point Energies=           -422.973543
 Sum of electronic and thermal Energies=              -422.966234
 Sum of electronic and thermal Enthalpies=            -422.965290
 Sum of electronic and thermal Free Energies=         -423.005804

                     E (Thermal)             CV                S
                      KCal/Mol        Cal/Mol-Kelvin    Cal/Mol-Kelvin
 Total                  105.638             28.845             85.268
 Electronic               0.000              0.000              0.000
 Translational            0.889              2.981             40.409
 Rotational               0.889              2.981             28.580
 Vibrational            103.861             22.883             16.279
 Vibration     1          0.597              1.972              4.343
 Vibration     2          0.623              1.888              2.517
 Vibration     3          0.629              1.869              2.344
 Vibration     4          0.706              1.635              1.310
 Vibration     5          0.732              1.562              1.138
 Vibration     6          0.817              1.341              0.769
 Vibration     7          0.857              1.246              0.654
 Vibration     8          0.899              1.154              0.558

 Optimization completed.
    -- Stationary point found.
 Normal termination of Gaussian 09 at Mon Jan 27 12:51:16 2020.
