 Gaussian 09, Revision D.01,
 Gaussian 09:  ES64L-G09RevD.01 24-Apr-2013

 -----------------------------
 # b3lyp 6-31G(2df,p) opt Freq
 -----------------------------

 -----
 titel
 -----
 Symbolic Z-matrix:
 Charge =  0 Multiplicity = 1

 SCF Done:  E(RB3LYP) =  -423.196645254     A.U. after   14 cycles
 Optimization completed.
    -- Stationary point found.
 Normal termination of Gaussian 09 at Mon Jan 27 23:04:20 2020.

 ----------------------------------------------------------------------
 #N Geom=AllCheck Guess=TCheck SCRF=Check GenChk RB3LYP/6-31G(2df,p) Fr
 eq
 ----------------------------------------------------------------------

 Structure from the checkpoint file:  "/scratch/puck/g09_89861ce0-82e3-40ee-8154-3834b5ca58f7/Gau-182267.chk"
 -----
 titel
 -----
 Charge =  0 Multiplicity = 1

                         Standard orientation:
 ---------------------------------------------------------------------
 Center     Atomic      Atomic             Coordinates (Angstroms)
 Number     Number       Type             X           Y           Z
 ---------------------------------------------------------------------
      1          6           0        1.970377   -1.447397   -0.384066
      2          6           0        0.654177   -0.702985   -0.564863
      3          6           0       -0.489310   -0.993112    0.483856
      4          6           0        0.204097    0.066270    1.405511
      5          6           0        0.548333    0.728969    0.033491
      6          8           0        1.628846    1.585854   -0.151960
      7          6           0       -0.849371    1.167764   -0.455067
      8          6           0       -1.601073   -0.141317   -0.106955
      9          8           0       -2.761187   -0.401948   -0.272537
     10          1           0        2.320893   -1.462901    0.650653
     11          1           0        1.868403   -2.484869   -0.717869
     12          1           0        2.749951   -0.973774   -0.988503
     13          1           0        0.342346   -0.776797   -1.613292
     14          1           0       -0.742455   -1.996648    0.817728
     15          1           0       -0.424557    0.621026    2.108121
     16          1           0        1.077796   -0.331525    1.919444
     17          1           0        1.395946    2.458572    0.182341
     18          1           0       -1.263538    2.021639    0.092685
     19          1           0       -0.889432    1.384874   -1.526772
 ---------------------------------------------------------------------

 SCF Done:  E(RB3LYP) =  -423.196645254     A.U. after    1 cycles

 The electronic state is 1-A.
 Alpha  occ. eigenvalues --  -19.15264 -19.12897 -10.26758 -10.25139 -10.20335
 Alpha  occ. eigenvalues --  -10.20154 -10.19499 -10.19149 -10.18203  -1.04220
 Alpha  occ. eigenvalues --   -1.03735  -0.89555  -0.75211  -0.71413  -0.66892
 Alpha  occ. eigenvalues --   -0.64043  -0.55753  -0.53477  -0.51300  -0.49368
 Alpha  occ. eigenvalues --   -0.45756  -0.44262  -0.42496  -0.40497  -0.39938
 Alpha  occ. eigenvalues --   -0.39629  -0.37968  -0.37320  -0.35648  -0.35389
 Alpha  occ. eigenvalues --   -0.31933  -0.30417  -0.27219  -0.23641
 Alpha virt. eigenvalues --   -0.00717   0.06187   0.09714   0.11177   0.12024
 Alpha virt. eigenvalues --    0.13072   0.14084   0.15212   0.15740   0.16656
 Alpha virt. eigenvalues --    0.17378   0.18628   0.20514   0.22072   0.22322

 Mulliken charges:
               1
     1  C   -0.434997
     2  C   -0.004938
     3  C   -0.142653
     4  C   -0.320474
     5  C    0.420789
     6  O   -0.488358
     7  C   -0.410884
     8  C    0.436955
     9  O   -0.334446
    10  H    0.122048
    11  H    0.120153
    12  H    0.135510
    13  H    0.076684
    14  H    0.083712
    15  H    0.099426
    16  H    0.117415
    17  H    0.281852
    18  H    0.114263
    19  H    0.127943
 Sum of Mulliken charges =   0.00000

 Dipole moment (field-independent basis, Debye):
    X=              2.0751    Y=              1.0736    Z=              0.8890  Tot=              2.4998
 Quadrupole moment (field-independent basis, Debye-Ang):
   XX=            -66.0888   YY=            -47.4668   ZZ=            -51.6398
   XY=             -3.0676   XZ=             -0.3271   YZ=              1.2718

  Exact polarizability:  83.640  -1.918  76.243   0.430   0.062  66.408
 Approx polarizability: 123.555   3.158 109.639   1.526   0.523 102.159

                      1                      2                      3
                      A                      A                      A
 Frequencies --    128.4227               188.7988               205.3076
 Red. masses --      5.0017                 1.1074                 2.3506
 Frc consts  --      0.0486                 0.0233                 0.0584
 IR Inten    --      4.5997                 0.8175                10.0282

                      4                      5                      6
                      A                      A                      A
 Frequencies --    231.1945               255.2048               321.7377
 Red. masses --      1.1616                 2.8219                 4.3867
 Frc consts  --      0.0366                 0.1083                 0.2675
 IR Inten    --     65.0267                 8.2158                20.3187

                      7                      8                      9
                      A                      A                      A
 Frequencies --    407.4214               434.0319               496.9341
 Red. masses --      3.0156                 2.1902                 4.0110
 Frc consts  --      0.2949                 0.2431                 0.5836
 IR Inten    --      2.7780                 0.7925                 2.6820

                     10                     11                     12
                      A                      A                      A
 Frequencies --    513.3279               565.6674               612.2579
 Red. masses --      3.5033                 3.7214                 2.4208
 Frc consts  --      0.5439                 0.7016                 0.5347
 IR Inten    --      3.5432                 8.2487                 0.6639

                     13                     14                     15
                      A                      A                      A
 Frequencies --    664.1217               770.8730               784.9551
 Red. masses --      3.7287                 2.8687                 2.4663
 Frc consts  --      0.9689                 1.0044                 0.8953
 IR Inten    --      3.2357                 6.7845                 4.2755

                     16                     17                     18
                      A                      A                      A
 Frequencies --    801.9642               856.6044               930.8491
 Red. masses --      2.8431                 2.5301                 2.0210
 Frc consts  --      1.0773                 1.0938                 1.0317
 IR Inten    --      3.3721                 7.5675                 2.2923

                     19                     20                     21
                      A                      A                      A
 Frequencies --    949.9885              1001.8502              1018.0221
 Red. masses --      1.7375                 1.6678                 1.7145
 Frc consts  --      0.9239                 0.9863                 1.0469
 IR Inten    --      4.8898                15.7524                13.4722

                     22                     23                     24
                      A                      A                      A
 Frequencies --   1044.4384              1063.1198              1086.4311
 Red. masses --      1.8867                 1.6544                 1.8712
 Frc consts  --      1.2126                 1.1017                 1.3013
 IR Inten    --      6.4747                 2.9396                 3.1088

                     25                     26                     27
                      A                      A                      A
 Frequencies --   1114.2970              1144.4617              1159.8860
 Red. masses --      1.6894                 1.5299                 1.5808
 Frc consts  --      1.2359                 1.1807                 1.2530
 IR Inten    --     41.5185                26.4508                 8.5978

                     28                     29                     30
                      A                      A                      A
 Frequencies --   1187.6601              1207.3360              1220.6487
 Red. masses --      1.6579                 1.9339                 1.9106
 Frc consts  --      1.3778                 1.6609                 1.6772
 IR Inten    --     15.1018                10.1143                12.7040

                     31                     32                     33
                      A                      A                      A
 Frequencies --   1245.5379              1254.4550              1307.6548
 Red. masses --      1.5530                 2.0610                 2.6146
 Frc consts  --      1.4195                 1.9109                 2.6342
 IR Inten    --     10.9376                10.6031               164.6277

                     34                     35                     36
                      A                      A                      A
 Frequencies --   1364.4036              1405.7345              1414.9594
 Red. masses --      1.5900                 1.5440                 1.2530
 Frc consts  --      1.7439                 1.7976                 1.4781
 IR Inten    --      9.1436                 2.0719                 2.1112

                     37                     38                     39
                      A                      A                      A
 Frequencies --   1460.4025              1494.6450              1497.2071
 Red. masses --      1.1078                 1.0600                 1.0790
 Frc consts  --      1.3920                 1.3952                 1.4251
 IR Inten    --      2.9966                 1.1960                 6.5162

                     40                     41                     42
                      A                      A                      A
 Frequencies --   1519.0505              1870.9470              3031.7157
 Red. masses --      1.1052                12.4022                 1.0836
 Frc consts  --      1.5025                25.5784                 5.8683
 IR Inten    --      8.6249               281.6923                27.6182

                     43                     44                     45
                      A                      A                      A
 Frequencies --   3043.6722              3046.0933              3064.6811
 Red. masses --      1.0373                 1.0600                 1.0647
 Frc consts  --      5.6615                 5.7948                 5.8916
 IR Inten    --     29.5337                12.6228                23.6892

                     46                     47                     48
                      A                      A                      A
 Frequencies --   3099.3112              3107.3787              3120.2909
 Red. masses --      1.1034                 1.1013                 1.1008
 Frc consts  --      6.2450                 6.2652                 6.3146
 IR Inten    --     10.8723                16.7321                27.1717

                     49                     50                     51
                      A                      A                      A
 Frequencies --   3149.5646              3153.9042              3809.3596
 Red. masses --      1.0966                 1.0947                 1.0660
 Frc consts  --      6.4089                 6.4158                 9.1137
 IR Inten    --     14.8548                20.9704                23.7765

 - Thermochemistry -
 -------------------
 Temperature   298.150 Kelvin.  Pressure   1.00000 Atm.
 Atom     1 has atomic number  6 and mass  12.00000

 Molecular mass:   126.06808 amu.
 Principal axes and moments of inertia in atomic units:
                           1         2         3
     Eigenvalues --   666.778511206.953841501.60849
           X            0.99759  -0.06920  -0.00456
           Y            0.06924   0.99757   0.00769
           Z            0.00402  -0.00799   0.99996
 This molecule is an asymmetric top.
 Rotational symmetry number  1.
 Warning -- assumption of classical behavior for rotation
           may cause significant error
 Rotational temperatures (Kelvin)      0.12990     0.07176     0.05768
 Rotational constants (GHZ):           2.70666     1.49529     1.20187
 Zero-point vibrational energy     417668.9 (Joules/Mol)
                                   99.82526 (Kcal/Mol)
 Warning -- explicit consideration of  12 degrees of freedom as
           vibrations may cause significant error
 Vibrational temperatures:    184.77   271.64   295.39   332.64   367.18
          (Kelvin)            462.91   586.19   624.47   714.98   738.56
                              813.87   880.90   955.52  1109.11  1129.37
                             1153.85  1232.46  1339.28  1366.82  1441.44
                             1464.70  1502.71  1529.59  1563.13  1603.22
                             1646.62  1668.82  1708.78  1737.09  1756.24
                             1792.05  1804.88  1881.42  1963.07  2022.54
                             2035.81  2101.19  2150.46  2154.14  2185.57
                             2691.87  4361.96  4379.16  4382.64  4409.39
                             4459.21  4470.82  4489.40  4531.52  4537.76
                             5480.81

 Zero-point correction=                           0.159082 (Hartree/Particle)
 Thermal correction to Energy=                    0.167352
 Thermal correction to Enthalpy=                  0.168296
 Thermal correction to Gibbs Free Energy=         0.126744
 Sum of electronic and zero-point Energies=           -423.037564
 Sum of electronic and thermal Energies=              -423.029293
 Sum of electronic and thermal Enthalpies=            -423.028349
 Sum of electronic and thermal Free Energies=         -423.069902

                     E (Thermal)             CV                S
                      KCal/Mol        Cal/Mol-Kelvin    Cal/Mol-Kelvin
 Total                  105.015             32.736             87.455
 Electronic               0.000              0.000              0.000
 Translational            0.889              2.981             40.409
 Rotational               0.889              2.981             28.582
 Vibrational            103.238             26.774             18.465
 Vibration     1          0.611              1.925              2.970
 Vibration     2          0.633              1.855              2.240
 Vibration     3          0.640              1.832              2.085
 Vibration     4          0.653              1.793              1.870
 Vibration     5          0.666              1.754              1.694
 Vibration     6          0.707              1.632              1.301
 Vibration     7          0.772              1.454              0.936
 Vibration     8          0.795              1.396              0.846
 Vibration     9          0.852              1.257              0.666
 Vibration    10          0.868              1.220              0.626
 Vibration    11          0.922              1.106              0.513
 Vibration    12          0.971              1.006              0.429

 Optimization completed.
    -- Stationary point found.
 Normal termination of Gaussian 09 at Mon Jan 27 23:51:37 2020.
