 Gaussian 09, Revision D.01,
 Gaussian 09:  ES64L-G09RevD.01 24-Apr-2013

 -----------------------------
 # b3lyp 6-31G(2df,p) opt Freq
 -----------------------------

 -----
 titel
 -----
 Symbolic Z-matrix:
 Charge =  0 Multiplicity = 1

 SCF Done:  E(RB3LYP) =  -423.175117064     A.U. after   14 cycles
 Optimization completed.
    -- Stationary point found.
 Normal termination of Gaussian 09 at Mon Jan 27 22:57:11 2020.

 ----------------------------------------------------------------------
 #N Geom=AllCheck Guess=TCheck SCRF=Check GenChk RB3LYP/6-31G(2df,p) Fr
 eq
 ----------------------------------------------------------------------

 Structure from the checkpoint file:  "/scratch/puck/g09_ee6b25ef-5ccc-4c6f-bd28-e0fe510976e1/Gau-191710.chk"
 -----
 titel
 -----
 Charge =  0 Multiplicity = 1

                         Standard orientation:
 ---------------------------------------------------------------------
 Center     Atomic      Atomic             Coordinates (Angstroms)
 Number     Number       Type             X           Y           Z
 ---------------------------------------------------------------------
      1          6           0        0.612023    2.291288    0.089621
      2          6           0        0.320971    0.902700   -0.471547
      3          6           0        1.511148   -0.084369   -0.550458
      4          6           0        1.694765   -0.604039    0.890921
      5          6           0        0.339295   -1.227894    0.504203
      6          8           0        0.825361   -1.338226   -0.867969
      7          6           0       -0.616372   -0.001109    0.418361
      8          6           0       -1.923269   -0.329838   -0.253241
      9          8           0       -3.009944   -0.028883    0.174414
     10          1           0        1.312482    2.833926   -0.554474
     11          1           0       -0.305361    2.884345    0.154661
     12          1           0        1.046550    2.244502    1.093227
     13          1           0       -0.098400    1.000483   -1.478801
     14          1           0        2.339299    0.154071   -1.217856
     15          1           0        2.479577   -1.358154    0.951643
     16          1           0        1.747472    0.100366    1.723872
     17          1           0       -0.040879   -2.159136    0.923842
     18          1           0       -0.825067    0.441975    1.395612
     19          1           0       -1.810371   -0.885953   -1.210436
 ---------------------------------------------------------------------

 SCF Done:  E(RB3LYP) =  -423.175117064     A.U. after    1 cycles

 The electronic state is 1-A.
 Alpha  occ. eigenvalues --  -19.14604 -19.13403 -10.26418 -10.25305 -10.24813
 Alpha  occ. eigenvalues --  -10.20671 -10.19998 -10.19906 -10.18903  -1.06197
 Alpha  occ. eigenvalues --   -1.04004  -0.82371  -0.74901  -0.73988  -0.67981
 Alpha  occ. eigenvalues --   -0.60838  -0.56501  -0.55603  -0.52991  -0.48790
 Alpha  occ. eigenvalues --   -0.45675  -0.44860  -0.44025  -0.41471  -0.40554
 Alpha  occ. eigenvalues --   -0.39384  -0.38941  -0.36042  -0.35224  -0.34165
 Alpha  occ. eigenvalues --   -0.33348  -0.32324  -0.26332  -0.24249
 Alpha virt. eigenvalues --   -0.02113   0.08406   0.08723   0.10337   0.11460
 Alpha virt. eigenvalues --    0.12874   0.13967   0.14547   0.14950   0.15418
 Alpha virt. eigenvalues --    0.16704   0.17375   0.18469   0.19106   0.20765

 Mulliken charges:
               1
     1  C   -0.424300
     2  C    0.001880
     3  C    0.068663
     4  C   -0.237918
     5  C    0.047469
     6  O   -0.295636
     7  C   -0.084206
     8  C    0.140209
     9  O   -0.260390
    10  H    0.120753
    11  H    0.134129
    12  H    0.119934
    13  H    0.090544
    14  H    0.085575
    15  H    0.118971
    16  H    0.102805
    17  H    0.092573
    18  H    0.089037
    19  H    0.089907
 Sum of Mulliken charges =   0.00000

 Dipole moment (field-independent basis, Debye):
    X=              3.0837    Y=              0.8317    Z=              0.6741  Tot=              3.2643
 Quadrupole moment (field-independent basis, Debye-Ang):
   XX=            -62.3217   YY=            -52.6860   ZZ=            -52.6213
   XY=              2.0030   XZ=              2.0786   YZ=             -3.0882

  Exact polarizability:  85.992   0.373  73.784  -0.951  -0.472  66.523
 Approx polarizability: 124.439  -1.040 105.014  -6.678   2.948 106.760

                      1                      2                      3
                      A                      A                      A
 Frequencies --     76.1563               124.7967               207.6066
 Red. masses --      4.7630                 3.9490                 1.0785
 Frc consts  --      0.0163                 0.0362                 0.0274
 IR Inten    --      4.8920                 2.4421                 0.1449

                      4                      5                      6
                      A                      A                      A
 Frequencies --    241.6943               255.2483               302.1473
 Red. masses --      2.8286                 2.4489                 2.3302
 Frc consts  --      0.0974                 0.0940                 0.1253
 IR Inten    --      2.2440                 2.4293                 0.4436

                      7                      8                      9
                      A                      A                      A
 Frequencies --    409.9406               479.3318               504.9774
 Red. masses --      4.5178                 3.0572                 3.0554
 Frc consts  --      0.4473                 0.4139                 0.4590
 IR Inten    --      0.1430                15.7316                 1.7045

                     10                     11                     12
                      A                      A                      A
 Frequencies --    556.1565               691.5258               807.7681
 Red. masses --      3.7915                 3.4777                 3.0009
 Frc consts  --      0.6910                 0.9799                 1.1536
 IR Inten    --      5.0124                10.0692                 1.3974

                     13                     14                     15
                      A                      A                      A
 Frequencies --    812.1550               873.5939               876.7886
 Red. masses --      2.5405                 2.8441                 2.6609
 Frc consts  --      0.9873                 1.2788                 1.2052
 IR Inten    --      7.6944                15.9277                25.9345

                     16                     17                     18
                      A                      A                      A
 Frequencies --    895.4475               939.1207               950.7577
 Red. masses --      2.6637                 2.9075                 2.8400
 Frc consts  --      1.2584                 1.5108                 1.5126
 IR Inten    --      8.1810                11.7587                21.7590

                     19                     20                     21
                      A                      A                      A
 Frequencies --   1010.5252              1020.9795              1036.5778
 Red. masses --      1.6319                 1.4511                 1.4230
 Frc consts  --      0.9818                 0.8912                 0.9009
 IR Inten    --     18.4031                 4.9968                13.7780

                     22                     23                     24
                      A                      A                      A
 Frequencies --   1068.1740              1084.7973              1104.4346
 Red. masses --      2.9965                 1.9134                 1.5284
 Frc consts  --      2.0144                 1.3266                 1.0984
 IR Inten    --      6.3758                 1.4869                 0.9513

                     25                     26                     27
                      A                      A                      A
 Frequencies --   1124.3875              1152.0127              1195.8398
 Red. masses --      1.9636                 2.3235                 1.6150
 Frc consts  --      1.4626                 1.8168                 1.3608
 IR Inten    --      2.2668                22.2177                17.7572

                     28                     29                     30
                      A                      A                      A
 Frequencies --   1225.0605              1239.8526              1256.3981
 Red. masses --      1.5024                 1.3658                 1.3494
 Frc consts  --      1.3285                 1.2370                 1.2550
 IR Inten    --      4.7216                 8.0057                 2.1019

                     31                     32                     33
                      A                      A                      A
 Frequencies --   1267.1694              1286.2733              1305.4496
 Red. masses --      1.4530                 1.6546                 1.3964
 Frc consts  --      1.3747                 1.6129                 1.4021
 IR Inten    --      2.0693                 0.2933                 6.9689

                     34                     35                     36
                      A                      A                      A
 Frequencies --   1345.7301              1370.6946              1414.5798
 Red. masses --      1.5441                 1.4974                 1.2383
 Frc consts  --      1.6476                 1.6575                 1.4600
 IR Inten    --      4.6893                 5.6662                 4.0251

                     37                     38                     39
                      A                      A                      A
 Frequencies --   1419.1274              1482.4392              1496.7521
 Red. masses --      1.2223                 1.1308                 1.0494
 Frc consts  --      1.4504                 1.4642                 1.3852
 IR Inten    --      2.8610                 1.2415                 3.2929

                     40                     41                     42
                      A                      A                      A
 Frequencies --   1500.8042              1822.8619              2889.8607
 Red. masses --      1.0533                10.0008                 1.0826
 Frc consts  --      1.3979                19.5790                 5.3271
 IR Inten    --      7.0672               208.4446                66.1762

                     43                     44                     45
                      A                      A                      A
 Frequencies --   3034.1030              3046.0756              3075.3936
 Red. masses --      1.0357                 1.0846                 1.0605
 Frc consts  --      5.6176                 5.9291                 5.9099
 IR Inten    --     19.4816                11.4213                16.2011

                     46                     47                     48
                      A                      A                      A
 Frequencies --   3083.7357              3100.9958              3107.9563
 Red. masses --      1.0841                 1.1001                 1.1008
 Frc consts  --      6.0741                 6.2327                 6.2647
 IR Inten    --     15.7569                23.8168                25.3918

                     49                     50                     51
                      A                      A                      A
 Frequencies --   3123.6287              3127.2053              3149.9413
 Red. masses --      1.0887                 1.0947                 1.1078
 Frc consts  --      6.2587                 6.3073                 6.4759
 IR Inten    --     64.2897                 8.0221                20.7485

 - Thermochemistry -
 -------------------
 Temperature   298.150 Kelvin.  Pressure   1.00000 Atm.
 Atom     1 has atomic number  6 and mass  12.00000

 Molecular mass:   126.06808 amu.
 Principal axes and moments of inertia in atomic units:
                           1         2         3
     Eigenvalues --   724.420251225.144501608.80420
           X            0.99949   0.02748   0.01626
           Y           -0.02724   0.99952  -0.01496
           Z           -0.01667   0.01451   0.99976
 This molecule is an asymmetric top.
 Rotational symmetry number  1.
 Warning -- assumption of classical behavior for rotation
           may cause significant error
 Rotational temperatures (Kelvin)      0.11956     0.07070     0.05384
 Rotational constants (GHZ):           2.49129     1.47308     1.12179
 Zero-point vibrational energy     418543.6 (Joules/Mol)
                                  100.03433 (Kcal/Mol)
 Warning -- explicit consideration of  10 degrees of freedom as
           vibrations may cause significant error
 Vibrational temperatures:    109.57   179.55   298.70   347.74   367.24
          (Kelvin)            434.72   589.81   689.65   726.55   800.18
                              994.95  1162.20  1168.51  1256.91  1261.50
                             1288.35  1351.18  1367.93  1453.92  1468.96
                             1491.40  1536.86  1560.78  1589.03  1617.74
                             1657.49  1720.54  1762.59  1783.87  1807.67
                             1823.17  1850.66  1878.25  1936.20  1972.12
                             2035.26  2041.81  2132.90  2153.49  2159.32
                             2622.69  4157.86  4365.39  4382.62  4424.80
                             4436.80  4461.64  4471.65  4494.20  4499.35
                             4532.06

 Zero-point correction=                           0.159415 (Hartree/Particle)
 Thermal correction to Energy=                    0.167505
 Thermal correction to Enthalpy=                  0.168450
 Thermal correction to Gibbs Free Energy=         0.126520
 Sum of electronic and zero-point Energies=           -423.015702
 Sum of electronic and thermal Energies=              -423.007612
 Sum of electronic and thermal Enthalpies=            -423.006668
 Sum of electronic and thermal Free Energies=         -423.048597

                     E (Thermal)             CV                S
                      KCal/Mol        Cal/Mol-Kelvin    Cal/Mol-Kelvin
 Total                  105.111             30.914             88.249
 Electronic               0.000              0.000              0.000
 Translational            0.889              2.981             40.409
 Rotational               0.889              2.981             28.748
 Vibrational            103.334             24.953             19.093
 Vibration     1          0.599              1.965              3.988
 Vibration     2          0.610              1.928              3.025
 Vibration     3          0.641              1.829              2.065
 Vibration     4          0.658              1.776              1.790
 Vibration     5          0.666              1.754              1.694
 Vibration     6          0.694              1.670              1.405
 Vibration     7          0.774              1.449              0.927
 Vibration     8          0.836              1.296              0.712
 Vibration     9          0.860              1.239              0.646
 Vibration    10          0.912              1.126              0.532

 Optimization completed.
    -- Stationary point found.
 Normal termination of Gaussian 09 at Mon Jan 27 23:41:46 2020.
