 Gaussian 09, Revision D.01,
 Gaussian 09:  ES64L-G09RevD.01 24-Apr-2013

 -----------------------------
 # b3lyp 6-31G(2df,p) opt Freq
 -----------------------------

 -----
 titel
 -----
 Symbolic Z-matrix:
 Charge =  0 Multiplicity = 1

 SCF Done:  E(RB3LYP) =  -423.178116303     A.U. after   14 cycles
 Optimization completed.
    -- Stationary point found.
 Normal termination of Gaussian 09 at Mon Jan 27 16:08:41 2020.

 ----------------------------------------------------------------------
 #N Geom=AllCheck Guess=TCheck SCRF=Check GenChk RB3LYP/6-31G(2df,p) Fr
 eq
 ----------------------------------------------------------------------

 Structure from the checkpoint file:  "/scratch/puck/g09_bb209dd0-1e8d-4462-89d3-357f34e1c462/Gau-109437.chk"
 -----
 titel
 -----
 Charge =  0 Multiplicity = 1

                         Standard orientation:
 ---------------------------------------------------------------------
 Center     Atomic      Atomic             Coordinates (Angstroms)
 Number     Number       Type             X           Y           Z
 ---------------------------------------------------------------------
      1          6           0        1.068984   -1.315844    1.214666
      2          6           0        0.590070   -0.597901   -0.052038
      3          8           0        0.348446   -1.593678   -1.026726
      4          6           0        1.578934    0.474680   -0.485498
      5          6           0        1.152206    1.705220   -0.208646
      6          6           0       -0.221385    1.705101    0.428853
      7          6           0       -0.672075    0.269381    0.190838
      8          6           0       -1.969188   -0.301962    0.543920
      9          8           0       -1.691719    0.095401   -0.810215
     10          1           0        2.005268   -1.842947    1.008513
     11          1           0        1.245717   -0.608869    2.030458
     12          1           0        0.327689   -2.053969    1.533996
     13          1           0       -0.372164   -1.255059   -1.577343
     14          1           0        2.531163    0.209039   -0.929972
     15          1           0        1.706495    2.619940   -0.386396
     16          1           0       -0.171375    1.945958    1.499562
     17          1           0       -0.921290    2.411900   -0.028949
     18          1           0       -2.056374   -1.376488    0.696638
     19          1           0       -2.714210    0.304667    1.056456
 ---------------------------------------------------------------------

 SCF Done:  E(RB3LYP) =  -423.178116303     A.U. after    1 cycles

 The electronic state is 1-A.
 Alpha  occ. eigenvalues --  -19.16065 -19.12512 -10.24439 -10.23963 -10.23901
 Alpha  occ. eigenvalues --  -10.19485 -10.18834 -10.17858 -10.17476  -1.07981
 Alpha  occ. eigenvalues --   -1.00990  -0.83913  -0.74116  -0.70489  -0.66597
 Alpha  occ. eigenvalues --   -0.64390  -0.56580  -0.54426  -0.52790  -0.48776
 Alpha  occ. eigenvalues --   -0.45548  -0.44407  -0.43954  -0.40663  -0.40467
 Alpha  occ. eigenvalues --   -0.38494  -0.38135  -0.36804  -0.35378  -0.31849
 Alpha  occ. eigenvalues --   -0.31271  -0.27867  -0.26173  -0.25095
 Alpha virt. eigenvalues --    0.01433   0.08743   0.09518   0.09694   0.11666
 Alpha virt. eigenvalues --    0.13372   0.13654   0.15314   0.16087   0.17145
 Alpha virt. eigenvalues --    0.17931   0.18752   0.19549   0.21713   0.22606

 Mulliken charges:
               1
     1  C   -0.410920
     2  C    0.291282
     3  O   -0.479589
     4  C   -0.114879
     5  C   -0.082734
     6  C   -0.343256
     7  C    0.343263
     8  C   -0.245139
     9  O   -0.283668
    10  H    0.125884
    11  H    0.114069
    12  H    0.118087
    13  H    0.288740
    14  H    0.101176
    15  H    0.098931
    16  H    0.115171
    17  H    0.123137
    18  H    0.123202
    19  H    0.117242
 Sum of Mulliken charges =   0.00000

 Dipole moment (field-independent basis, Debye):
    X=             -0.1985    Y=              1.3146    Z=              1.8103  Tot=              2.2461
 Quadrupole moment (field-independent basis, Debye-Ang):
   XX=            -51.6251   YY=            -53.5323   ZZ=            -53.5240
   XY=              1.9247   XZ=             -2.3400   YZ=             -0.8563

  Exact polarizability:  80.791  -0.232  83.677  -5.360   0.807  62.132
 Approx polarizability: 112.645  -4.316 126.102  -5.738   5.793  98.733

                      1                      2                      3
                      A                      A                      A
 Frequencies --     97.3539               211.1975               230.3736
 Red. masses --      3.5143                 1.4421                 1.8207
 Frc consts  --      0.0196                 0.0379                 0.0569
 IR Inten    --      0.9293                 0.9781                 0.7303

                      4                      5                      6
                      A                      A                      A
 Frequencies --    241.2583               265.4127               333.1528
 Red. masses --      2.3741                 2.9403                 2.3986
 Frc consts  --      0.0814                 0.1220                 0.1569
 IR Inten    --      0.5228                 0.9189                43.2810

                      7                      8                      9
                      A                      A                      A
 Frequencies --    373.8369               433.9609               452.6518
 Red. masses --      3.4988                 2.4260                 1.7413
 Frc consts  --      0.2881                 0.2692                 0.2102
 IR Inten    --      5.2016                 8.7647                24.8108

                     10                     11                     12
                      A                      A                      A
 Frequencies --    465.5552               553.0907               577.1745
 Red. masses --      1.9583                 3.7056                 3.2721
 Frc consts  --      0.2501                 0.6679                 0.6422
 IR Inten    --     30.4562                 2.8061                 7.0172

                     13                     14                     15
                      A                      A                      A
 Frequencies --    646.6377               745.4095               760.3988
 Red. masses --      4.1016                 1.5719                 3.2336
 Frc consts  --      1.0105                 0.5146                 1.1016
 IR Inten    --      6.3803                19.0992                 6.9642

                     16                     17                     18
                      A                      A                      A
 Frequencies --    806.3875               885.2960               931.6362
 Red. masses --      3.5222                 1.8364                 2.0898
 Frc consts  --      1.3494                 0.8480                 1.0687
 IR Inten    --     28.1005                 5.5622                 1.8074

                     19                     20                     21
                      A                      A                      A
 Frequencies --    954.7205               960.2073               968.8462
 Red. masses --      1.9812                 3.7289                 1.6531
 Frc consts  --      1.0640                 2.0257                 0.9143
 IR Inten    --      2.5956                31.5985                11.3971

                     22                     23                     24
                      A                      A                      A
 Frequencies --    981.8178              1021.5482              1068.1516
 Red. masses --      1.4716                 2.3618                 1.5617
 Frc consts  --      0.8358                 1.4521                 1.0498
 IR Inten    --      4.8811                12.5604                22.9836

                     25                     26                     27
                      A                      A                      A
 Frequencies --   1111.0292              1123.5087              1153.5785
 Red. masses --      1.6243                 1.3349                 1.3981
 Frc consts  --      1.1813                 0.9928                 1.0962
 IR Inten    --     41.6595                11.4489                 6.4580

                     28                     29                     30
                      A                      A                      A
 Frequencies --   1179.7136              1188.1592              1206.7675
 Red. masses --      1.4689                 1.6973                 2.3805
 Frc consts  --      1.2045                 1.4117                 2.0425
 IR Inten    --      1.2236                 6.7510                50.4230

                     31                     32                     33
                      A                      A                      A
 Frequencies --   1240.4567              1285.2710              1360.2543
 Red. masses --      2.7995                 1.6675                 1.6398
 Frc consts  --      2.5380                 1.6230                 1.7876
 IR Inten    --      2.4259                 3.6743                 4.3334

                     34                     35                     36
                      A                      A                      A
 Frequencies --   1392.6420              1409.3228              1427.0621
 Red. masses --      1.3780                 1.4124                 2.2214
 Frc consts  --      1.5746                 1.6528                 2.6654
 IR Inten    --     46.0174                31.0321                22.7777

                     37                     38                     39
                      A                      A                      A
 Frequencies --   1473.1055              1481.0287              1493.2072
 Red. masses --      1.0977                 1.0730                 1.0634
 Frc consts  --      1.4035                 1.3866                 1.3970
 IR Inten    --      5.1273                 3.2595                 0.2477

                     40                     41                     42
                      A                      A                      A
 Frequencies --   1525.8352              1679.5752              3016.7531
 Red. masses --      1.5065                 6.4811                 1.0669
 Frc consts  --      2.0665                10.7720                 5.7209
 IR Inten    --      3.6314                 2.5768                23.8454

                     43                     44                     45
                      A                      A                      A
 Frequencies --   3040.0482              3072.6967              3086.4839
 Red. masses --      1.0340                 1.0946                 1.0507
 Frc consts  --      5.6301                 6.0889                 5.8975
 IR Inten    --     15.5825                13.3060                22.4554

                     46                     47                     48
                      A                      A                      A
 Frequencies --   3115.0513              3118.9339              3174.0414
 Red. masses --      1.1018                 1.1023                 1.1193
 Frc consts  --      6.2991                 6.3180                 6.6439
 IR Inten    --     18.7142                21.5118                14.6611

                     49                     50                     51
                      A                      A                      A
 Frequencies --   3187.1378              3212.8005              3731.5314
 Red. masses --      1.0852                 1.1043                 1.0648
 Frc consts  --      6.4949                 6.7156                 8.7354
 IR Inten    --      6.9369                16.0046                53.1896

 - Thermochemistry -
 -------------------
 Temperature   298.150 Kelvin.  Pressure   1.00000 Atm.
 Atom     1 has atomic number  6 and mass  12.00000

 Molecular mass:   126.06808 amu.
 Principal axes and moments of inertia in atomic units:
                           1         2         3
     Eigenvalues --   849.75419 932.487741287.37848
           X            0.99982  -0.01159  -0.01481
           Y            0.01111   0.99942  -0.03233
           Z            0.01517   0.03216   0.99937
 This molecule is an asymmetric top.
 Rotational symmetry number  1.
 Warning -- assumption of classical behavior for rotation
           may cause significant error
 Rotational temperatures (Kelvin)      0.10193     0.09288     0.06728
 Rotational constants (GHZ):           2.12384     1.93540     1.40187
 Zero-point vibrational energy     415415.6 (Joules/Mol)
                                   99.28672 (Kcal/Mol)
 Warning -- explicit consideration of  12 degrees of freedom as
           vibrations may cause significant error
 Vibrational temperatures:    140.07   303.87   331.46   347.12   381.87
          (Kelvin)            479.33   537.87   624.37   651.26   669.83
                              795.77   830.42   930.37  1072.48  1094.04
                             1160.21  1273.74  1340.42  1373.63  1381.52
                             1393.95  1412.62  1469.78  1536.83  1598.52
                             1616.48  1659.74  1697.34  1709.49  1736.27
                             1784.74  1849.22  1957.10  2003.70  2027.70
                             2053.22  2119.47  2130.87  2148.39  2195.33
                             2416.53  4340.43  4373.95  4420.92  4440.76
                             4481.86  4487.44  4566.73  4585.57  4622.50
                             5368.83

 Zero-point correction=                           0.158223 (Hartree/Particle)
 Thermal correction to Energy=                    0.166616
 Thermal correction to Enthalpy=                  0.167561
 Thermal correction to Gibbs Free Energy=         0.125845
 Sum of electronic and zero-point Energies=           -423.019893
 Sum of electronic and thermal Energies=              -423.011500
 Sum of electronic and thermal Enthalpies=            -423.010556
 Sum of electronic and thermal Free Energies=         -423.052271

                     E (Thermal)             CV                S
                      KCal/Mol        Cal/Mol-Kelvin    Cal/Mol-Kelvin
 Total                  104.553             33.325             87.798
 Electronic               0.000              0.000              0.000
 Translational            0.889              2.981             40.409
 Rotational               0.889              2.981             28.413
 Vibrational            102.776             27.363             18.976
 Vibration     1          0.603              1.951              3.507
 Vibration     2          0.643              1.824              2.033
 Vibration     3          0.652              1.795              1.876
 Vibration     4          0.658              1.777              1.794
 Vibration     5          0.671              1.736              1.626
 Vibration     6          0.715              1.609              1.245
 Vibration     7          0.745              1.526              1.064
 Vibration     8          0.795              1.396              0.846
 Vibration     9          0.811              1.355              0.788
 Vibration    10          0.823              1.326              0.750
 Vibration    11          0.908              1.133              0.538
 Vibration    12          0.934              1.081              0.491

 Optimization completed.
    -- Stationary point found.
 Normal termination of Gaussian 09 at Mon Jan 27 16:51:10 2020.
