 Gaussian 09, Revision D.01,
 Gaussian 09:  ES64L-G09RevD.01 24-Apr-2013

 -----------------------------
 # b3lyp 6-31G(2df,p) opt Freq
 -----------------------------

 -----
 titel
 -----
 Symbolic Z-matrix:
 Charge =  0 Multiplicity = 1

 SCF Done:  E(RB3LYP) =  -423.121192628     A.U. after   14 cycles
 Optimization completed.
    -- Stationary point found.
 Normal termination of Gaussian 09 at Mon Jan 27 17:20:49 2020.

 ----------------------------------------------------------------------
 #N Geom=AllCheck Guess=TCheck SCRF=Check GenChk RB3LYP/6-31G(2df,p) Fr
 eq
 ----------------------------------------------------------------------

 Structure from the checkpoint file:  "/scratch/puck/g09_f2db08c2-3fe9-455f-998b-6048d981e716/Gau-179528.chk"
 -----
 titel
 -----
 Charge =  0 Multiplicity = 1

                         Standard orientation:
 ---------------------------------------------------------------------
 Center     Atomic      Atomic             Coordinates (Angstroms)
 Number     Number       Type             X           Y           Z
 ---------------------------------------------------------------------
      1          6           0       -1.918170   -1.536246   -0.246089
      2          6           0       -0.723323   -0.678662    0.055642
      3          6           0       -0.575728    0.129700    1.326584
      4          6           0       -0.518201    0.842950    0.004410
      5          8           0       -1.445006    1.804326   -0.359079
      6          6           0        0.844970    0.678088   -0.708741
      7          6           0        2.118954    0.467923    0.134873
      8          8           0        1.823553   -0.945361    0.292087
      9          6           0        0.673989   -0.846255   -0.591300
     10          1           0       -1.865643   -2.495955    0.281561
     11          1           0       -2.841913   -1.035633    0.060481
     12          1           0       -1.997439   -1.748308   -1.318337
     13          1           0       -1.514324    0.281035    1.852285
     14          1           0        0.289790   -0.001906    1.967414
     15          1           0       -1.395597    2.532718    0.269683
     16          1           0        0.913512    1.185095   -1.669563
     17          1           0        3.053747    0.613071   -0.420151
     18          1           0        2.184345    0.991047    1.096424
     19          1           0        0.730206   -1.537874   -1.436133
 ---------------------------------------------------------------------

 SCF Done:  E(RB3LYP) =  -423.121192628     A.U. after    1 cycles

 The electronic state is 1-A.
 Alpha  occ. eigenvalues --  -19.15087 -19.12908 -10.24202 -10.23024 -10.22712
 Alpha  occ. eigenvalues --  -10.19369 -10.18828 -10.18416 -10.17893  -1.04017
 Alpha  occ. eigenvalues --   -1.02895  -0.87722  -0.74120  -0.71237  -0.68709
 Alpha  occ. eigenvalues --   -0.60300  -0.57083  -0.54040  -0.50068  -0.48760
 Alpha  occ. eigenvalues --   -0.46997  -0.44725  -0.42416  -0.41774  -0.40367
 Alpha  occ. eigenvalues --   -0.39083  -0.38433  -0.36353  -0.33342  -0.32027
 Alpha  occ. eigenvalues --   -0.29068  -0.26349  -0.24410  -0.23711
 Alpha virt. eigenvalues --    0.06933   0.07923   0.10086   0.10846   0.11773
 Alpha virt. eigenvalues --    0.13023   0.14028   0.15468   0.16196   0.17170
 Alpha virt. eigenvalues --    0.17949   0.19070   0.19393   0.20785   0.21372

 Mulliken charges:
               1
     1  C   -0.509659
     2  C    0.294738
     3  C   -0.417444
     4  C    0.335580
     5  O   -0.463829
     6  C   -0.140389
     7  C   -0.111836
     8  O   -0.298364
     9  C    0.056012
    10  H    0.123945
    11  H    0.126717
    12  H    0.118527
    13  H    0.109498
    14  H    0.127819
    15  H    0.286565
    16  H    0.086006
    17  H    0.101881
    18  H    0.098698
    19  H    0.075535
 Sum of Mulliken charges =   0.00000

 Dipole moment (field-independent basis, Debye):
    X=             -0.4701    Y=              1.4893    Z=              0.2435  Tot=              1.5806
 Quadrupole moment (field-independent basis, Debye-Ang):
   XX=            -55.2071   YY=            -50.8098   ZZ=            -52.1223
   XY=              3.7435   XZ=             -3.5304   YZ=              4.0477

  Exact polarizability:  81.996   4.467  74.719  -1.557   3.409  68.170
 Approx polarizability: 109.491   1.284 113.217   0.629   3.165 104.516

                      1                      2                      3
                      A                      A                      A
 Frequencies --    158.2465               167.0160               180.4668
 Red. masses --      2.9340                 3.3985                 1.1124
 Frc consts  --      0.0433                 0.0559                 0.0213
 IR Inten    --      3.5014                 6.8514                 4.7679

                      4                      5                      6
                      A                      A                      A
 Frequencies --    254.1635               266.6016               307.0954
 Red. masses --      1.5489                 1.6438                 3.9744
 Frc consts  --      0.0590                 0.0688                 0.2208
 IR Inten    --     35.2338                48.6229                 2.2777

                      7                      8                      9
                      A                      A                      A
 Frequencies --    333.3370               396.2254               502.8556
 Red. masses --      2.4250                 4.5064                 2.5957
 Frc consts  --      0.1588                 0.4168                 0.3867
 IR Inten    --      0.3419                 4.0061                 1.4047

                     10                     11                     12
                      A                      A                      A
 Frequencies --    552.1385               578.1358               701.3869
 Red. masses --      3.5156                 2.6820                 3.5446
 Frc consts  --      0.6315                 0.5282                 1.0274
 IR Inten    --      2.5528                 5.0796                 4.5815

                     13                     14                     15
                      A                      A                      A
 Frequencies --    745.7151               791.3255               843.0355
 Red. masses --      3.6104                 3.2837                 2.5142
 Frc consts  --      1.1829                 1.2115                 1.0528
 IR Inten    --      5.2802                28.1470                 2.5052

                     16                     17                     18
                      A                      A                      A
 Frequencies --    866.5389               916.9046               941.9290
 Red. masses --      1.9937                 2.1294                 2.4044
 Frc consts  --      0.8820                 1.0548                 1.2569
 IR Inten    --      6.4819                10.3014                30.0717

                     19                     20                     21
                      A                      A                      A
 Frequencies --    964.9061               978.5546               985.2516
 Red. masses --      2.3796                 1.4365                 3.6337
 Frc consts  --      1.3053                 0.8104                 2.0782
 IR Inten    --     31.2867                 5.8540                57.5783

                     22                     23                     24
                      A                      A                      A
 Frequencies --   1009.0388              1049.5754              1066.2762
 Red. masses --      1.8889                 2.1473                 1.3903
 Frc consts  --      1.1331                 1.3937                 0.9313
 IR Inten    --      1.4452                10.8689                13.8399

                     25                     26                     27
                      A                      A                      A
 Frequencies --   1100.7265              1156.7879              1163.9088
 Red. masses --      1.6220                 1.3055                 1.9598
 Frc consts  --      1.1579                 1.0293                 1.5642
 IR Inten    --     14.9599                 3.6685                 9.9427

                     28                     29                     30
                      A                      A                      A
 Frequencies --   1181.5846              1203.5569              1209.6973
 Red. masses --      2.0704                 2.4000                 1.7413
 Frc consts  --      1.7031                 2.0483                 1.5013
 IR Inten    --     23.7489                24.7336                 8.6879

                     31                     32                     33
                      A                      A                      A
 Frequencies --   1256.5346              1287.8222              1300.4233
 Red. masses --      1.5144                 2.0650                 1.4584
 Frc consts  --      1.4088                 2.0178                 1.4531
 IR Inten    --      2.1107                 5.5929                68.9183

                     34                     35                     36
                      A                      A                      A
 Frequencies --   1344.0619              1347.0889              1409.7495
 Red. masses --      2.1768                 1.6259                 1.3297
 Frc consts  --      2.3169                 1.7384                 1.5569
 IR Inten    --     33.6915                 1.3997                 4.6556

                     37                     38                     39
                      A                      A                      A
 Frequencies --   1419.9729              1486.0191              1496.3843
 Red. masses --      1.6628                 1.0469                 1.0689
 Frc consts  --      1.9754                 1.3621                 1.4101
 IR Inten    --      8.2485                 3.9760                 5.9272

                     40                     41                     42
                      A                      A                      A
 Frequencies --   1505.2457              1517.7827              3015.8561
 Red. masses --      1.6700                 1.0991                 1.0547
 Frc consts  --      2.2294                 1.4918                 5.6522
 IR Inten    --     12.0001                 0.4546                83.5771

                     43                     44                     45
                      A                      A                      A
 Frequencies --   3022.8152              3060.5408              3073.1571
 Red. masses --      1.0360                 1.1109                 1.0893
 Frc consts  --      5.5776                 6.1309                 6.0612
 IR Inten    --     33.1182                35.5301                42.5246

                     46                     47                     48
                      A                      A                      A
 Frequencies --   3081.5719              3101.3554              3123.3611
 Red. masses --      1.1007                 1.0996                 1.0535
 Frc consts  --      6.1581                 6.2312                 6.0550
 IR Inten    --     25.3636                16.9689                13.8600

                     49                     50                     51
                      A                      A                      A
 Frequencies --   3133.1567              3208.8368              3791.8265
 Red. masses --      1.0899                 1.1162                 1.0663
 Frc consts  --      6.3040                 6.7713                 9.0333
 IR Inten    --     20.7506                 6.4763                21.5340

 - Thermochemistry -
 -------------------
 Temperature   298.150 Kelvin.  Pressure   1.00000 Atm.
 Atom     1 has atomic number  6 and mass  12.00000

 Molecular mass:   126.06808 amu.
 Principal axes and moments of inertia in atomic units:
                           1         2         3
     Eigenvalues --   706.629661071.503261412.94987
           X            0.99396   0.10943  -0.00869
           Y           -0.10903   0.99332   0.03784
           Z            0.01278  -0.03666   0.99925
 This molecule is an asymmetric top.
 Rotational symmetry number  1.
 Warning -- assumption of classical behavior for rotation
           may cause significant error
 Rotational temperatures (Kelvin)      0.12257     0.08083     0.06130
 Rotational constants (GHZ):           2.55401     1.68431     1.27729
 Zero-point vibrational energy     416040.5 (Joules/Mol)
                                   99.43607 (Kcal/Mol)
 Warning -- explicit consideration of  11 degrees of freedom as
           vibrations may cause significant error
 Vibrational temperatures:    227.68   240.30   259.65   365.68   383.58
          (Kelvin)            441.84   479.60   570.08   723.50   794.40
                              831.81  1009.14  1072.92  1138.54  1212.94
                             1246.75  1319.22  1355.22  1388.28  1407.92
                             1417.56  1451.78  1510.10  1534.13  1583.70
                             1664.36  1674.60  1700.03  1731.65  1740.48
                             1807.87  1852.89  1871.02  1933.80  1938.16
                             2028.31  2043.02  2138.05  2152.96  2165.71
                             2183.75  4339.14  4349.15  4403.43  4421.58
                             4433.69  4462.15  4493.81  4507.91  4616.79
                             5455.59

 Zero-point correction=                           0.158461 (Hartree/Particle)
 Thermal correction to Energy=                    0.166693
 Thermal correction to Enthalpy=                  0.167637
 Thermal correction to Gibbs Free Energy=         0.126189
 Sum of electronic and zero-point Energies=           -422.962731
 Sum of electronic and thermal Energies=              -422.954499
 Sum of electronic and thermal Enthalpies=            -422.953555
 Sum of electronic and thermal Free Energies=         -422.995003

                     E (Thermal)             CV                S
                      KCal/Mol        Cal/Mol-Kelvin    Cal/Mol-Kelvin
 Total                  104.602             32.394             87.235
 Electronic               0.000              0.000              0.000
 Translational            0.889              2.981             40.409
 Rotational               0.889              2.981             28.461
 Vibrational            102.824             26.432             18.366
 Vibration     1          0.621              1.893              2.571
 Vibration     2          0.624              1.883              2.469
 Vibration     3          0.629              1.866              2.324
 Vibration     4          0.665              1.756              1.702
 Vibration     5          0.672              1.734              1.618
 Vibration     6          0.697              1.660              1.378
 Vibration     7          0.715              1.609              1.244
 Vibration     8          0.763              1.478              0.977
 Vibration     9          0.858              1.244              0.651
 Vibration    10          0.907              1.135              0.540
 Vibration    11          0.935              1.079              0.489

 Optimization completed.
    -- Stationary point found.
 Normal termination of Gaussian 09 at Mon Jan 27 18:06:11 2020.
