 Gaussian 09, Revision D.01,
 Gaussian 09:  ES64L-G09RevD.01 24-Apr-2013

 -----------------------------
 # b3lyp 6-31G(2df,p) opt Freq
 -----------------------------

 -----
 titel
 -----
 Symbolic Z-matrix:
 Charge =  0 Multiplicity = 1

 SCF Done:  E(RB3LYP) =  -423.129298013     A.U. after   13 cycles
 Optimization completed.
    -- Stationary point found.
 Normal termination of Gaussian 09 at Mon Jan 27 22:03:05 2020.

 ----------------------------------------------------------------------
 #N Geom=AllCheck Guess=TCheck SCRF=Check GenChk RB3LYP/6-31G(2df,p) Fr
 eq
 ----------------------------------------------------------------------

 Structure from the checkpoint file:  "/scratch/puck/g09_9fb9fe35-b995-4131-8b4c-f868737dbfd1/Gau-176398.chk"
 -----
 titel
 -----
 Charge =  0 Multiplicity = 1

                         Standard orientation:
 ---------------------------------------------------------------------
 Center     Atomic      Atomic             Coordinates (Angstroms)
 Number     Number       Type             X           Y           Z
 ---------------------------------------------------------------------
      1          6           0        0.000004    2.026414    0.328365
      2          6           0       -0.000010    0.552166    0.045361
      3          6           0        0.000041   -0.657037    1.099518
      4          6           0       -0.763701   -1.423843    0.037713
      5          6           0        0.763687   -1.423852    0.037651
      6          6           0        1.221129   -0.135267   -0.640054
      7          8           0        2.482595    0.324180   -0.205608
      8          6           0       -1.221138   -0.135277   -0.640031
      9          8           0       -2.482616    0.324164   -0.205615
     10          1           0       -0.000779    2.592551   -0.610448
     11          1           0       -0.889757    2.323050    0.892107
     12          1           0        0.890565    2.323225    0.890753
     13          1           0        0.000089   -0.730662    2.177676
     14          1           0       -1.323928   -2.344336    0.151303
     15          1           0        1.323905   -2.344358    0.151183
     16          1           0        1.256214   -0.095482   -1.734761
     17          1           0        2.529970    0.182419    0.747782
     18          1           0       -1.256218   -0.095516   -1.734741
     19          1           0       -2.529956    0.182539    0.747797
 ---------------------------------------------------------------------

 SCF Done:  E(RB3LYP) =  -423.129298013     A.U. after    1 cycles

 The electronic state is 1-A.
 Alpha  occ. eigenvalues --  -19.13770 -19.13769 -10.23304 -10.23303 -10.19972
 Alpha  occ. eigenvalues --  -10.19863 -10.19843 -10.19617 -10.17527  -1.02684
 Alpha  occ. eigenvalues --   -1.01991  -0.92241  -0.75120  -0.69341  -0.67836
 Alpha  occ. eigenvalues --   -0.62075  -0.57560  -0.55524  -0.49044  -0.48997
 Alpha  occ. eigenvalues --   -0.47284  -0.46542  -0.43133  -0.41174  -0.40786
 Alpha  occ. eigenvalues --   -0.36735  -0.35705  -0.35572  -0.34922  -0.32265
 Alpha  occ. eigenvalues --   -0.28845  -0.26569  -0.26550  -0.24077
 Alpha virt. eigenvalues --    0.06919   0.08163   0.10711   0.11489   0.11845
 Alpha virt. eigenvalues --    0.12336   0.14672   0.14864   0.15391   0.16353
 Alpha virt. eigenvalues --    0.16976   0.18759   0.19210   0.20795   0.23135

 Mulliken charges:
               1
     1  C   -0.503632
     2  C    0.235855
     3  C   -0.198418
     4  C   -0.114260
     5  C   -0.114270
     6  C    0.114893
     7  O   -0.444707
     8  C    0.114898
     9  O   -0.444717
    10  H    0.125750
    11  H    0.116361
    12  H    0.116384
    13  H    0.093169
    14  H    0.093542
    15  H    0.093542
    16  H    0.079853
    17  H    0.277952
    18  H    0.079855
    19  H    0.277949
 Sum of Mulliken charges =   0.00000

 Dipole moment (field-independent basis, Debye):
    X=              0.0001    Y=             -1.1210    Z=              2.0107  Tot=              2.3021
 Quadrupole moment (field-independent basis, Debye-Ang):
   XX=            -60.8726   YY=            -52.1609   ZZ=            -49.4815
   XY=             -0.0005   XZ=             -0.0001   YZ=              0.0684

  Exact polarizability:  77.916  -0.001  76.332   0.000  -0.446  68.503
 Approx polarizability: 114.322  -0.001 106.829   0.000   0.411 111.250

                      1                      2                      3
                      A                      A                      A
 Frequencies --    152.3537               169.8592               219.7048
 Red. masses --      4.5465                 1.0450                 2.9830
 Frc consts  --      0.0622                 0.0178                 0.0848
 IR Inten    --      3.3028                 0.0359                 1.5038

                      4                      5                      6
                      A                      A                      A
 Frequencies --    249.6364               263.8724               310.3377
 Red. masses --      2.8710                 4.0320                 2.2251
 Frc consts  --      0.1054                 0.1654                 0.1263
 IR Inten    --      0.3027                 1.7648                 3.9109

                      7                      8                      9
                      A                      A                      A
 Frequencies --    345.6688               376.1411               460.1488
 Red. masses --      1.1245                 1.2915                 5.6239
 Frc consts  --      0.0792                 0.1077                 0.7016
 IR Inten    --     30.4806               136.2740                 1.1773

                     10                     11                     12
                      A                      A                      A
 Frequencies --    501.6790               556.3908               650.2615
 Red. masses --      3.3698                 4.3682                 3.5391
 Frc consts  --      0.4997                 0.7967                 0.8817
 IR Inten    --      4.8385                 1.3544                 2.1046

                     13                     14                     15
                      A                      A                      A
 Frequencies --    774.2035               774.5887               812.4139
 Red. masses --      2.4719                 1.9389                 1.8191
 Frc consts  --      0.8730                 0.6854                 0.7074
 IR Inten    --      7.6155                 0.1055                24.1235

                     16                     17                     18
                      A                      A                      A
 Frequencies --    837.9078               870.5842               889.8205
 Red. masses --      1.8263                 2.3833                 2.4027
 Frc consts  --      0.7555                 1.0643                 1.1209
 IR Inten    --     10.1082                 9.8063                10.2889

                     19                     20                     21
                      A                      A                      A
 Frequencies --    926.6368               957.4739               977.6860
 Red. masses --      2.4915                 1.6500                 2.3342
 Frc consts  --      1.2605                 0.8912                 1.3146
 IR Inten    --      3.6954                 2.4498                13.6562

                     22                     23                     24
                      A                      A                      A
 Frequencies --   1000.0839              1034.3086              1038.7421
 Red. masses --      1.9521                 1.5105                 1.3824
 Frc consts  --      1.1503                 0.9521                 0.8788
 IR Inten    --     11.8792                 9.7695                10.0290

                     25                     26                     27
                      A                      A                      A
 Frequencies --   1082.3252              1124.2742              1132.9921
 Red. masses --      3.5175                 2.2964                 2.8144
 Frc consts  --      2.4277                 1.7102                 2.1285
 IR Inten    --    172.6747                12.2089                12.5894

                     28                     29                     30
                      A                      A                      A
 Frequencies --   1150.1861              1172.5419              1233.5530
 Red. masses --      1.9209                 1.7446                 1.3901
 Frc consts  --      1.4972                 1.4132                 1.2463
 IR Inten    --     36.7844                 2.7553                 8.8110

                     31                     32                     33
                      A                      A                      A
 Frequencies --   1237.4437              1278.9235              1279.2665
 Red. masses --      1.7761                 1.5521                 1.5314
 Frc consts  --      1.6024                 1.4958                 1.4766
 IR Inten    --      4.4577                 2.5217                23.9106

                     34                     35                     36
                      A                      A                      A
 Frequencies --   1293.9414              1340.4605              1351.7245
 Red. masses --      1.7740                 3.1516                 2.8596
 Frc consts  --      1.7500                 3.3364                 3.0785
 IR Inten    --      0.0311                 0.6422                 0.2293

                     37                     38                     39
                      A                      A                      A
 Frequencies --   1413.4446              1428.6340              1440.1511
 Red. masses --      1.4342                 1.3099                 1.2571
 Frc consts  --      1.6881                 1.5752                 1.5362
 IR Inten    --      3.6917               141.8960                16.1968

                     40                     41                     42
                      A                      A                      A
 Frequencies --   1481.6115              1489.1713              3031.2675
 Red. masses --      1.0509                 1.0502                 1.0359
 Frc consts  --      1.3591                 1.3722                 5.6083
 IR Inten    --      5.2754                11.6857                24.9510

                     43                     44                     45
                      A                      A                      A
 Frequencies --   3043.4587              3054.0790              3094.4494
 Red. masses --      1.0847                 1.0856                 1.0988
 Frc consts  --      5.9198                 5.9660                 6.1995
 IR Inten    --      3.7764                90.8396                17.5209

                     46                     47                     48
                      A                      A                      A
 Frequencies --   3108.4993              3183.2979              3190.2851
 Red. masses --      1.1017                 1.0916                 1.0911
 Frc consts  --      6.2719                 6.5174                 6.5427
 IR Inten    --     16.3593                 8.1467                21.8922

                     49                     50                     51
                      A                      A                      A
 Frequencies --   3217.3083              3780.3600              3781.1250
 Red. masses --      1.0996                 1.0651                 1.0651
 Frc consts  --      6.7062                 8.9683                 8.9718
 IR Inten    --      9.0130                 5.6685                13.5190

 - Thermochemistry -
 -------------------
 Temperature   298.150 Kelvin.  Pressure   1.00000 Atm.
 Atom     1 has atomic number  6 and mass  12.00000

 Molecular mass:   126.06808 amu.
 Principal axes and moments of inertia in atomic units:
                           1         2         3
     Eigenvalues --   646.051361104.072611457.22564
           X            1.00000   0.00000   0.00000
           Y            0.00000   0.99996   0.00892
           Z            0.00000  -0.00892   0.99996
 This molecule is an asymmetric top.
 Rotational symmetry number  1.
 Warning -- assumption of classical behavior for rotation
           may cause significant error
 Rotational temperatures (Kelvin)      0.13407     0.07845     0.05944
 Rotational constants (GHZ):           2.79349     1.63462     1.23848
 Zero-point vibrational energy     416092.8 (Joules/Mol)
                                   99.44856 (Kcal/Mol)
 Warning -- explicit consideration of  11 degrees of freedom as
           vibrations may cause significant error
 Vibrational temperatures:    219.20   244.39   316.11   359.17   379.65
          (Kelvin)            446.51   497.34   541.18   662.05   721.80
                              800.52   935.58  1113.90  1114.46  1168.88
                             1205.56  1252.57  1280.25  1333.22  1377.59
                             1406.67  1438.90  1488.14  1494.52  1557.22
                             1617.58  1630.12  1654.86  1687.02  1774.81
                             1780.40  1840.08  1840.58  1861.69  1928.62
                             1944.83  2033.63  2055.48  2072.05  2131.71
                             2142.58  4361.31  4378.85  4394.13  4452.22
                             4472.43  4580.05  4590.10  4628.98  5439.09
                             5440.19

 Zero-point correction=                           0.158481 (Hartree/Particle)
 Thermal correction to Energy=                    0.166841
 Thermal correction to Enthalpy=                  0.167786
 Thermal correction to Gibbs Free Energy=         0.126232
 Sum of electronic and zero-point Energies=           -422.970817
 Sum of electronic and thermal Energies=              -422.962457
 Sum of electronic and thermal Enthalpies=            -422.961512
 Sum of electronic and thermal Free Energies=         -423.003066

                     E (Thermal)             CV                S
                      KCal/Mol        Cal/Mol-Kelvin    Cal/Mol-Kelvin
 Total                  104.695             33.271             87.456
 Electronic               0.000              0.000              0.000
 Translational            0.889              2.981             40.409
 Rotational               0.889              2.981             28.432
 Vibrational            102.917             27.310             18.616
 Vibration     1          0.619              1.900              2.643
 Vibration     2          0.625              1.880              2.437
 Vibration     3          0.647              1.811              1.962
 Vibration     4          0.662              1.763              1.733
 Vibration     5          0.670              1.739              1.636
 Vibration     6          0.699              1.654              1.361
 Vibration     7          0.724              1.584              1.186
 Vibration     8          0.747              1.521              1.055
 Vibration     9          0.818              1.338              0.766
 Vibration    10          0.857              1.246              0.654
 Vibration    11          0.912              1.126              0.531

 Optimization completed.
    -- Stationary point found.
 Normal termination of Gaussian 09 at Mon Jan 27 22:56:24 2020.
