 Gaussian 09, Revision D.01,
 Gaussian 09:  ES64L-G09RevD.01 24-Apr-2013

 -----------------------------
 # b3lyp 6-31G(2df,p) opt Freq
 -----------------------------

 -----
 titel
 -----
 Symbolic Z-matrix:
 Charge =  0 Multiplicity = 1

 SCF Done:  E(RB3LYP) =  -423.151303363     A.U. after   13 cycles
 Optimization completed.
    -- Stationary point found.
 Normal termination of Gaussian 09 at Mon Jan 27 17:03:24 2020.

 ----------------------------------------------------------------------
 #N Geom=AllCheck Guess=TCheck SCRF=Check GenChk RB3LYP/6-31G(2df,p) Fr
 eq
 ----------------------------------------------------------------------

 Structure from the checkpoint file:  "/scratch/puck/g09_a70d2479-36ba-4f87-8e4c-467b95ed6dd8/Gau-59061.chk"
 -----
 titel
 -----
 Charge =  0 Multiplicity = 1

                         Standard orientation:
 ---------------------------------------------------------------------
 Center     Atomic      Atomic             Coordinates (Angstroms)
 Number     Number       Type             X           Y           Z
 ---------------------------------------------------------------------
      1          8           0        1.743881   -0.970278    1.153608
      2          6           0        0.940987   -0.251730    0.292936
      3          6           0        1.154360    0.277215   -1.126388
      4          6           0        0.419481    1.566291   -0.771144
      5          6           0        0.084239    0.982114    0.649280
      6          6           0       -1.386377    0.654195    0.953560
      7          8           0       -1.808117   -0.585571    0.409821
      8          6           0       -1.273388   -0.873101   -0.875950
      9          6           0        0.250141   -0.922410   -0.843617
     10          1           0        2.402764   -0.372072    1.523896
     11          1           0        2.008511    0.181406   -1.785431
     12          1           0        1.088895    2.427388   -0.704742
     13          1           0       -0.437219    1.842496   -1.394848
     14          1           0        0.503977    1.600369    1.446865
     15          1           0       -1.548140    0.566126    2.032742
     16          1           0       -2.027712    1.474331    0.586874
     17          1           0       -1.679666   -1.851888   -1.142944
     18          1           0       -1.641653   -0.149806   -1.621795
     19          1           0        0.707476   -1.866999   -1.120101
 ---------------------------------------------------------------------

 SCF Done:  E(RB3LYP) =  -423.151303363     A.U. after    1 cycles

 The electronic state is 1-A.
 Alpha  occ. eigenvalues --  -19.15037 -19.12947 -10.23752 -10.22259 -10.22174
 Alpha  occ. eigenvalues --  -10.19123 -10.18735 -10.18685 -10.18520  -1.03735
 Alpha  occ. eigenvalues --   -1.02177  -0.88876  -0.76697  -0.69270  -0.67372
 Alpha  occ. eigenvalues --   -0.62276  -0.56217  -0.53975  -0.52058  -0.48226
 Alpha  occ. eigenvalues --   -0.47280  -0.45258  -0.42329  -0.41395  -0.40900
 Alpha  occ. eigenvalues --   -0.39264  -0.37270  -0.35785  -0.32649  -0.31713
 Alpha  occ. eigenvalues --   -0.29677  -0.26695  -0.25431  -0.22810
 Alpha virt. eigenvalues --    0.07474   0.08553   0.10320   0.11042   0.11690
 Alpha virt. eigenvalues --    0.13832   0.14603   0.15578   0.16807   0.17614
 Alpha virt. eigenvalues --    0.19028   0.19391   0.20465   0.21333   0.22287

 Mulliken charges:
               1
     1  O   -0.458861
     2  C    0.394651
     3  C   -0.161263
     4  C   -0.245042
     5  C   -0.130800
     6  C   -0.081991
     7  O   -0.244540
     8  C   -0.108326
     9  C   -0.090396
    10  H    0.283314
    11  H    0.086239
    12  H    0.100455
    13  H    0.097070
    14  H    0.070716
    15  H    0.108365
    16  H    0.084611
    17  H    0.110886
    18  H    0.088549
    19  H    0.096364
 Sum of Mulliken charges =   0.00000

 Dipole moment (field-independent basis, Debye):
    X=              1.5288    Y=              1.8865    Z=             -0.4334  Tot=              2.4665
 Quadrupole moment (field-independent basis, Debye-Ang):
   XX=            -52.6382   YY=            -53.4668   ZZ=            -51.4606
   XY=              0.9318   XZ=              2.4858   YZ=              4.0757

  Exact polarizability:  74.458   0.779  73.880   0.143   2.868  72.937
 Approx polarizability: 104.503   2.145 109.620   1.615   0.775 110.805

                      1                      2                      3
                      A                      A                      A
 Frequencies --    169.7691               199.0969               265.0568
 Red. masses --      3.4757                 2.8855                 2.1408
 Frc consts  --      0.0590                 0.0674                 0.0886
 IR Inten    --      2.2667                 0.9357                 7.9663

                      4                      5                      6
                      A                      A                      A
 Frequencies --    313.0882               344.9315               396.6209
 Red. masses --      1.8344                 1.4514                 2.9562
 Frc consts  --      0.1059                 0.1017                 0.2740
 IR Inten    --     17.7729                64.5077                15.4070

                      7                      8                      9
                      A                      A                      A
 Frequencies --    459.9368               491.6778               560.5125
 Red. masses --      2.8845                 4.7854                 3.6861
 Frc consts  --      0.3595                 0.6816                 0.6823
 IR Inten    --      2.6491                 6.5932                 5.4441

                     10                     11                     12
                      A                      A                      A
 Frequencies --    619.6634               679.5780               786.4071
 Red. masses --      3.5613                 3.4388                 3.0478
 Frc consts  --      0.8057                 0.9357                 1.1105
 IR Inten    --      9.7757                 0.9035                 5.1149

                     13                     14                     15
                      A                      A                      A
 Frequencies --    802.9066               840.9264               876.5457
 Red. masses --      2.6267                 3.2839                 1.8853
 Frc consts  --      0.9977                 1.3682                 0.8534
 IR Inten    --      1.4127                20.2116                 0.5616

                     16                     17                     18
                      A                      A                      A
 Frequencies --    905.8351               919.4870               970.6555
 Red. masses --      2.5250                 1.9061                 2.4047
 Frc consts  --      1.2207                 0.9495                 1.3349
 IR Inten    --      9.3887                 4.3312                14.3258

                     19                     20                     21
                      A                      A                      A
 Frequencies --   1006.4204              1019.1332              1030.0970
 Red. masses --      1.7402                 2.0840                 1.4145
 Frc consts  --      1.0385                 1.2753                 0.8843
 IR Inten    --      3.1730                10.0246                 0.9945

                     22                     23                     24
                      A                      A                      A
 Frequencies --   1069.9426              1079.6977              1101.8668
 Red. masses --      2.0730                 2.2666                 2.3050
 Frc consts  --      1.3982                 1.5568                 1.6489
 IR Inten    --     12.6031                10.9171                 2.4394

                     25                     26                     27
                      A                      A                      A
 Frequencies --   1135.6842              1168.5453              1170.8602
 Red. masses --      2.9008                 1.6359                 1.4834
 Frc consts  --      2.2044                 1.3161                 1.1981
 IR Inten    --     57.6072                 1.9766                14.0066

                     28                     29                     30
                      A                      A                      A
 Frequencies --   1186.0570              1238.2140              1260.5823
 Red. masses --      1.6929                 2.2317                 1.1839
 Frc consts  --      1.4031                 2.0159                 1.1085
 IR Inten    --     16.8778                17.2495                27.0332

                     31                     32                     33
                      A                      A                      A
 Frequencies --   1279.9390              1297.9602              1311.3417
 Red. masses --      1.3736                 1.7286                 1.3820
 Frc consts  --      1.3258                 1.7158                 1.4002
 IR Inten    --      7.2620                96.5046                24.8903

                     34                     35                     36
                      A                      A                      A
 Frequencies --   1327.3387              1344.6193              1384.5424
 Red. masses --      1.5933                 1.3333                 1.3293
 Frc consts  --      1.6539                 1.4203                 1.5013
 IR Inten    --      3.3401                18.3700                20.3390

                     37                     38                     39
                      A                      A                      A
 Frequencies --   1414.6261              1478.6575              1494.1595
 Red. masses --      1.3457                 1.9294                 1.2714
 Frc consts  --      1.5866                 2.4855                 1.6723
 IR Inten    --     12.0284                22.4118                 6.8967

                     40                     41                     42
                      A                      A                      A
 Frequencies --   1501.4051              1515.4348              2952.3977
 Red. masses --      1.1402                 1.1782                 1.0720
 Frc consts  --      1.5144                 1.5942                 5.5054
 IR Inten    --      1.3393                15.9661                64.1533

                     43                     44                     45
                      A                      A                      A
 Frequencies --   2968.5407              3046.3014              3063.3311
 Red. masses --      1.0718                 1.0602                 1.0897
 Frc consts  --      5.5650                 5.7967                 6.0248
 IR Inten    --     61.9642                47.9272                13.9041

                     46                     47                     48
                      A                      A                      A
 Frequencies --   3077.0268              3089.7936              3101.0580
 Red. masses --      1.0897                 1.0911                 1.1025
 Frc consts  --      6.0787                 6.1374                 6.2469
 IR Inten    --     42.4146                32.0492                31.7676

                     49                     50                     51
                      A                      A                      A
 Frequencies --   3167.7318              3189.4381              3788.4850
 Red. masses --      1.0880                 1.0932                 1.0659
 Frc consts  --      6.4322                 6.5518                 9.0133
 IR Inten    --      6.2721                19.5144                17.5389

 - Thermochemistry -
 -------------------
 Temperature   298.150 Kelvin.  Pressure   1.00000 Atm.
 Atom     1 has atomic number  8 and mass  15.99491

 Molecular mass:   126.06808 amu.
 Principal axes and moments of inertia in atomic units:
                           1         2         3
     Eigenvalues --   750.450081059.886151098.77434
           X            1.00000   0.00236   0.00203
           Y           -0.00291   0.93924   0.34324
           Z           -0.00110  -0.34324   0.93925
 This molecule is an asymmetric top.
 Rotational symmetry number  1.
 Warning -- assumption of classical behavior for rotation
           may cause significant error
 Rotational temperatures (Kelvin)      0.11542     0.08172     0.07883
 Rotational constants (GHZ):           2.40488     1.70277     1.64250
 Zero-point vibrational energy     423860.4 (Joules/Mol)
                                  101.30506 (Kcal/Mol)
 Warning -- explicit consideration of  10 degrees of freedom as
           vibrations may cause significant error
 Vibrational temperatures:    244.26   286.46   381.36   450.46   496.28
          (Kelvin)            570.65   661.75   707.41   806.45   891.56
                              977.76  1131.46  1155.20  1209.90  1261.15
                             1303.29  1322.94  1396.55  1448.01  1466.30
                             1482.08  1539.41  1553.44  1585.34  1633.99
                             1681.27  1684.60  1706.47  1781.51  1813.69
                             1841.54  1867.47  1886.73  1909.74  1934.60
                             1992.05  2035.33  2127.46  2149.76  2160.18
                             2180.37  4247.84  4271.06  4382.94  4407.44
                             4427.15  4445.52  4461.73  4557.65  4588.88
                             5450.78

 Zero-point correction=                           0.161440 (Hartree/Particle)
 Thermal correction to Energy=                    0.168739
 Thermal correction to Enthalpy=                  0.169684
 Thermal correction to Gibbs Free Energy=         0.130171
 Sum of electronic and zero-point Energies=           -422.989863
 Sum of electronic and thermal Energies=              -422.982564
 Sum of electronic and thermal Enthalpies=            -422.981620
 Sum of electronic and thermal Free Energies=         -423.021132

                     E (Thermal)             CV                S
                      KCal/Mol        Cal/Mol-Kelvin    Cal/Mol-Kelvin
 Total                  105.886             29.979             83.161
 Electronic               0.000              0.000              0.000
 Translational            0.889              2.981             40.409
 Rotational               0.889              2.981             28.260
 Vibrational            104.108             24.017             14.493
 Vibration     1          0.625              1.880              2.438
 Vibration     2          0.637              1.841              2.141
 Vibration     3          0.671              1.737              1.628
 Vibration     4          0.701              1.649              1.346
 Vibration     5          0.723              1.586              1.189
 Vibration     6          0.763              1.477              0.975
 Vibration     7          0.818              1.339              0.766
 Vibration     8          0.847              1.268              0.679
 Vibration     9          0.916              1.117              0.523
 Vibration    10          0.980              0.990              0.417

 Optimization completed.
    -- Stationary point found.
 Normal termination of Gaussian 09 at Mon Jan 27 17:51:05 2020.
