 Gaussian 09, Revision D.01,
 Gaussian 09:  ES64L-G09RevD.01 24-Apr-2013

 -----------------------------
 # b3lyp 6-31G(2df,p) opt Freq
 -----------------------------

 -----
 titel
 -----
 Symbolic Z-matrix:
 Charge =  0 Multiplicity = 1

 SCF Done:  E(RB3LYP) =  -423.110162731     A.U. after   14 cycles
 Optimization completed.
    -- Stationary point found.
 Normal termination of Gaussian 09 at Mon Jan 27 18:07:18 2020.

 ----------------------------------------------------------------------
 #N Geom=AllCheck Guess=TCheck SCRF=Check GenChk RB3LYP/6-31G(2df,p) Fr
 eq
 ----------------------------------------------------------------------

 Structure from the checkpoint file:  "/scratch/puck/g09_8e5febd7-5859-4336-9f6e-583cdc317d29/Gau-52990.chk"
 -----
 titel
 -----
 Charge =  0 Multiplicity = 1

                         Standard orientation:
 ---------------------------------------------------------------------
 Center     Atomic      Atomic             Coordinates (Angstroms)
 Number     Number       Type             X           Y           Z
 ---------------------------------------------------------------------
      1          6           0        2.248081   -1.103182   -0.046780
      2          6           0        0.983133   -0.301334    0.050337
      3          6           0        0.130579   -0.069119    1.300169
      4          6           0       -0.831874    0.587029    0.236951
      5          6           0       -2.176274   -0.127938    0.129207
      6          8           0       -1.476461   -1.312548   -0.370768
      7          6           0       -0.332364   -0.491534   -0.750837
      8          6           0       -0.025139    1.793305   -0.184662
      9          8           0        1.244737    1.084124   -0.380770
     10          1           0        2.635432   -1.082436   -1.070049
     11          1           0        3.016567   -0.697443    0.618319
     12          1           0        2.056526   -2.142995    0.232698
     13          1           0       -0.286365   -0.979116    1.728181
     14          1           0        0.553841    0.583008    2.066986
     15          1           0       -2.723995   -0.334706    1.053627
     16          1           0       -2.856743    0.274422   -0.632403
     17          1           0       -0.280410   -0.336148   -1.832826
     18          1           0       -0.343427    2.244164   -1.129757
     19          1           0        0.105513    2.575286    0.571226
 ---------------------------------------------------------------------

 SCF Done:  E(RB3LYP) =  -423.110162731     A.U. after    1 cycles

 The electronic state is 1-A.
 Alpha  occ. eigenvalues --  -19.14293 -19.13735 -10.24438 -10.24386 -10.23541
 Alpha  occ. eigenvalues --  -10.22736 -10.20477 -10.18343 -10.17731  -1.05366
 Alpha  occ. eigenvalues --   -1.02134  -0.81687  -0.76436  -0.69775  -0.67784
 Alpha  occ. eigenvalues --   -0.65950  -0.55268  -0.53727  -0.50808  -0.48810
 Alpha  occ. eigenvalues --   -0.46623  -0.46293  -0.42866  -0.41678  -0.41017
 Alpha  occ. eigenvalues --   -0.38422  -0.37554  -0.35184  -0.34371  -0.32410
 Alpha  occ. eigenvalues --   -0.31408  -0.26971  -0.26593  -0.24010
 Alpha virt. eigenvalues --    0.06010   0.08278   0.10260   0.11887   0.12615
 Alpha virt. eigenvalues --    0.13655   0.14393   0.15421   0.16191   0.16634
 Alpha virt. eigenvalues --    0.17095   0.17426   0.17999   0.18559   0.21057

 Mulliken charges:
               1
     1  C   -0.504866
     2  C    0.397191
     3  C   -0.301474
     4  C    0.205720
     5  C   -0.190262
     6  O   -0.309761
     7  C    0.084152
     8  C   -0.170623
     9  O   -0.326904
    10  H    0.129781
    11  H    0.128021
    12  H    0.127063
    13  H    0.118910
    14  H    0.097441
    15  H    0.113066
    16  H    0.108675
    17  H    0.081359
    18  H    0.108987
    19  H    0.103524
 Sum of Mulliken charges =   0.00000

 Dipole moment (field-independent basis, Debye):
    X=             -0.7191    Y=              0.8781    Z=              0.7221  Tot=              1.3452
 Quadrupole moment (field-independent basis, Debye-Ang):
   XX=            -53.2677   YY=            -55.0465   ZZ=            -51.6897
   XY=             -5.4961   XZ=              0.1257   YZ=             -0.4257

  Exact polarizability:  83.995  -2.091  72.493   0.192  -0.879  68.988
 Approx polarizability: 116.168   2.032 110.769  -1.487   0.089 105.685

                      1                      2                      3
                      A                      A                      A
 Frequencies --    207.3293               225.7600               253.2207
 Red. masses --      1.0468                 2.9681                 2.4781
 Frc consts  --      0.0265                 0.0891                 0.0936
 IR Inten    --      0.2551                 3.3013                 3.7727

                      4                      5                      6
                      A                      A                      A
 Frequencies --    316.7554               337.2104               389.2441
 Red. masses --      2.6308                 3.2421                 2.5344
 Frc consts  --      0.1555                 0.2172                 0.2262
 IR Inten    --      0.3523                 3.6668                 4.5600

                      7                      8                      9
                      A                      A                      A
 Frequencies --    461.1072               492.0760               556.5635
 Red. masses --      3.1188                 2.0504                 4.3086
 Frc consts  --      0.3907                 0.2925                 0.7864
 IR Inten    --      3.0610                 1.8959                 0.2809

                     10                     11                     12
                      A                      A                      A
 Frequencies --    615.2108               705.7749               754.3127
 Red. masses --      4.0666                 3.5461                 3.6639
 Frc consts  --      0.9068                 1.0407                 1.2283
 IR Inten    --      2.8033                 7.2243                 1.9094

                     13                     14                     15
                      A                      A                      A
 Frequencies --    826.8646               853.5479               880.1384
 Red. masses --      4.2422                 2.4592                 2.9490
 Frc consts  --      1.7089                 1.0556                 1.3459
 IR Inten    --     40.2417                 6.6893                 9.5360

                     16                     17                     18
                      A                      A                      A
 Frequencies --    903.0578               916.3128               947.8027
 Red. masses --      2.3092                 4.8898                 3.8276
 Frc consts  --      1.1095                 2.4190                 2.0259
 IR Inten    --      9.9653                19.8799                62.6297

                     19                     20                     21
                      A                      A                      A
 Frequencies --    986.8365              1002.3333              1016.9164
 Red. masses --      2.8849                 1.7981                 1.9217
 Frc consts  --      1.6553                 1.0644                 1.1708
 IR Inten    --     59.4213                10.2788                16.5096

                     22                     23                     24
                      A                      A                      A
 Frequencies --   1039.8686              1055.0926              1104.2416
 Red. masses --      1.6226                 1.8898                 1.8393
 Frc consts  --      1.0337                 1.2395                 1.3214
 IR Inten    --      2.2687                 2.4151                 8.9332

                     25                     26                     27
                      A                      A                      A
 Frequencies --   1149.0580              1155.1149              1171.1668
 Red. masses --      1.4021                 1.2750                 1.5336
 Frc consts  --      1.0908                 1.0023                 1.2394
 IR Inten    --      6.1229                 0.4649                 3.9012

                     28                     29                     30
                      A                      A                      A
 Frequencies --   1194.7898              1213.4641              1238.0944
 Red. masses --      1.6113                 2.2849                 2.1696
 Frc consts  --      1.3552                 1.9823                 1.9594
 IR Inten    --      1.8526                 4.3046                 1.2684

                     31                     32                     33
                      A                      A                      A
 Frequencies --   1269.6147              1285.6634              1323.9947
 Red. masses --      1.4283                 1.5799                 1.5086
 Frc consts  --      1.3565                 1.5387                 1.5581
 IR Inten    --      3.5187                24.6679                14.2259

                     34                     35                     36
                      A                      A                      A
 Frequencies --   1353.4520              1372.8347              1417.5051
 Red. masses --      1.7567                 2.3060                 1.5845
 Frc consts  --      1.8960                 2.5607                 1.8758
 IR Inten    --      5.3447                 1.9434                18.0350

                     37                     38                     39
                      A                      A                      A
 Frequencies --   1479.5011              1481.3991              1489.9279
 Red. masses --      1.1657                 1.0581                 1.0528
 Frc consts  --      1.5033                 1.3681                 1.3770
 IR Inten    --      7.1067                 2.6553                 3.2854

                     40                     41                     42
                      A                      A                      A
 Frequencies --   1511.5225              1530.0913              3016.9695
 Red. masses --      1.1072                 1.1096                 1.0592
 Frc consts  --      1.4904                 1.5306                 5.6801
 IR Inten    --      1.1001                 0.5030                72.9103

                     43                     44                     45
                      A                      A                      A
 Frequencies --   3033.4639              3041.1050              3064.6641
 Red. masses --      1.0570                 1.0350                 1.0869
 Frc consts  --      5.7308                 5.6398                 6.0145
 IR Inten    --     76.1979                17.3891                41.3122

                     46                     47                     48
                      A                      A                      A
 Frequencies --   3080.2621              3082.9239              3086.5264
 Red. masses --      1.0673                 1.1022                 1.1063
 Frc consts  --      5.9666                 6.1719                 6.2097
 IR Inten    --      3.3497                39.7777                45.0076

                     49                     50                     51
                      A                      A                      A
 Frequencies --   3112.4662              3119.6977              3160.4132
 Red. masses --      1.1013                 1.1015                 1.1070
 Frc consts  --      6.2861                 6.3163                 6.5143
 IR Inten    --     14.5247                12.5923                10.7812

 - Thermochemistry -
 -------------------
 Temperature   298.150 Kelvin.  Pressure   1.00000 Atm.
 Atom     1 has atomic number  6 and mass  12.00000

 Molecular mass:   126.06808 amu.
 Principal axes and moments of inertia in atomic units:
                           1         2         3
     Eigenvalues --   625.581151015.327251295.93441
           X            0.99661  -0.08225   0.00126
           Y            0.08225   0.99649  -0.01555
           Z            0.00003   0.01560   0.99988
 This molecule is an asymmetric top.
 Rotational symmetry number  1.
 Warning -- assumption of classical behavior for rotation
           may cause significant error
 Rotational temperatures (Kelvin)      0.13845     0.08531     0.06684
 Rotational constants (GHZ):           2.88490     1.77750     1.39262
 Zero-point vibrational energy     420387.3 (Joules/Mol)
                                  100.47497 (Kcal/Mol)
 Warning -- explicit consideration of  10 degrees of freedom as
           vibrations may cause significant error
 Vibrational temperatures:    298.30   324.82   364.33   455.74   485.17
          (Kelvin)            560.03   663.43   707.99   800.77   885.15
                             1015.45  1085.29  1189.67  1228.06  1266.32
                             1299.30  1318.37  1363.67  1419.84  1442.13
                             1463.11  1496.14  1518.04  1588.76  1653.24
                             1661.95  1685.05  1719.03  1745.90  1781.34
                             1826.69  1849.78  1904.93  1947.31  1975.20
                             2039.47  2128.67  2131.40  2143.67  2174.74
                             2201.46  4340.74  4364.47  4375.47  4409.36
                             4431.80  4435.63  4440.82  4478.14  4488.54
                             4547.12

 Zero-point correction=                           0.160117 (Hartree/Particle)
 Thermal correction to Energy=                    0.167351
 Thermal correction to Enthalpy=                  0.168295
 Thermal correction to Gibbs Free Energy=         0.129028
 Sum of electronic and zero-point Energies=           -422.950046
 Sum of electronic and thermal Energies=              -422.942812
 Sum of electronic and thermal Enthalpies=            -422.941867
 Sum of electronic and thermal Free Energies=         -422.981135

                     E (Thermal)             CV                S
                      KCal/Mol        Cal/Mol-Kelvin    Cal/Mol-Kelvin
 Total                  105.014             29.995             82.646
 Electronic               0.000              0.000              0.000
 Translational            0.889              2.981             40.409
 Rotational               0.889              2.981             28.200
 Vibrational            103.237             24.034             14.037
 Vibration     1          0.641              1.829              2.067
 Vibration     2          0.650              1.802              1.912
 Vibration     3          0.664              1.757              1.708
 Vibration     4          0.704              1.642              1.327
 Vibration     5          0.718              1.601              1.225
 Vibration     6          0.757              1.493              1.003
 Vibration     7          0.819              1.336              0.763
 Vibration     8          0.848              1.268              0.678
 Vibration     9          0.912              1.125              0.531
 Vibration    10          0.975              1.000              0.424

 Optimization completed.
    -- Stationary point found.
 Normal termination of Gaussian 09 at Mon Jan 27 18:53:01 2020.
