 Gaussian 09, Revision D.01,
 Gaussian 09:  ES64L-G09RevD.01 24-Apr-2013

 -----------------------------
 # b3lyp 6-31G(2df,p) opt Freq
 -----------------------------

 -----
 titel
 -----
 Symbolic Z-matrix:
 Charge =  0 Multiplicity = 1

 SCF Done:  E(RB3LYP) =  -423.158965016     A.U. after   14 cycles
 SCF Done:  E(RB3LYP) =  -423.158964910     A.U. after    7 cycles
 Optimization completed.
    -- Stationary point found.
 Normal termination of Gaussian 09 at Mon Jan 27 13:15:50 2020.

 ----------------------------------------------------------------------
 #N Geom=AllCheck Guess=TCheck SCRF=Check GenChk RB3LYP/6-31G(2df,p) Fr
 eq
 ----------------------------------------------------------------------

 Structure from the checkpoint file:  "/scratch/puck/g09_41981d40-fec3-4132-be4f-76e46a1cc9b0/Gau-74608.chk"
 -----
 titel
 -----
 Charge =  0 Multiplicity = 1

                         Standard orientation:
 ---------------------------------------------------------------------
 Center     Atomic      Atomic             Coordinates (Angstroms)
 Number     Number       Type             X           Y           Z
 ---------------------------------------------------------------------
      1          8           0        2.055957   -1.698398    0.225618
      2          6           0        1.132823   -1.234428   -0.391844
      3          6           0        0.279130   -0.059288    0.069651
      4          6           0        1.019731    0.964704    0.955517
      5          6           0        0.964149    1.870007   -0.288725
      6          8           0        0.194512    0.887318   -1.031350
      7          6           0       -1.075452   -0.559774    0.516116
      8          6           0       -2.162235   -0.806305   -0.502281
      9          6           0       -2.277414    0.347187    0.461509
     10          1           0        0.823262   -1.632941   -1.383271
     11          1           0        0.436436    1.318443    1.806053
     12          1           0        2.007529    0.643346    1.285119
     13          1           0        0.411933    2.809218   -0.181033
     14          1           0        1.926327    2.071038   -0.773056
     15          1           0       -1.017001   -1.251610    1.352603
     16          1           0       -1.942121   -0.555610   -1.533635
     17          1           0       -2.804354   -1.669161   -0.368207
     18          1           0       -2.133131    1.340163    0.051940
     19          1           0       -2.997025    0.283137    1.269680
 ---------------------------------------------------------------------

 SCF Done:  E(RB3LYP) =  -423.158964910     A.U. after    1 cycles

 The electronic state is 1-A.
 Alpha  occ. eigenvalues --  -19.14721 -19.14593 -10.26984 -10.24974 -10.23959
 Alpha  occ. eigenvalues --  -10.20145 -10.19208 -10.19092 -10.19056  -1.05799
 Alpha  occ. eigenvalues --   -1.04276  -0.86383  -0.75786  -0.72918  -0.62061
 Alpha  occ. eigenvalues --   -0.60806  -0.59920  -0.52871  -0.52111  -0.49447
 Alpha  occ. eigenvalues --   -0.48899  -0.46361  -0.44632  -0.42646  -0.39690
 Alpha  occ. eigenvalues --   -0.39220  -0.37833  -0.36845  -0.34616  -0.31974
 Alpha  occ. eigenvalues --   -0.30674  -0.29343  -0.28015  -0.23942
 Alpha virt. eigenvalues --   -0.02742   0.07372   0.09509   0.09748   0.11519
 Alpha virt. eigenvalues --    0.12306   0.13254   0.14279   0.14534   0.16711
 Alpha virt. eigenvalues --    0.16950   0.17763   0.20439   0.21906   0.22720

 Mulliken charges:
               1
     1  O   -0.251529
     2  C    0.121247
     3  C    0.315606
     4  C   -0.334371
     5  C   -0.070860
     6  O   -0.327645
     7  C   -0.055276
     8  C   -0.270236
     9  C   -0.279303
    10  H    0.091886
    11  H    0.115603
    12  H    0.133920
    13  H    0.111054
    14  H    0.113558
    15  H    0.100276
    16  H    0.132844
    17  H    0.115067
    18  H    0.124632
    19  H    0.113525
 Sum of Mulliken charges =   0.00000

 Dipole moment (field-independent basis, Debye):
    X=             -1.4418    Y=              1.3402    Z=              0.6364  Tot=              2.0687
 Quadrupole moment (field-independent basis, Debye-Ang):
   XX=            -56.1532   YY=            -52.7670   ZZ=            -53.4922
   XY=              6.2084   XZ=             -2.2808   YZ=              2.0098

  Exact polarizability:  82.782   0.438  77.049   1.583   2.031  66.389
 Approx polarizability: 114.486  -5.172 109.260   7.531  -0.582 104.365

                      1                      2                      3
                      A                      A                      A
 Frequencies --     50.6653                78.1411                95.9791
 Red. masses --      4.9276                 2.8664                 2.3045
 Frc consts  --      0.0075                 0.0103                 0.0125
 IR Inten    --      5.6194                 0.4485                 1.8214

                      4                      5                      6
                      A                      A                      A
 Frequencies --    188.0769               229.3063               245.9565
 Red. masses --      2.4776                 3.0861                 3.9889
 Frc consts  --      0.0516                 0.0956                 0.1422
 IR Inten    --      0.0435                 4.2595                11.4363

                      7                      8                      9
                      A                      A                      A
 Frequencies --    324.2043               391.5913               443.3959
 Red. masses --      2.4191                 4.9544                 3.1293
 Frc consts  --      0.1498                 0.4476                 0.3625
 IR Inten    --      3.1092                 0.6298                 5.2552

                     10                     11                     12
                      A                      A                      A
 Frequencies --    601.2661               670.9912               786.4199
 Red. masses --      3.0214                 3.5053                 1.0965
 Frc consts  --      0.6436                 0.9299                 0.3996
 IR Inten    --      1.9829                15.1079                 0.1949

                     13                     14                     15
                      A                      A                      A
 Frequencies --    793.8418               824.6093               834.0864
 Red. masses --      1.1471                 1.2482                 2.9892
 Frc consts  --      0.4259                 0.5001                 1.2253
 IR Inten    --      3.0811                11.9148                 1.3018

                     16                     17                     18
                      A                      A                      A
 Frequencies --    881.5977               922.3334               939.9395
 Red. masses --      3.3515                 3.6361                 2.1941
 Frc consts  --      1.5347                 1.8225                 1.1421
 IR Inten    --     14.7634                 4.4633                11.2279

                     19                     20                     21
                      A                      A                      A
 Frequencies --    971.8130              1000.4008              1009.8475
 Red. masses --      2.5696                 3.8143                 3.6385
 Frc consts  --      1.4298                 2.2491                 2.1861
 IR Inten    --      3.0270                59.8604                39.9632

                     22                     23                     24
                      A                      A                      A
 Frequencies --   1016.4104              1065.5687              1090.3828
 Red. masses --      2.0872                 1.2975                 1.3669
 Frc consts  --      1.2704                 0.8680                 0.9575
 IR Inten    --     18.2912                 4.8362                 0.8989

                     25                     26                     27
                      A                      A                      A
 Frequencies --   1128.0649              1137.1517              1160.3963
 Red. masses --      1.7284                 1.3508                 1.2855
 Frc consts  --      1.2958                 1.0292                 1.0198
 IR Inten    --     11.2608                 9.9917                 0.8225

                     28                     29                     30
                      A                      A                      A
 Frequencies --   1193.7845              1198.0774              1205.8976
 Red. masses --      2.1436                 1.5238                 1.4590
 Frc consts  --      1.7999                 1.2887                 1.2500
 IR Inten    --      5.6203                 0.4880                 3.5127

                     31                     32                     33
                      A                      A                      A
 Frequencies --   1225.5826              1238.8710              1267.2463
 Red. masses --      1.7816                 1.6984                 1.8869
 Frc consts  --      1.5767                 1.5359                 1.7854
 IR Inten    --      6.2343                 0.7821                15.6259

                     34                     35                     36
                      A                      A                      A
 Frequencies --   1344.4991              1389.3688              1409.4509
 Red. masses --      1.4044                 1.5750                 1.3549
 Frc consts  --      1.4958                 1.7913                 1.5858
 IR Inten    --      0.2054                 2.4566                 4.9167

                     37                     38                     39
                      A                      A                      A
 Frequencies --   1455.3980              1489.2595              1496.8381
 Red. masses --      1.0910                 1.1195                 1.3817
 Frc consts  --      1.3616                 1.4630                 1.8240
 IR Inten    --      2.0732                 6.0919                 2.5739

                     40                     41                     42
                      A                      A                      A
 Frequencies --   1526.8947              1829.3538              2894.5223
 Red. masses --      1.1080                10.7938                 1.0839
 Frc consts  --      1.5220                21.2824                 5.3507
 IR Inten    --      0.6438               148.9343                80.6885

                     43                     44                     45
                      A                      A                      A
 Frequencies --   3032.0548              3077.9162              3093.8468
 Red. masses --      1.0558                 1.1106                 1.0598
 Frc consts  --      5.7188                 6.1992                 5.9769
 IR Inten    --     72.8149                25.7332                17.6655

                     46                     47                     48
                      A                      A                      A
 Frequencies --   3139.4149              3140.4324              3145.9123
 Red. masses --      1.0575                 1.0610                 1.0766
 Frc consts  --      6.1408                 6.1650                 6.2776
 IR Inten    --     13.2232                11.8060                 5.3069

                     49                     50                     51
                      A                      A                      A
 Frequencies --   3154.3197              3222.9637              3236.5425
 Red. masses --      1.1089                 1.1181                 1.1161
 Frc consts  --      6.5004                 6.8426                 6.8881
 IR Inten    --      9.0845                 0.3309                11.0802

 - Thermochemistry -
 -------------------
 Temperature   298.150 Kelvin.  Pressure   1.00000 Atm.
 Atom     1 has atomic number  8 and mass  15.99491

 Molecular mass:   126.06808 amu.
 Principal axes and moments of inertia in atomic units:
                           1         2         3
     Eigenvalues --   785.866901178.370761579.79576
           X            0.99678   0.08020  -0.00179
           Y           -0.08010   0.99629   0.03140
           Z            0.00430  -0.03115   0.99951
 This molecule is an asymmetric top.
 Rotational symmetry number  1.
 Warning -- assumption of classical behavior for rotation
           may cause significant error
 Rotational temperatures (Kelvin)      0.11021     0.07350     0.05483
 Rotational constants (GHZ):           2.29650     1.53156     1.14239
 Zero-point vibrational energy     414451.5 (Joules/Mol)
                                   99.05629 (Kcal/Mol)
 Warning -- explicit consideration of  10 degrees of freedom as
           vibrations may cause significant error
 Vibrational temperatures:     72.90   112.43   138.09   270.60   329.92
          (Kelvin)            353.88   466.46   563.41   637.95   865.09
                              965.41  1131.48  1142.16  1186.43  1200.06
                             1268.42  1327.03  1352.36  1398.22  1439.35
                             1452.94  1462.39  1533.11  1568.82  1623.03
                             1636.11  1669.55  1717.59  1723.76  1735.02
                             1763.34  1782.46  1823.28  1934.43  1998.99
                             2027.88  2093.99  2142.71  2153.61  2196.86
                             2632.03  4164.57  4362.45  4428.43  4451.35
                             4516.91  4518.38  4526.26  4538.36  4637.12
                             4656.66

 Zero-point correction=                           0.157856 (Hartree/Particle)
 Thermal correction to Energy=                    0.166754
 Thermal correction to Enthalpy=                  0.167698
 Thermal correction to Gibbs Free Energy=         0.123307
 Sum of electronic and zero-point Energies=           -423.001109
 Sum of electronic and thermal Energies=              -422.992211
 Sum of electronic and thermal Enthalpies=            -422.991267
 Sum of electronic and thermal Free Energies=         -423.035658

                     E (Thermal)             CV                S
                      KCal/Mol        Cal/Mol-Kelvin    Cal/Mol-Kelvin
 Total                  104.639             32.341             93.428
 Electronic               0.000              0.000              0.000
 Translational            0.889              2.981             40.409
 Rotational               0.889              2.981             28.772
 Vibrational            102.862             26.380             24.248
 Vibration     1          0.595              1.977              4.791
 Vibration     2          0.599              1.964              3.937
 Vibration     3          0.603              1.952              3.534
 Vibration     4          0.633              1.856              2.247
 Vibration     5          0.652              1.796              1.884
 Vibration     6          0.660              1.769              1.759
 Vibration     7          0.709              1.627              1.289
 Vibration     8          0.759              1.488              0.994
 Vibration     9          0.803              1.375              0.816
 Vibration    10          0.959              1.029              0.447

 Optimization completed.
    -- Stationary point found.
 Normal termination of Gaussian 09 at Mon Jan 27 13:59:15 2020.
