 Gaussian 09, Revision D.01,
 Gaussian 09:  ES64L-G09RevD.01 24-Apr-2013

 -----------------------------
 # b3lyp 6-31G(2df,p) opt Freq
 -----------------------------

 -----
 titel
 -----
 Symbolic Z-matrix:
 Charge =  0 Multiplicity = 1

 SCF Done:  E(RB3LYP) =  -423.149405194     A.U. after   12 cycles
 Optimization completed.
    -- Stationary point found.
 Normal termination of Gaussian 09 at Mon Jan 27 18:15:26 2020.

 ----------------------------------------------------------------------
 #N Geom=AllCheck Guess=TCheck SCRF=Check GenChk RB3LYP/6-31G(2df,p) Fr
 eq
 ----------------------------------------------------------------------

 Structure from the checkpoint file:  "/scratch/puck/g09_1287c27a-ceea-4afc-a9cd-16eb934cb13e/Gau-181969.chk"
 -----
 titel
 -----
 Charge =  0 Multiplicity = 1

                         Standard orientation:
 ---------------------------------------------------------------------
 Center     Atomic      Atomic             Coordinates (Angstroms)
 Number     Number       Type             X           Y           Z
 ---------------------------------------------------------------------
      1          8           0       -1.421091   -1.647840   -0.277227
      2          6           0       -0.376867   -0.791101    0.037026
      3          6           0        0.141997   -0.734778    1.468961
      4          6           0        0.840881    0.568866    0.980740
      5          6           0        1.887749   -0.000123    0.000000
      6          6           0        0.840808   -0.569047   -0.980691
      7          6           0        0.142175    0.734699   -1.468961
      8          6           0       -0.376702    0.791163   -0.037028
      9          8           0       -1.420759    1.648117    0.277188
     10          1           0       -1.687859   -1.496018   -1.190473
     11          1           0       -0.680636   -0.546524    2.166740
     12          1           0        0.771307   -1.541784    1.856291
     13          1           0        1.138009    1.350488    1.678585
     14          1           0        2.526133    0.755402   -0.467561
     15          1           0        2.526082   -0.755703    0.467533
     16          1           0        1.137829   -1.350737   -1.678506
     17          1           0        0.771640    1.541581   -1.856297
     18          1           0       -0.680458    0.546551   -2.166768
     19          1           0       -1.687492    1.496458    1.190472
 ---------------------------------------------------------------------

 SCF Done:  E(RB3LYP) =  -423.149405194     A.U. after    1 cycles

 The electronic state is 1-A.
 Alpha  occ. eigenvalues --  -19.14477 -19.14477 -10.23047 -10.23031 -10.18963
 Alpha  occ. eigenvalues --  -10.18962 -10.18220 -10.18029 -10.18029  -1.03649
 Alpha  occ. eigenvalues --   -1.02285  -0.89955  -0.75742  -0.70787  -0.65257
 Alpha  occ. eigenvalues --   -0.60636  -0.57005  -0.54609  -0.52306  -0.48736
 Alpha  occ. eigenvalues --   -0.47244  -0.45948  -0.39932  -0.39915  -0.37747
 Alpha  occ. eigenvalues --   -0.37707  -0.35980  -0.34951  -0.33816  -0.32935
 Alpha  occ. eigenvalues --   -0.31490  -0.28062  -0.28017  -0.21685
 Alpha virt. eigenvalues --    0.06577   0.07448   0.10360   0.11909   0.12928
 Alpha virt. eigenvalues --    0.13901   0.15138   0.15592   0.16840   0.18008
 Alpha virt. eigenvalues --    0.19143   0.20093   0.20675   0.22177   0.23160

 Mulliken charges:
               1
     1  O   -0.481843
     2  C    0.368808
     3  C   -0.297652
     4  C   -0.118948
     5  C   -0.201380
     6  C   -0.118937
     7  C   -0.297649
     8  C    0.368808
     9  O   -0.481844
    10  H    0.284382
    11  H    0.090463
    12  H    0.094660
    13  H    0.066174
    14  H    0.094648
    15  H    0.094640
    16  H    0.066176
    17  H    0.094657
    18  H    0.090457
    19  H    0.284381
 Sum of Mulliken charges =   0.00000

 Dipole moment (field-independent basis, Debye):
    X=              0.7301    Y=              0.0001    Z=              0.0001  Tot=              0.7301
 Quadrupole moment (field-independent basis, Debye-Ang):
   XX=            -53.2921   YY=            -57.8943   ZZ=            -48.1256
   XY=             -0.0005   XZ=              0.0002   YZ=              3.3311

  Exact polarizability:  74.830   0.000  69.705   0.000  -1.478  77.214
 Approx polarizability: 109.849   0.000 107.483   0.000  -1.925 112.521

                      1                      2                      3
                      A                      A                      A
 Frequencies --    167.4613               174.9132               256.7326
 Red. masses --      1.9191                 1.0567                 2.0265
 Frc consts  --      0.0317                 0.0190                 0.0787
 IR Inten    --     11.4465               108.7490                60.7970

                      4                      5                      6
                      A                      A                      A
 Frequencies --    287.4141               290.6883               360.5800
 Red. masses --      2.6593                 2.9348                 3.6833
 Frc consts  --      0.1294                 0.1461                 0.2822
 IR Inten    --      0.6446                 6.9015                15.5400

                      7                      8                      9
                      A                      A                      A
 Frequencies --    447.5818               475.6522               529.7602
 Red. masses --      2.0889                 1.9080                 3.0012
 Frc consts  --      0.2466                 0.2543                 0.4962
 IR Inten    --      3.0594                 4.0851                 0.7474

                     10                     11                     12
                      A                      A                      A
 Frequencies --    572.4868               654.2592               673.4123
 Red. masses --      4.2204                 4.4730                 3.9436
 Frc consts  --      0.8150                 1.1281                 1.0537
 IR Inten    --      0.2093                13.5720                 0.2014

                     13                     14                     15
                      A                      A                      A
 Frequencies --    704.1461               806.4207               856.0414
 Red. masses --      3.5757                 3.1407                 3.4370
 Frc consts  --      1.0446                 1.2034                 1.4840
 IR Inten    --      8.7584                 0.6878                15.4541

                     16                     17                     18
                      A                      A                      A
 Frequencies --    872.2385               921.5192               926.3409
 Red. masses --      2.0447                 1.7211                 2.7248
 Frc consts  --      0.9165                 0.8611                 1.3776
 IR Inten    --      1.9079                 3.9018                 3.4785

                     19                     20                     21
                      A                      A                      A
 Frequencies --    938.0684               981.1834              1004.2502
 Red. masses --      1.9848                 1.5756                 1.8996
 Frc consts  --      1.0291                 0.8937                 1.1288
 IR Inten    --      0.0796                 0.8884                16.8361

                     22                     23                     24
                      A                      A                      A
 Frequencies --   1038.6015              1055.7207              1063.3523
 Red. masses --      1.3373                 1.4205                 1.6447
 Frc consts  --      0.8499                 0.9328                 1.0957
 IR Inten    --      0.7969                 2.9634                32.4334

                     25                     26                     27
                      A                      A                      A
 Frequencies --   1091.0373              1102.5222              1144.2218
 Red. masses --      1.4828                 2.0474                 1.3262
 Frc consts  --      1.0400                 1.4663                 1.0230
 IR Inten    --     34.5416                10.4914                 3.8538

                     28                     29                     30
                      A                      A                      A
 Frequencies --   1170.5993              1180.0944              1218.9440
 Red. masses --      1.7239                 1.8310                 1.7038
 Frc consts  --      1.3918                 1.5024                 1.4915
 IR Inten    --      0.9309                 5.5272                13.2188

                     31                     32                     33
                      A                      A                      A
 Frequencies --   1229.8439              1236.6950              1272.5927
 Red. masses --      1.5071                 1.8283                 1.6899
 Frc consts  --      1.3430                 1.6475                 1.6125
 IR Inten    --      7.3820                14.0276                 2.9852

                     34                     35                     36
                      A                      A                      A
 Frequencies --   1274.2282              1313.5571              1338.1790
 Red. masses --      1.7931                 1.7410                 3.2188
 Frc consts  --      1.7154                 1.7699                 3.3960
 IR Inten    --    106.3713                61.9428               202.4810

                     37                     38                     39
                      A                      A                      A
 Frequencies --   1382.7867              1399.9764              1493.1310
 Red. masses --      2.0137                 2.1817                 1.1382
 Frc consts  --      2.2686                 2.5193                 1.4951
 IR Inten    --      5.4766                 5.6366                 0.0321

                     40                     41                     42
                      A                      A                      A
 Frequencies --   1501.8305              1520.3187              3042.9895
 Red. masses --      1.1498                 1.1351                 1.0571
 Frc consts  --      1.5279                 1.5458                 5.7670
 IR Inten    --      6.2094                 4.0552                71.5631

                     43                     44                     45
                      A                      A                      A
 Frequencies --   3043.0511              3048.2336              3090.4104
 Red. masses --      1.0565                 1.0584                 1.1077
 Frc consts  --      5.7640                 5.7943                 6.2333
 IR Inten    --     20.0791                20.5549                 8.8540

                     46                     47                     48
                      A                      A                      A
 Frequencies --   3096.4770              3098.1467              3125.2285
 Red. masses --      1.1075                 1.1081                 1.0891
 Frc consts  --      6.2563                 6.2664                 6.2675
 IR Inten    --     45.2855                40.6920                65.4063

                     49                     50                     51
                      A                      A                      A
 Frequencies --   3125.5850              3804.8738              3805.4102
 Red. masses --      1.0919                 1.0655                 1.0656
 Frc consts  --      6.2847                 9.0885                 9.0916
 IR Inten    --      5.5788                23.4479                10.5154

 - Thermochemistry -
 -------------------
 Temperature   298.150 Kelvin.  Pressure   1.00000 Atm.
 Atom     1 has atomic number  8 and mass  15.99491

 Molecular mass:   126.06808 amu.
 Principal axes and moments of inertia in atomic units:
                           1         2         3
     Eigenvalues --   857.43500 907.620561031.31628
           X            1.00000  -0.00004   0.00000
           Y            0.00004   0.99980  -0.01998
           Z            0.00001   0.01998   0.99980
 This molecule is an asymmetric top.
 Rotational symmetry number  1.
 Warning -- assumption of classical behavior for rotation
           may cause significant error
 Rotational temperatures (Kelvin)      0.10102     0.09543     0.08398
 Rotational constants (GHZ):           2.10481     1.98843     1.74994
 Zero-point vibrational energy     419947.8 (Joules/Mol)
                                  100.36993 (Kcal/Mol)
 Warning -- explicit consideration of  10 degrees of freedom as
           vibrations may cause significant error
 Vibrational temperatures:    240.94   251.66   369.38   413.52   418.24
          (Kelvin)            518.79   643.97   684.36   762.21   823.68
                              941.33   968.89  1013.11  1160.26  1231.65
                             1254.96  1325.86  1332.80  1349.67  1411.70
                             1444.89  1494.31  1518.94  1529.92  1569.76
                             1586.28  1646.28  1684.23  1697.89  1753.79
                             1769.47  1779.33  1830.97  1833.33  1889.91
                             1925.34  1989.52  2014.25  2148.28  2160.80
                             2187.40  4378.18  4378.27  4385.72  4446.41
                             4455.13  4457.54  4496.50  4497.01  5474.36
                             5475.13

 Zero-point correction=                           0.159950 (Hartree/Particle)
 Thermal correction to Energy=                    0.167686
 Thermal correction to Enthalpy=                  0.168630
 Thermal correction to Gibbs Free Energy=         0.128391
 Sum of electronic and zero-point Energies=           -422.989456
 Sum of electronic and thermal Energies=              -422.981719
 Sum of electronic and thermal Enthalpies=            -422.980775
 Sum of electronic and thermal Free Energies=         -423.021014

                     E (Thermal)             CV                S
                      KCal/Mol        Cal/Mol-Kelvin    Cal/Mol-Kelvin
 Total                  105.225             31.696             84.690
 Electronic               0.000              0.000              0.000
 Translational            0.889              2.981             40.409
 Rotational               0.889              2.981             28.175
 Vibrational            103.447             25.734             16.107
 Vibration     1          0.624              1.883              2.464
 Vibration     2          0.627              1.873              2.382
 Vibration     3          0.666              1.751              1.684
 Vibration     4          0.685              1.697              1.489
 Vibration     5          0.687              1.691              1.470
 Vibration     6          0.735              1.553              1.120
 Vibration     7          0.807              1.366              0.803
 Vibration     8          0.832              1.304              0.722
 Vibration     9          0.885              1.184              0.588
 Vibration    10          0.929              1.091              0.499

 Optimization completed.
    -- Stationary point found.
 Normal termination of Gaussian 09 at Mon Jan 27 19:06:29 2020.
