 Gaussian 09, Revision D.01,
 Gaussian 09:  ES64L-G09RevD.01 24-Apr-2013

 -----------------------------
 # b3lyp 6-31G(2df,p) opt Freq
 -----------------------------

 -----
 titel
 -----
 Symbolic Z-matrix:
 Charge =  0 Multiplicity = 1

 SCF Done:  E(RB3LYP) =  -423.221236093     A.U. after   14 cycles
 Optimization completed.
    -- Stationary point found.
 Normal termination of Gaussian 09 at Tue Jan 28 03:58:31 2020.

 ----------------------------------------------------------------------
 #N Geom=AllCheck Guess=TCheck SCRF=Check GenChk RB3LYP/6-31G(2df,p) Fr
 eq
 ----------------------------------------------------------------------

 Structure from the checkpoint file:  "/scratch/puck/g09_9c5a5811-b74e-4365-9dca-fb020c90032f/Gau-68026.chk"
 -----
 titel
 -----
 Charge =  0 Multiplicity = 1

                         Standard orientation:
 ---------------------------------------------------------------------
 Center     Atomic      Atomic             Coordinates (Angstroms)
 Number     Number       Type             X           Y           Z
 ---------------------------------------------------------------------
      1          8           0        2.127761   -0.345456    1.244365
      2          6           0        1.926642   -0.099330   -0.144212
      3          6           0        1.030928   -1.167446   -0.788435
      4          6           0       -0.385285   -1.141239   -0.194590
      5          6           0       -0.920376    0.264595   -0.073894
      6          6           0       -2.365462    0.448023    0.153827
      7          8           0       -3.163374   -0.457136    0.248927
      8          6           0       -0.139457    1.353639   -0.163268
      9          6           0        1.344828    1.304956   -0.384443
     10          1           0        1.285508   -0.225064    1.696056
     11          1           0        2.929998   -0.149702   -0.578291
     12          1           0        0.981907   -0.979026   -1.868225
     13          1           0        1.482357   -2.153962   -0.649573
     14          1           0       -1.078997   -1.738115   -0.794470
     15          1           0       -0.394231   -1.618044    0.795357
     16          1           0       -2.687406    1.511459    0.234609
     17          1           0       -0.601208    2.336767   -0.077251
     18          1           0        1.564321    1.637777   -1.409671
     19          1           0        1.851746    2.019455    0.275214
 ---------------------------------------------------------------------

 SCF Done:  E(RB3LYP) =  -423.221236093     A.U. after    1 cycles

 The electronic state is 1-A.
 Alpha  occ. eigenvalues --  -19.13926 -19.13446 -10.26617 -10.23966 -10.21525
 Alpha  occ. eigenvalues --  -10.20296 -10.20099 -10.19401 -10.18772  -1.04019
 Alpha  occ. eigenvalues --   -1.02260  -0.84799  -0.76324  -0.75992  -0.65778
 Alpha  occ. eigenvalues --   -0.62733  -0.58547  -0.53848  -0.50686  -0.47148
 Alpha  occ. eigenvalues --   -0.46601  -0.45380  -0.44576  -0.42505  -0.40767
 Alpha  occ. eigenvalues --   -0.39942  -0.39452  -0.36707  -0.35532  -0.34539
 Alpha  occ. eigenvalues --   -0.31892  -0.27595  -0.26517  -0.25286
 Alpha virt. eigenvalues --   -0.05562   0.05599   0.06830   0.09538   0.11012
 Alpha virt. eigenvalues --    0.12505   0.13824   0.15088   0.16061   0.16210
 Alpha virt. eigenvalues --    0.16974   0.20016   0.20271   0.21249   0.21566

 Mulliken charges:
               1
     1  O   -0.439868
     2  C    0.121021
     3  C   -0.226723
     4  C   -0.318318
     5  C    0.217288
     6  C    0.089019
     7  O   -0.273522
     8  C   -0.134749
     9  C   -0.282523
    10  H    0.284939
    11  H    0.087813
    12  H    0.100168
    13  H    0.108865
    14  H    0.131162
    15  H    0.120472
    16  H    0.066150
    17  H    0.101550
    18  H    0.123230
    19  H    0.124027
 Sum of Mulliken charges =   0.00000

 Dipole moment (field-independent basis, Debye):
    X=              1.6324    Y=              1.8942    Z=             -1.0867  Tot=              2.7265
 Quadrupole moment (field-independent basis, Debye-Ang):
   XX=            -67.0004   YY=            -50.5655   ZZ=            -52.3409
   XY=             -2.3619   XZ=             -2.9702   YZ=              0.7885

  Exact polarizability:  98.130   8.322  82.699  -5.567  -0.626  58.481
 Approx polarizability: 143.679  29.374 132.396  -8.609  -4.875  92.198

                      1                      2                      3
                      A                      A                      A
 Frequencies --     70.7536               132.5980               180.4408
 Red. masses --      4.9987                 3.2174                 3.1450
 Frc consts  --      0.0147                 0.0333                 0.0603
 IR Inten    --      3.5006                 1.8427                 8.2348

                      4                      5                      6
                      A                      A                      A
 Frequencies --    217.3910               290.6475               315.7719
 Red. masses --      3.9485                 1.3463                 1.7539
 Frc consts  --      0.1099                 0.0670                 0.1030
 IR Inten    --      7.4689                37.1745                35.2762

                      7                      8                      9
                      A                      A                      A
 Frequencies --    358.6414               386.1090               438.2566
 Red. masses --      2.0894                 2.7770                 2.6711
 Frc consts  --      0.1583                 0.2439                 0.3023
 IR Inten    --      0.9741                 4.2858                 3.9376

                     10                     11                     12
                      A                      A                      A
 Frequencies --    461.3763               552.4760               646.0347
 Red. masses --      2.7314                 4.5072                 5.5500
 Frc consts  --      0.3426                 0.8106                 1.3647
 IR Inten    --      2.7422                 0.6552                 9.2776

                     13                     14                     15
                      A                      A                      A
 Frequencies --    740.3475               775.0160               809.5124
 Red. masses --      2.5268                 2.3793                 1.8806
 Frc consts  --      0.8160                 0.8420                 0.7261
 IR Inten    --      9.5762                 7.5138                 0.5550

                     16                     17                     18
                      A                      A                      A
 Frequencies --    829.1992               920.1835               939.0216
 Red. masses --      1.8478                 1.8989                 2.3777
 Frc consts  --      0.7486                 0.9473                 1.2353
 IR Inten    --     15.3159                12.5796                 7.7315

                     19                     20                     21
                      A                      A                      A
 Frequencies --    975.9131               986.7091              1034.5557
 Red. masses --      2.6229                 1.9080                 1.8094
 Frc consts  --      1.4718                 1.0945                 1.1410
 IR Inten    --     13.9465                11.1922                 8.7645

                     22                     23                     24
                      A                      A                      A
 Frequencies --   1047.2678              1088.5392              1099.4204
 Red. masses --      1.9532                 1.8763                 1.9995
 Frc consts  --      1.2621                 1.3099                 1.4240
 IR Inten    --      6.3199                14.2477                38.5601

                     25                     26                     27
                      A                      A                      A
 Frequencies --   1169.4753              1180.3859              1208.8437
 Red. masses --      1.5284                 1.1647                 1.6185
 Frc consts  --      1.2316                 0.9562                 1.3935
 IR Inten    --     42.4281                20.3844                25.9282

                     28                     29                     30
                      A                      A                      A
 Frequencies --   1225.1106              1300.8508              1321.2701
 Red. masses --      1.3537                 1.4693                 1.3586
 Frc consts  --      1.1971                 1.4649                 1.3975
 IR Inten    --     28.5666                 3.3324                 6.0048

                     31                     32                     33
                      A                      A                      A
 Frequencies --   1340.1991              1375.3767              1379.4696
 Red. masses --      1.5049                 1.4456                 1.6213
 Frc consts  --      1.5926                 1.6111                 1.8178
 IR Inten    --      1.7806                 0.9531                 1.5374

                     34                     35                     36
                      A                      A                      A
 Frequencies --   1398.3187              1425.0359              1434.1104
 Red. masses --      2.0388                 1.2062                 1.2573
 Frc consts  --      2.3487                 1.4432                 1.5235
 IR Inten    --     21.6163                25.6193                23.4451

                     37                     38                     39
                      A                      A                      A
 Frequencies --   1452.5558              1477.6640              1486.1767
 Red. masses --      1.1057                 1.0778                 1.1015
 Frc consts  --      1.3745                 1.3866                 1.4335
 IR Inten    --     10.9893                 7.7243                 4.0465

                     40                     41                     42
                      A                      A                      A
 Frequencies --   1699.7986              1790.5388              2869.6736
 Red. masses --      6.6226                10.5833                 1.0827
 Frc consts  --     11.2739                19.9912                 5.2533
 IR Inten    --     42.6351               234.0861               115.2542

                     43                     44                     45
                      A                      A                      A
 Frequencies --   3006.2142              3018.0505              3033.4976
 Red. masses --      1.0677                 1.0730                 1.0638
 Frc consts  --      5.6852                 5.7582                 5.7674
 IR Inten    --     11.9109                10.1287                21.1789

                     46                     47                     48
                      A                      A                      A
 Frequencies --   3055.6539              3065.3775              3081.6100
 Red. masses --      1.0925                 1.0861                 1.0879
 Frc consts  --      6.0099                 6.0132                 6.0869
 IR Inten    --     13.7875                45.7350                10.8288

                     49                     50                     51
                      A                      A                      A
 Frequencies --   3091.3487              3134.3186              3807.2721
 Red. masses --      1.1000                 1.0885                 1.0658
 Frc consts  --      6.1934                 6.3002                 9.1026
 IR Inten    --     27.9983                16.1223                11.1067

 - Thermochemistry -
 -------------------
 Temperature   298.150 Kelvin.  Pressure   1.00000 Atm.
 Atom     1 has atomic number  8 and mass  15.99491

 Molecular mass:   126.06808 amu.
 Principal axes and moments of inertia in atomic units:
                           1         2         3
     Eigenvalues --   556.736911663.632271885.86321
           X            0.99993  -0.00451  -0.01112
           Y            0.00476   0.99972   0.02312
           Z            0.01101  -0.02317   0.99967
 This molecule is an asymmetric top.
 Rotational symmetry number  1.
 Warning -- assumption of classical behavior for rotation
           may cause significant error
 Rotational temperatures (Kelvin)      0.15557     0.05206     0.04593
 Rotational constants (GHZ):           3.24164     1.08482     0.95698
 Zero-point vibrational energy     419436.9 (Joules/Mol)
                                  100.24783 (Kcal/Mol)
 Warning -- explicit consideration of  11 degrees of freedom as
           vibrations may cause significant error
 Vibrational temperatures:    101.80   190.78   259.61   312.78   418.18
          (Kelvin)            454.32   516.00   555.52   630.55   663.82
                              794.89   929.50  1065.19  1115.07  1164.71
                             1193.03  1323.94  1351.04  1404.12  1419.65
                             1488.49  1506.78  1566.16  1581.82  1682.61
                             1698.31  1739.25  1762.66  1871.63  1901.01
                             1928.25  1978.86  1984.75  2011.87  2050.31
                             2063.36  2089.90  2126.03  2138.27  2445.63
                             2576.18  4128.82  4325.27  4342.30  4364.52
                             4396.40  4410.39  4433.74  4447.76  4509.58
                             5477.81

 Zero-point correction=                           0.159755 (Hartree/Particle)
 Thermal correction to Energy=                    0.168316
 Thermal correction to Enthalpy=                  0.169260
 Thermal correction to Gibbs Free Energy=         0.126427
 Sum of electronic and zero-point Energies=           -423.061481
 Sum of electronic and thermal Energies=              -423.052920
 Sum of electronic and thermal Enthalpies=            -423.051976
 Sum of electronic and thermal Free Energies=         -423.094809

                     E (Thermal)             CV                S
                      KCal/Mol        Cal/Mol-Kelvin    Cal/Mol-Kelvin
 Total                  105.620             32.445             90.150
 Electronic               0.000              0.000              0.000
 Translational            0.889              2.981             40.409
 Rotational               0.889              2.981             28.948
 Vibrational            103.842             26.484             20.793
 Vibration     1          0.598              1.968              4.132
 Vibration     2          0.613              1.921              2.908
 Vibration     3          0.629              1.866              2.324
 Vibration     4          0.646              1.815              1.981
 Vibration     5          0.687              1.691              1.470
 Vibration     6          0.703              1.644              1.332
 Vibration     7          0.733              1.557              1.128
 Vibration     8          0.755              1.500              1.015
 Vibration     9          0.798              1.387              0.832
 Vibration    10          0.819              1.336              0.762
 Vibration    11          0.908              1.134              0.539

 Optimization completed.
    -- Stationary point found.
 Normal termination of Gaussian 09 at Tue Jan 28 04:42:06 2020.
