 Gaussian 09, Revision D.01,
 Gaussian 09:  ES64L-G09RevD.01 24-Apr-2013

 -----------------------------
 # b3lyp 6-31G(2df,p) opt Freq
 -----------------------------

 -----
 titel
 -----
 Symbolic Z-matrix:
 Charge =  0 Multiplicity = 1

 SCF Done:  E(RB3LYP) =  -423.208320265     A.U. after   14 cycles
 Optimization completed.
    -- Stationary point found.
 Normal termination of Gaussian 09 at Mon Jan 27 17:22:39 2020.

 ----------------------------------------------------------------------
 #N Geom=AllCheck Guess=TCheck SCRF=Check GenChk RB3LYP/6-31G(2df,p) Fr
 eq
 ----------------------------------------------------------------------

 Structure from the checkpoint file:  "/scratch/puck/g09_89ed1c64-09fb-4729-8ee7-9316cffc3537/Gau-179566.chk"
 -----
 titel
 -----
 Charge =  0 Multiplicity = 1

                         Standard orientation:
 ---------------------------------------------------------------------
 Center     Atomic      Atomic             Coordinates (Angstroms)
 Number     Number       Type             X           Y           Z
 ---------------------------------------------------------------------
      1          6           0        1.856059    1.467168   -0.428380
      2          6           0        0.658691    0.720938    0.107890
      3          6           0        0.799845   -0.095769    1.385541
      4          6           0        0.579012   -0.794391    0.064703
      5          8           0        1.630299   -1.498456   -0.524265
      6          6           0       -0.840517   -1.217304   -0.261082
      7          6           0       -1.676673    0.062214   -0.121929
      8          8           0       -2.872768    0.108485   -0.005074
      9          6           0       -0.733250    1.273051   -0.152536
     10          1           0        2.001412    2.416386    0.099342
     11          1           0        2.765234    0.870963   -0.320641
     12          1           0        1.731739    1.693913   -1.493480
     13          1           0        1.800530   -0.161953    1.799345
     14          1           0        0.004523   -0.081850    2.126714
     15          1           0        1.782764   -2.298721   -0.010524
     16          1           0       -0.891017   -1.556886   -1.304005
     17          1           0       -1.251937   -2.013948    0.366633
     18          1           0       -0.793686    1.722715   -1.153448
     19          1           0       -1.068817    2.033702    0.559528
 ---------------------------------------------------------------------

 SCF Done:  E(RB3LYP) =  -423.208320265     A.U. after    1 cycles

 The electronic state is 1-A.
 Alpha  occ. eigenvalues --  -19.15224 -19.13057 -10.27039 -10.24524 -10.20353
 Alpha  occ. eigenvalues --  -10.19164 -10.19112 -10.18911 -10.17984  -1.04264
 Alpha  occ. eigenvalues --   -1.03776  -0.88316  -0.75721  -0.73673  -0.69588
 Alpha  occ. eigenvalues --   -0.60467  -0.55260  -0.53917  -0.50771  -0.47372
 Alpha  occ. eigenvalues --   -0.46431  -0.44262  -0.43290  -0.41946  -0.41262
 Alpha  occ. eigenvalues --   -0.39259  -0.39045  -0.37675  -0.35724  -0.34705
 Alpha  occ. eigenvalues --   -0.32465  -0.26824  -0.26701  -0.23908
 Alpha virt. eigenvalues --   -0.01772   0.06871   0.09709   0.10820   0.12223
 Alpha virt. eigenvalues --    0.13304   0.14150   0.15015   0.16221   0.18028
 Alpha virt. eigenvalues --    0.18419   0.18842   0.18958   0.21446   0.22042

 Mulliken charges:
               1
     1  C   -0.477237
     2  C    0.294464
     3  C   -0.401722
     4  C    0.361234
     5  O   -0.470255
     6  C   -0.393494
     7  C    0.385099
     8  O   -0.304326
     9  C   -0.387308
    10  H    0.117022
    11  H    0.130972
    12  H    0.116848
    13  H    0.115304
    14  H    0.113527
    15  H    0.285691
    16  H    0.136396
    17  H    0.121576
    18  H    0.128261
    19  H    0.127947
 Sum of Mulliken charges =   0.00000

 Dipole moment (field-independent basis, Debye):
    X=              2.3671    Y=             -0.6273    Z=              0.7005  Tot=              2.5470
 Quadrupole moment (field-independent basis, Debye-Ang):
   XX=            -64.1635   YY=            -47.8985   ZZ=            -52.1860
   XY=             -0.5698   XZ=              2.6130   YZ=             -2.0713

  Exact polarizability:  82.561   0.727  78.020   0.117  -1.463  65.275
 Approx polarizability: 117.036  -2.220 111.159  -2.117  -1.298 101.703

                      1                      2                      3
                      A                      A                      A
 Frequencies --     84.6430               183.7186               193.0415
 Red. masses --      3.9972                 2.1309                 1.1001
 Frc consts  --      0.0169                 0.0424                 0.0242
 IR Inten    --      5.4803                 0.3548                 1.3108

                      4                      5                      6
                      A                      A                      A
 Frequencies --    224.8348               284.8583               309.8910
 Red. masses --      3.3651                 1.0706                 3.2250
 Frc consts  --      0.1002                 0.0512                 0.1825
 IR Inten    --      6.6256                76.2953                 4.6275

                      7                      8                      9
                      A                      A                      A
 Frequencies --    349.8532               414.0295               461.2187
 Red. masses --      2.6354                 2.7471                 3.0674
 Frc consts  --      0.1901                 0.2775                 0.3844
 IR Inten    --      9.6203                 4.8247                 4.7183

                     10                     11                     12
                      A                      A                      A
 Frequencies --    473.0378               511.1728               541.9882
 Red. masses --      2.3547                 3.7820                 3.0377
 Frc consts  --      0.3104                 0.5822                 0.5257
 IR Inten    --      5.6072                 3.5758                 4.1029

                     13                     14                     15
                      A                      A                      A
 Frequencies --    584.2719               688.9235               733.7135
 Red. masses --      4.4471                 2.6824                 3.3187
 Frc consts  --      0.8945                 0.7501                 1.0526
 IR Inten    --      3.5712                 3.5025                 1.0808

                     16                     17                     18
                      A                      A                      A
 Frequencies --    797.6976               835.1203               898.1536
 Red. masses --      3.2492                 1.7483                 3.1746
 Frc consts  --      1.2182                 0.7184                 1.5088
 IR Inten    --      4.6819                 2.0222                15.6685

                     19                     20                     21
                      A                      A                      A
 Frequencies --    925.6818               934.3677               986.0990
 Red. masses --      1.2734                 1.5362                 1.5736
 Frc consts  --      0.6429                 0.7902                 0.9016
 IR Inten    --      1.3772                 1.8948                 1.4532

                     22                     23                     24
                      A                      A                      A
 Frequencies --   1015.9488              1046.4342              1080.9851
 Red. masses --      2.0335                 1.2873                 1.4328
 Frc consts  --      1.2366                 0.8305                 0.9865
 IR Inten    --     10.9441                 5.9911                10.7513

                     25                     26                     27
                      A                      A                      A
 Frequencies --   1109.0408              1142.8167              1196.9115
 Red. masses --      2.7841                 2.4201                 1.6207
 Frc consts  --      2.0176                 1.8622                 1.3679
 IR Inten    --     11.7672                68.2638                 9.7971

                     28                     29                     30
                      A                      A                      A
 Frequencies --   1209.1810              1226.4178              1244.1607
 Red. masses --      1.8017                 1.7922                 1.9277
 Frc consts  --      1.5521                 1.5882                 1.7581
 IR Inten    --     13.6185                14.0827                52.9872

                     31                     32                     33
                      A                      A                      A
 Frequencies --   1276.5459              1312.3970              1350.2338
 Red. masses --      1.9724                 2.1035                 2.6413
 Frc consts  --      1.8937                 2.1347                 2.8372
 IR Inten    --     50.6627                30.6392                18.4668

                     34                     35                     36
                      A                      A                      A
 Frequencies --   1401.9389              1417.7024              1450.7865
 Red. masses --      1.7934                 1.3753                 1.1117
 Frc consts  --      2.0767                 1.6287                 1.3787
 IR Inten    --      2.5762                 0.8026                 5.9994

                     37                     38                     39
                      A                      A                      A
 Frequencies --   1455.3764              1489.7955              1491.9711
 Red. masses --      1.1017                 1.1305                 1.1165
 Frc consts  --      1.3749                 1.4783                 1.4644
 IR Inten    --      3.0308                 6.9545                 0.7194

                     40                     41                     42
                      A                      A                      A
 Frequencies --   1503.8901              1849.4085              3021.7214
 Red. masses --      1.2446                12.6513                 1.0641
 Frc consts  --      1.6585                25.4948                 5.7247
 IR Inten    --      7.3930               210.8518                10.5035

                     43                     44                     45
                      A                      A                      A
 Frequencies --   3029.2373              3033.7318              3081.7503
 Red. masses --      1.0390                 1.0617                 1.0957
 Frc consts  --      5.6174                 5.7572                 6.1311
 IR Inten    --     40.6322                10.2323                 7.9110

                     46                     47                     48
                      A                      A                      A
 Frequencies --   3085.7683              3085.9407              3113.3856
 Red. masses --      1.1007                 1.0996                 1.0568
 Frc consts  --      6.1749                 6.1697                 6.0354
 IR Inten    --     26.2568                13.8442                 8.6315

                     49                     50                     51
                      A                      A                      A
 Frequencies --   3121.7105              3207.2248              3801.6871
 Red. masses --      1.0980                 1.1150                 1.0663
 Frc consts  --      6.3041                 6.7573                 9.0800
 IR Inten    --     13.7678                 7.6493                23.9178

 - Thermochemistry -
 -------------------
 Temperature   298.150 Kelvin.  Pressure   1.00000 Atm.
 Atom     1 has atomic number  6 and mass  12.00000

 Molecular mass:   126.06808 amu.
 Principal axes and moments of inertia in atomic units:
                           1         2         3
     Eigenvalues --   664.978881255.212821600.81517
           X            0.99928   0.03779   0.00319
           Y           -0.03769   0.99895  -0.02588
           Z           -0.00416   0.02574   0.99966
 This molecule is an asymmetric top.
 Rotational symmetry number  1.
 Warning -- assumption of classical behavior for rotation
           may cause significant error
 Rotational temperatures (Kelvin)      0.13025     0.06900     0.05411
 Rotational constants (GHZ):           2.71398     1.43780     1.12739
 Zero-point vibrational energy     414329.1 (Joules/Mol)
                                   99.02703 (Kcal/Mol)
 Warning -- explicit consideration of  13 degrees of freedom as
           vibrations may cause significant error
 Vibrational temperatures:    121.78   264.33   277.74   323.49   409.85
          (Kelvin)            445.86   503.36   595.70   663.59   680.60
                              735.46   779.80   840.64   991.21  1055.65
                             1147.71  1201.55  1292.24  1331.85  1344.35
                             1418.77  1461.72  1505.58  1555.29  1595.66
                             1644.26  1722.09  1739.74  1764.54  1790.07
                             1836.66  1888.24  1942.68  2017.07  2039.75
                             2087.36  2093.96  2143.48  2146.61  2163.76
                             2660.88  4347.58  4358.39  4364.86  4433.95
                             4439.73  4439.97  4479.46  4491.44  4614.48
                             5469.77

 Zero-point correction=                           0.157810 (Hartree/Particle)
 Thermal correction to Energy=                    0.166500
 Thermal correction to Enthalpy=                  0.167444
 Thermal correction to Gibbs Free Energy=         0.124906
 Sum of electronic and zero-point Energies=           -423.050511
 Sum of electronic and thermal Energies=              -423.041820
 Sum of electronic and thermal Enthalpies=            -423.040876
 Sum of electronic and thermal Free Energies=         -423.083414

                     E (Thermal)             CV                S
                      KCal/Mol        Cal/Mol-Kelvin    Cal/Mol-Kelvin
 Total                  104.480             33.918             89.530
 Electronic               0.000              0.000              0.000
 Translational            0.889              2.981             40.409
 Rotational               0.889              2.981             28.682
 Vibrational            102.703             27.957             20.440
 Vibration     1          0.601              1.960              3.780
 Vibration     2          0.631              1.862              2.290
 Vibration     3          0.635              1.850              2.198
 Vibration     4          0.649              1.803              1.920
 Vibration     5          0.683              1.702              1.504
 Vibration     6          0.699              1.655              1.363
 Vibration     7          0.727              1.576              1.167
 Vibration     8          0.778              1.440              0.912
 Vibration     9          0.819              1.336              0.763
 Vibration    10          0.830              1.310              0.729
 Vibration    11          0.866              1.225              0.631
 Vibration    12          0.897              1.157              0.561
 Vibration    13          0.941              1.065              0.478

 Normal termination of Gaussian 09 at Mon Jan 27 18:06:44 2020.
