 Gaussian 09, Revision D.01,
 Gaussian 09:  ES64L-G09RevD.01 24-Apr-2013

 -----------------------------
 # b3lyp 6-31G(2df,p) opt Freq
 -----------------------------

 -----
 titel
 -----
 Symbolic Z-matrix:
 Charge =  0 Multiplicity = 1

 SCF Done:  E(RB3LYP) =  -423.173718778     A.U. after   14 cycles
 Optimization completed.
    -- Stationary point found.
 Normal termination of Gaussian 09 at Tue Jan 28 02:25:12 2020.

 ----------------------------------------------------------------------
 #N Geom=AllCheck Guess=TCheck SCRF=Check GenChk RB3LYP/6-31G(2df,p) Fr
 eq
 ----------------------------------------------------------------------

 Structure from the checkpoint file:  "/scratch/puck/g09_6adc2392-8aaf-4bfe-9201-6973dc85cc04/Gau-86323.chk"
 -----
 titel
 -----
 Charge =  0 Multiplicity = 1

                         Standard orientation:
 ---------------------------------------------------------------------
 Center     Atomic      Atomic             Coordinates (Angstroms)
 Number     Number       Type             X           Y           Z
 ---------------------------------------------------------------------
      1          6           0       -1.416772    1.859106   -0.292721
      2          6           0       -0.220828    1.067133    0.145872
      3          6           0       -0.198943    0.231347    1.369896
      4          6           0       -0.048433   -0.501923    0.049810
      5          6           0       -1.067802   -1.437158   -0.429439
      6          8           0       -2.218039   -1.460298   -0.044722
      7          6           0        1.350169   -0.312634   -0.513100
      8          8           0        2.344485   -0.961172    0.248555
      9          6           0        1.207794    1.244824   -0.384848
     10          1           0       -1.448088    2.828580    0.218956
     11          1           0       -1.395623    2.052413   -1.370621
     12          1           0       -2.340491    1.321508   -0.060210
     13          1           0        0.656289    0.241054    2.039294
     14          1           0       -1.160873    0.057257    1.840366
     15          1           0       -0.719491   -2.131543   -1.228344
     16          1           0        1.397082   -0.617604   -1.568412
     17          1           0        3.203089   -0.757099   -0.136418
     18          1           0        1.909334    1.716126    0.310832
     19          1           0        1.256094    1.756892   -1.348926
 ---------------------------------------------------------------------

 SCF Done:  E(RB3LYP) =  -423.173718778     A.U. after    1 cycles

 The electronic state is 1-A.
 Alpha  occ. eigenvalues --  -19.14516 -19.12477 -10.26135 -10.24684 -10.21987
 Alpha  occ. eigenvalues --  -10.19965 -10.19511 -10.19334 -10.18489  -1.03233
 Alpha  occ. eigenvalues --   -1.02821  -0.90590  -0.74100  -0.73048  -0.68287
 Alpha  occ. eigenvalues --   -0.61654  -0.57248  -0.52434  -0.51340  -0.49734
 Alpha  occ. eigenvalues --   -0.46262  -0.43375  -0.43184  -0.41614  -0.40624
 Alpha  occ. eigenvalues --   -0.40148  -0.37873  -0.37647  -0.35686  -0.33888
 Alpha  occ. eigenvalues --   -0.29809  -0.27501  -0.26122  -0.24096
 Alpha virt. eigenvalues --   -0.02240   0.06714   0.09639   0.11388   0.12067
 Alpha virt. eigenvalues --    0.12769   0.13856   0.14668   0.15026   0.16151
 Alpha virt. eigenvalues --    0.18041   0.18236   0.19160   0.19445   0.24170

 Mulliken charges:
               1
     1  C   -0.493948
     2  C    0.300653
     3  C   -0.364187
     4  C    0.231995
     5  C    0.047609
     6  O   -0.286664
     7  C    0.022046
     8  O   -0.431453
     9  C   -0.325864
    10  H    0.125739
    11  H    0.117540
    12  H    0.151754
    13  H    0.127263
    14  H    0.141095
    15  H    0.068345
    16  H    0.074623
    17  H    0.285868
    18  H    0.103072
    19  H    0.104515
 Sum of Mulliken charges =   0.00000

 Dipole moment (field-independent basis, Debye):
    X=              2.8765    Y=              2.1527    Z=             -1.3371  Tot=              3.8336
 Quadrupole moment (field-independent basis, Debye-Ang):
   XX=            -54.8061   YY=            -55.1125   ZZ=            -51.3121
   XY=             -3.0404   XZ=             -2.6437   YZ=              1.5665

  Exact polarizability:  85.100   2.430  80.694  -1.877   3.359  68.280
 Approx polarizability: 125.131   7.823 119.685  -4.081   4.790 104.966

                      1                      2                      3
                      A                      A                      A
 Frequencies --    105.8672               127.3623               173.4007
 Red. masses --      4.6482                 3.4650                 2.6909
 Frc consts  --      0.0307                 0.0331                 0.0477
 IR Inten    --      5.1336                 0.7657                 4.5066

                      4                      5                      6
                      A                      A                      A
 Frequencies --    206.1033               230.6748               248.7170
 Red. masses --      1.1091                 2.5600                 2.8685
 Frc consts  --      0.0278                 0.0803                 0.1045
 IR Inten    --      2.1044                 1.0011                12.0441

                      7                      8                      9
                      A                      A                      A
 Frequencies --    302.2465               338.7099               380.7186
 Red. masses --      1.2321                 2.6263                 3.2258
 Frc consts  --      0.0663                 0.1775                 0.2755
 IR Inten    --     92.4748                12.3456                 1.8806

                     10                     11                     12
                      A                      A                      A
 Frequencies --    431.4169               489.7226               565.0878
 Red. masses --      2.2231                 2.9447                 3.4905
 Frc consts  --      0.2438                 0.4161                 0.6567
 IR Inten    --      0.8456                 1.4950                 4.8155

                     13                     14                     15
                      A                      A                      A
 Frequencies --    675.5387               681.5854               727.2864
 Red. masses --      3.5070                 4.0748                 3.7941
 Frc consts  --      0.9429                 1.1153                 1.1824
 IR Inten    --      9.1254                11.1805                 5.8010

                     16                     17                     18
                      A                      A                      A
 Frequencies --    818.6689               858.3347               956.5800
 Red. masses --      4.0592                 1.9318                 1.6139
 Frc consts  --      1.6029                 0.8385                 0.8701
 IR Inten    --     29.6994                 5.8497                14.0734

                     19                     20                     21
                      A                      A                      A
 Frequencies --    973.1065               984.0645               994.4124
 Red. masses --      1.4485                 1.8148                 1.9347
 Frc consts  --      0.8082                 1.0354                 1.1272
 IR Inten    --     14.8617                48.5474                 9.9798

                     22                     23                     24
                      A                      A                      A
 Frequencies --   1042.4163              1065.2007              1080.4645
 Red. masses --      1.7975                 1.5317                 1.4019
 Frc consts  --      1.1508                 1.0240                 0.9643
 IR Inten    --      0.3670                31.2002                18.2280

                     25                     26                     27
                      A                      A                      A
 Frequencies --   1121.1988              1151.0878              1159.5913
 Red. masses --      2.2491                 1.7396                 1.8233
 Frc consts  --      1.6658                 1.3580                 1.4445
 IR Inten    --     33.4131                17.0638                75.5446

                     28                     29                     30
                      A                      A                      A
 Frequencies --   1216.6635              1235.0140              1267.8256
 Red. masses --      1.5582                 1.5030                 2.5010
 Frc consts  --      1.3589                 1.3507                 2.3686
 IR Inten    --     13.8928                17.7482                38.7513

                     31                     32                     33
                      A                      A                      A
 Frequencies --   1287.3106              1346.6203              1384.1140
 Red. masses --      1.8273                 1.7293                 1.7538
 Frc consts  --      1.7841                 1.8476                 1.9796
 IR Inten    --     49.5126                10.8597                32.3678

                     34                     35                     36
                      A                      A                      A
 Frequencies --   1417.4574              1425.0026              1445.0854
 Red. masses --      1.3323                 1.4244                 1.6392
 Frc consts  --      1.5771                 1.7042                 2.0168
 IR Inten    --     13.2668                 0.4059                11.0763

                     37                     38                     39
                      A                      A                      A
 Frequencies --   1470.5551              1487.1436              1494.0166
 Red. masses --      1.1875                 1.1087                 1.0519
 Frc consts  --      1.5131                 1.4447                 1.3834
 IR Inten    --      8.7843                 9.8299                 3.7036

                     40                     41                     42
                      A                      A                      A
 Frequencies --   1501.5709              1781.0387              2865.2502
 Red. masses --      1.3105                 9.8441                 1.0815
 Frc consts  --      1.7409                18.3981                 5.2312
 IR Inten    --      6.3256               194.5463               129.0337

                     43                     44                     45
                      A                      A                      A
 Frequencies --   2996.5941              3026.1541              3048.3659
 Red. masses --      1.0850                 1.0370                 1.0596
 Frc consts  --      5.7401                 5.5949                 5.8013
 IR Inten    --     47.9963                27.5364                39.5077

                     46                     47                     48
                      A                      A                      A
 Frequencies --   3085.2773              3108.7369              3114.9521
 Red. masses --      1.0998                 1.1062                 1.0999
 Frc consts  --      6.1682                 6.2988                 6.2881
 IR Inten    --     17.5496                21.1462                 9.2802

                     49                     50                     51
                      A                      A                      A
 Frequencies --   3123.3583              3219.5365              3813.3600
 Red. masses --      1.0551                 1.1158                 1.0660
 Frc consts  --      6.0643                 6.8145                 9.1333
 IR Inten    --      9.3311                 1.6262                23.3466

 - Thermochemistry -
 -------------------
 Temperature   298.150 Kelvin.  Pressure   1.00000 Atm.
 Atom     1 has atomic number  6 and mass  12.00000

 Molecular mass:   126.06808 amu.
 Principal axes and moments of inertia in atomic units:
                           1         2         3
     Eigenvalues --   802.626981150.553041614.12313
           X            0.99799  -0.06281  -0.00842
           Y            0.06283   0.99802   0.00124
           Z            0.00832  -0.00176   0.99996
 This molecule is an asymmetric top.
 Rotational symmetry number  1.
 Warning -- assumption of classical behavior for rotation
           may cause significant error
 Rotational temperatures (Kelvin)      0.10791     0.07528     0.05366
 Rotational constants (GHZ):           2.24854     1.56859     1.11809
 Zero-point vibrational energy     413014.1 (Joules/Mol)
                                   98.71274 (Kcal/Mol)
 Warning -- explicit consideration of  12 degrees of freedom as
           vibrations may cause significant error
 Vibrational temperatures:    152.32   183.25   249.48   296.54   331.89
          (Kelvin)            357.85   434.86   487.33   547.77   620.71
                              704.60   813.03   971.95   980.65  1046.40
                             1177.88  1234.95  1376.30  1400.08  1415.85
                             1430.74  1499.80  1532.58  1554.55  1613.15
                             1656.16  1668.39  1750.51  1776.91  1824.12
                             1852.15  1937.48  1991.43  2039.40  2050.26
                             2079.15  2115.80  2139.67  2149.55  2160.42
                             2562.51  4122.45  4311.43  4353.96  4385.91
                             4439.02  4472.77  4481.72  4493.81  4632.19
                             5486.57

 Zero-point correction=                           0.157309 (Hartree/Particle)
 Thermal correction to Energy=                    0.166424
 Thermal correction to Enthalpy=                  0.167368
 Thermal correction to Gibbs Free Energy=         0.123804
 Sum of electronic and zero-point Energies=           -423.016410
 Sum of electronic and thermal Energies=              -423.007295
 Sum of electronic and thermal Enthalpies=            -423.006350
 Sum of electronic and thermal Free Energies=         -423.049915

                     E (Thermal)             CV                S
                      KCal/Mol        Cal/Mol-Kelvin    Cal/Mol-Kelvin
 Total                  104.433             34.209             91.689
 Electronic               0.000              0.000              0.000
 Translational            0.889              2.981             40.409
 Rotational               0.889              2.981             28.790
 Vibrational            102.655             28.248             22.490
 Vibration     1          0.605              1.945              3.343
 Vibration     2          0.611              1.926              2.986
 Vibration     3          0.627              1.875              2.398
 Vibration     4          0.641              1.831              2.078
 Vibration     5          0.652              1.794              1.874
 Vibration     6          0.662              1.765              1.740
 Vibration     7          0.694              1.669              1.404
 Vibration     8          0.719              1.598              1.218
 Vibration     9          0.750              1.511              1.036
 Vibration    10          0.792              1.402              0.854
 Vibration    11          0.846              1.273              0.684
 Vibration    12          0.921              1.107              0.514

 Normal termination of Gaussian 09 at Tue Jan 28 03:08:20 2020.
