 Gaussian 09, Revision D.01,
 Gaussian 09:  ES64L-G09RevD.01 24-Apr-2013

 -----------------------------
 # b3lyp 6-31G(2df,p) opt Freq
 -----------------------------

 -----
 titel
 -----
 Symbolic Z-matrix:
 Charge =  0 Multiplicity = 1

 SCF Done:  E(RB3LYP) =  -423.210996863     A.U. after   14 cycles
 Optimization completed.
    -- Stationary point found.
 Normal termination of Gaussian 09 at Mon Jan 27 14:09:59 2020.

 ----------------------------------------------------------------------
 #N Geom=AllCheck Guess=TCheck SCRF=Check GenChk RB3LYP/6-31G(2df,p) Fr
 eq
 ----------------------------------------------------------------------

 Structure from the checkpoint file:  "/scratch/puck/g09_ad22475b-54fd-49ea-b38a-74d619fea8c0/Gau-31517.chk"
 -----
 titel
 -----
 Charge =  0 Multiplicity = 1

                         Standard orientation:
 ---------------------------------------------------------------------
 Center     Atomic      Atomic             Coordinates (Angstroms)
 Number     Number       Type             X           Y           Z
 ---------------------------------------------------------------------
      1          6           0        2.094330   -1.086380    0.836984
      2          6           0        1.741574    0.073012   -0.063116
      3          8           0        2.516796    0.953390   -0.352819
      4          6           0        0.304033    0.134892   -0.618088
      5          8           0       -0.356223   -1.087617   -0.359372
      6          6           0       -1.765630   -1.014494   -0.529299
      7          6           0       -2.394100   -0.058414    0.484940
      8          6           0       -1.620267    1.233565    0.508299
      9          6           0       -0.403746    1.328319   -0.022117
     10          1           0        1.959712   -2.030931    0.301109
     11          1           0        3.124430   -0.981766    1.178930
     12          1           0        1.407163   -1.120318    1.688548
     13          1           0        0.416027    0.288461   -1.707039
     14          1           0       -2.004464   -0.682649   -1.552125
     15          1           0       -2.137142   -2.035507   -0.409031
     16          1           0       -3.442073    0.126479    0.217203
     17          1           0       -2.408254   -0.516519    1.483309
     18          1           0       -2.089849    2.104195    0.957982
     19          1           0        0.152704    2.259375   -0.046981
 ---------------------------------------------------------------------

 SCF Done:  E(RB3LYP) =  -423.210996863     A.U. after    1 cycles

 The electronic state is 1-A.
 Alpha  occ. eigenvalues --  -19.14925 -19.12845 -10.27010 -10.24270 -10.23593
 Alpha  occ. eigenvalues --  -10.19367 -10.19093 -10.18803 -10.18293  -1.04978
 Alpha  occ. eigenvalues --   -1.03608  -0.80635  -0.78338  -0.73471  -0.66572
 Alpha  occ. eigenvalues --   -0.64197  -0.54700  -0.53077  -0.50500  -0.48609
 Alpha  occ. eigenvalues --   -0.46746  -0.45047  -0.43256  -0.41774  -0.40461
 Alpha  occ. eigenvalues --   -0.40395  -0.39414  -0.38088  -0.36567  -0.34877
 Alpha  occ. eigenvalues --   -0.31463  -0.26649  -0.26168  -0.23640
 Alpha virt. eigenvalues --   -0.01669   0.02151   0.08709   0.11780   0.12552
 Alpha virt. eigenvalues --    0.13006   0.14345   0.14872   0.16058   0.16710
 Alpha virt. eigenvalues --    0.17119   0.17260   0.19117   0.20791   0.22380

 Mulliken charges:
               1
     1  C   -0.468272
     2  C    0.349132
     3  O   -0.307708
     4  C   -0.004661
     5  O   -0.269803
     6  C   -0.076698
     7  C   -0.255424
     8  C   -0.075035
     9  C   -0.071599
    10  H    0.152739
    11  H    0.133739
    12  H    0.145840
    13  H    0.103461
    14  H    0.096735
    15  H    0.109143
    16  H    0.107990
    17  H    0.116887
    18  H    0.096308
    19  H    0.117226
 Sum of Mulliken charges =   0.00000

 Dipole moment (field-independent basis, Debye):
    X=             -2.6626    Y=             -1.0641    Z=              0.5442  Tot=              2.9186
 Quadrupole moment (field-independent basis, Debye-Ang):
   XX=            -54.9368   YY=            -53.7729   ZZ=            -52.0611
   XY=             -4.0603   XZ=              1.3970   YZ=              0.5312

  Exact polarizability:  97.421   3.101  74.537  -5.334  -1.499  62.293
 Approx polarizability: 136.612  10.443 110.442 -14.676  -5.047  96.102

                      1                      2                      3
                      A                      A                      A
 Frequencies --     27.5384                88.3187               165.8329
 Red. masses --      3.8093                 3.5414                 1.0332
 Frc consts  --      0.0017                 0.0163                 0.0167
 IR Inten    --      4.8052                 0.1125                 0.1701

                      4                      5                      6
                      A                      A                      A
 Frequencies --    187.9204               247.1613               295.8914
 Red. masses --      4.0700                 2.1482                 2.9412
 Frc consts  --      0.0847                 0.0773                 0.1517
 IR Inten    --      3.6662                 2.3182                 4.6941

                      7                      8                      9
                      A                      A                      A
 Frequencies --    372.3437               431.0217               481.0486
 Red. masses --      3.8676                 4.1112                 3.1881
 Frc consts  --      0.3159                 0.4500                 0.4347
 IR Inten    --      1.0426                 0.8262                 3.2144

                     10                     11                     12
                      A                      A                      A
 Frequencies --    512.0776               553.6658               620.9729
 Red. masses --      3.2933                 4.0277                 2.7919
 Frc consts  --      0.5088                 0.7274                 0.6343
 IR Inten    --      8.0398                 6.6485                 2.6313

                     13                     14                     15
                      A                      A                      A
 Frequencies --    676.5180               783.2093               811.7725
 Red. masses --      1.5380                 1.9534                 2.3548
 Frc consts  --      0.4147                 0.7060                 0.9143
 IR Inten    --     25.5300                 9.3765                16.3524

                     16                     17                     18
                      A                      A                      A
 Frequencies --    871.5709               917.3593               930.4134
 Red. masses --      3.4775                 2.4226                 2.6818
 Frc consts  --      1.5564                 1.2012                 1.3678
 IR Inten    --      4.6566                26.4648                 9.2844

                     19                     20                     21
                      A                      A                      A
 Frequencies --    995.2645              1004.3839              1015.8469
 Red. masses --      1.8517                 1.5019                 1.6636
 Frc consts  --      1.0807                 0.8927                 1.0115
 IR Inten    --      0.8647                 0.6783                 0.7536

                     22                     23                     24
                      A                      A                      A
 Frequencies --   1040.5137              1074.8055              1086.9819
 Red. masses --      2.0352                 2.5676                 1.8615
 Frc consts  --      1.2982                 1.7476                 1.2958
 IR Inten    --      4.4314                 5.4625                10.0759

                     25                     26                     27
                      A                      A                      A
 Frequencies --   1119.7154              1204.5404              1230.6096
 Red. masses --      2.2074                 1.4473                 1.5629
 Frc consts  --      1.6306                 1.2372                 1.3945
 IR Inten    --     83.9492                71.1725                30.9541

                     28                     29                     30
                      A                      A                      A
 Frequencies --   1238.6809              1263.3798              1293.7570
 Red. masses --      1.5971                 1.5968                 1.3391
 Frc consts  --      1.4438                 1.5016                 1.3206
 IR Inten    --     22.8442                 5.0955                20.5432

                     31                     32                     33
                      A                      A                      A
 Frequencies --   1338.2192              1363.7339              1380.1655
 Red. masses --      1.3108                 1.4660                 1.3285
 Frc consts  --      1.3831                 1.6063                 1.4910
 IR Inten    --      1.1027                 7.8040                37.4252

                     34                     35                     36
                      A                      A                      A
 Frequencies --   1385.1187              1419.9592              1453.4581
 Red. masses --      1.5316                 1.3523                 1.0561
 Frc consts  --      1.7313                 1.6065                 1.3145
 IR Inten    --      4.6777                 5.6845                14.7030

                     37                     38                     39
                      A                      A                      A
 Frequencies --   1464.5790              1470.6621              1499.4927
 Red. masses --      1.0518                 1.0922                 1.0923
 Frc consts  --      1.3292                 1.3918                 1.4471
 IR Inten    --      7.8909                 4.0536                 1.2974

                     40                     41                     42
                      A                      A                      A
 Frequencies --   1719.1583              1814.9078              2937.4067
 Red. masses --      6.8099                11.2405                 1.0799
 Frc consts  --     11.8584                21.8145                 5.4898
 IR Inten    --      0.2391               165.9790                35.6666

                     43                     44                     45
                      A                      A                      A
 Frequencies --   2982.9489              3015.4437              3048.6788
 Red. masses --      1.0707                 1.0619                 1.0348
 Frc consts  --      5.6132                 5.6891                 5.6666
 IR Inten    --     49.9836                28.1285                 0.9605

                     46                     47                     48
                      A                      A                      A
 Frequencies --   3051.3776              3093.0265              3112.1219
 Red. masses --      1.0978                 1.0945                 1.0970
 Frc consts  --      6.0221                 6.1692                 6.2597
 IR Inten    --     30.8866                36.0134                 3.9269

                     49                     50                     51
                      A                      A                      A
 Frequencies --   3158.4522              3160.6564              3194.9213
 Red. masses --      1.1049                 1.0864                 1.0957
 Frc consts  --      6.4941                 6.3943                 6.5895
 IR Inten    --     12.4757                10.7869                 8.1224

 - Thermochemistry -
 -------------------
 Temperature   298.150 Kelvin.  Pressure   1.00000 Atm.
 Atom     1 has atomic number  6 and mass  12.00000

 Molecular mass:   126.06808 amu.
 Principal axes and moments of inertia in atomic units:
                           1         2         3
     Eigenvalues --   571.245891497.129381787.05275
           X            0.99969  -0.02243   0.01048
           Y            0.02259   0.99964  -0.01458
           Z           -0.01015   0.01481   0.99984
 This molecule is an asymmetric top.
 Rotational symmetry number  1.
 Warning -- assumption of classical behavior for rotation
           may cause significant error
 Rotational temperatures (Kelvin)      0.15162     0.05785     0.04847
 Rotational constants (GHZ):           3.15931     1.20547     1.00990
 Zero-point vibrational energy     416345.9 (Joules/Mol)
                                   99.50907 (Kcal/Mol)
 Warning -- explicit consideration of  11 degrees of freedom as
           vibrations may cause significant error
 Vibrational temperatures:     39.62   127.07   238.60   270.38   355.61
          (Kelvin)            425.72   535.72   620.14   692.12   736.76
                              796.60   893.44   973.36  1126.86  1167.96
                             1253.99  1319.87  1338.66  1431.96  1445.08
                             1461.58  1497.07  1546.40  1563.92  1611.02
                             1733.06  1770.57  1782.18  1817.72  1861.43
                             1925.40  1962.11  1985.75  1992.87  2043.00
                             2091.20  2107.20  2115.95  2157.43  2473.48
                             2611.24  4226.27  4291.79  4338.55  4386.36
                             4390.25  4450.17  4477.64  4544.30  4547.47
                             4596.77

 Zero-point correction=                           0.158578 (Hartree/Particle)
 Thermal correction to Energy=                    0.167363
 Thermal correction to Enthalpy=                  0.168307
 Thermal correction to Gibbs Free Energy=         0.124073
 Sum of electronic and zero-point Energies=           -423.052419
 Sum of electronic and thermal Energies=              -423.043634
 Sum of electronic and thermal Enthalpies=            -423.042690
 Sum of electronic and thermal Free Energies=         -423.086924

                     E (Thermal)             CV                S
                      KCal/Mol        Cal/Mol-Kelvin    Cal/Mol-Kelvin
 Total                  105.022             32.479             93.098
 Electronic               0.000              0.000              0.000
 Translational            0.889              2.981             40.409
 Rotational               0.889              2.981             28.815
 Vibrational            103.244             26.517             23.874
 Vibration     1          0.593              1.984              5.999
 Vibration     2          0.601              1.957              3.697
 Vibration     3          0.624              1.884              2.482
 Vibration     4          0.633              1.856              2.248
 Vibration     5          0.661              1.767              1.751
 Vibration     6          0.690              1.681              1.440
 Vibration     7          0.744              1.529              1.070
 Vibration     8          0.792              1.403              0.855
 Vibration     9          0.837              1.292              0.707
 Vibration    10          0.867              1.223              0.629
 Vibration    11          0.909              1.132              0.537

 Normal termination of Gaussian 09 at Mon Jan 27 15:02:41 2020.
