 Gaussian 09, Revision D.01,
 Gaussian 09:  ES64L-G09RevD.01 24-Apr-2013

 -----------------------------
 # b3lyp 6-31G(2df,p) opt Freq
 -----------------------------

 -----
 titel
 -----
 Symbolic Z-matrix:
 Charge =  0 Multiplicity = 1

 SCF Done:  E(RB3LYP) =  -423.125920428     A.U. after   14 cycles
 SCF Done:  E(RB3LYP) =  -423.125920443     A.U. after    7 cycles
 SCF Done:  E(RB3LYP) =  -423.125920396     A.U. after    7 cycles
 SCF Done:  E(RB3LYP) =  -423.125920456     A.U. after    7 cycles
 Optimization completed.
    -- Stationary point found.
 Normal termination of Gaussian 09 at Mon Jan 27 16:28:04 2020.

 ----------------------------------------------------------------------
 #N Geom=AllCheck Guess=TCheck SCRF=Check GenChk RB3LYP/6-31G(2df,p) Fr
 eq
 ----------------------------------------------------------------------

 Structure from the checkpoint file:  "/scratch/puck/g09_7cc628e4-5793-4834-a52e-17108dce7d72/Gau-35140.chk"
 -----
 titel
 -----
 Charge =  0 Multiplicity = 1

                         Standard orientation:
 ---------------------------------------------------------------------
 Center     Atomic      Atomic             Coordinates (Angstroms)
 Number     Number       Type             X           Y           Z
 ---------------------------------------------------------------------
      1          8           0        0.199380    1.858222   -0.039344
      2          6           0       -0.463565    0.627991   -0.263466
      3          6           0       -1.876353    0.798326    0.325317
      4          6           0       -2.763454   -0.320422    0.040050
      5          6           0       -3.475872   -1.256703   -0.208129
      6          6           0        0.300357   -0.542133    0.376833
      7          6           0        1.606567   -0.816158   -0.331018
      8          6           0        2.889130   -0.901541    0.377421
      9          8           0        2.552055    0.275321   -0.364728
     10          1           0        1.148094    1.697827   -0.131941
     11          1           0       -0.568131    0.432979   -1.344549
     12          1           0       -1.786751    0.950249    1.408309
     13          1           0       -2.292617    1.726454   -0.082895
     14          1           0       -4.118883   -2.074054   -0.421908
     15          1           0        0.484770   -0.294796    1.429061
     16          1           0       -0.317387   -1.446523    0.346176
     17          1           0        1.524434   -1.328998   -1.290008
     18          1           0        2.907806   -0.781714    1.459422
     19          1           0        3.706324   -1.485925   -0.041144
 ---------------------------------------------------------------------

 SCF Done:  E(RB3LYP) =  -423.125920456     A.U. after    1 cycles

 The electronic state is 1-A.
 Alpha  occ. eigenvalues --  -19.16709 -19.12412 -10.25103 -10.24694 -10.23873
 Alpha  occ. eigenvalues --  -10.20316 -10.19237 -10.18248 -10.17146  -1.08279
 Alpha  occ. eigenvalues --   -1.01147  -0.80394  -0.76004  -0.71086  -0.67734
 Alpha  occ. eigenvalues --   -0.62371  -0.59529  -0.53429  -0.51721  -0.50336
 Alpha  occ. eigenvalues --   -0.48387  -0.46497  -0.43219  -0.42729  -0.41428
 Alpha  occ. eigenvalues --   -0.38640  -0.37423  -0.37050  -0.34467  -0.30891
 Alpha  occ. eigenvalues --   -0.28343  -0.26534  -0.26392  -0.26128
 Alpha virt. eigenvalues --    0.05155   0.05814   0.08961   0.09291   0.10130
 Alpha virt. eigenvalues --    0.10932   0.12042   0.12969   0.13956   0.15291
 Alpha virt. eigenvalues --    0.16168   0.17376   0.18143   0.19193   0.21672

 Mulliken charges:
               1
     1  O   -0.448830
     2  C    0.145971
     3  C   -0.357741
     4  C    0.298891
     5  C   -0.458318
     6  C   -0.258918
     7  C    0.080482
     8  C   -0.177630
     9  O   -0.246796
    10  H    0.299039
    11  H    0.074861
    12  H    0.132128
    13  H    0.142397
    14  H    0.195271
    15  H    0.104704
    16  H    0.121879
    17  H    0.105858
    18  H    0.123216
    19  H    0.123537
 Sum of Mulliken charges =   0.00000

 Dipole moment (field-independent basis, Debye):
    X=              0.8820    Y=             -2.5979    Z=              0.4534  Tot=              2.7807
 Quadrupole moment (field-independent basis, Debye-Ang):
   XX=            -51.3899   YY=            -54.0346   ZZ=            -52.4547
   XY=             -2.0431   XZ=              2.3141   YZ=              1.1767

  Exact polarizability:  96.719   7.284  75.306   5.245   3.857  60.537
 Approx polarizability: 121.171  20.666 122.795   9.421   7.494  93.060

                      1                      2                      3
                      A                      A                      A
 Frequencies --     55.7424                82.3855               105.1976
 Red. masses --      4.0731                 4.1152                 3.3653
 Frc consts  --      0.0075                 0.0165                 0.0219
 IR Inten    --      1.4866                 1.6659                 0.4722

                      4                      5                      6
                      A                      A                      A
 Frequencies --    152.6724               197.4518               298.7848
 Red. masses --      3.2466                 4.2651                 5.1339
 Frc consts  --      0.0446                 0.0980                 0.2700
 IR Inten    --      0.8205                 4.8565                 0.1983

                      7                      8                      9
                      A                      A                      A
 Frequencies --    357.1597               360.8416               405.8671
 Red. masses --      2.8652                 3.9423                 2.3839
 Frc consts  --      0.2153                 0.3024                 0.2314
 IR Inten    --      7.6158                 9.0743                 5.4866

                     10                     11                     12
                      A                      A                      A
 Frequencies --    464.5895               469.2809               501.1393
 Red. masses --      1.8196                 2.6402                 1.6028
 Frc consts  --      0.2314                 0.3426                 0.2372
 IR Inten    --     35.2381                 5.8454                49.5970

                     13                     14                     15
                      A                      A                      A
 Frequencies --    565.4129               621.3907               648.7242
 Red. masses --      3.3134                 1.2111                 1.2291
 Frc consts  --      0.6241                 0.2755                 0.3048
 IR Inten    --      0.9489                44.7485                42.1942

                     16                     17                     18
                      A                      A                      A
 Frequencies --    778.8248               841.0491               865.5046
 Red. masses --      4.2027                 2.1791                 2.1851
 Frc consts  --      1.5020                 0.9082                 0.9644
 IR Inten    --     15.3031                 4.7175                23.9370

                     19                     20                     21
                      A                      A                      A
 Frequencies --    916.7643               954.4306               969.5555
 Red. masses --      2.1751                 2.1700                 3.7347
 Frc consts  --      1.0771                 1.1647                 2.0685
 IR Inten    --      0.2777                19.0971                14.6117

                     22                     23                     24
                      A                      A                      A
 Frequencies --   1004.2064              1050.4116              1092.6548
 Red. masses --      2.2093                 2.2615                 1.6207
 Frc consts  --      1.3126                 1.4702                 1.1400
 IR Inten    --      7.0187                41.2234                 3.8349

                     25                     26                     27
                      A                      A                      A
 Frequencies --   1103.7885              1130.6398              1159.7000
 Red. masses --      1.7553                 2.3042                 1.3903
 Frc consts  --      1.2600                 1.7355                 1.1017
 IR Inten    --      6.3145                43.2817                 3.1654

                     28                     29                     30
                      A                      A                      A
 Frequencies --   1174.9441              1209.5530              1257.6859
 Red. masses --      1.3316                 1.3606                 1.2989
 Frc consts  --      1.0831                 1.1728                 1.2105
 IR Inten    --      4.4187                 7.8598                11.2400

                     31                     32                     33
                      A                      A                      A
 Frequencies --   1291.2199              1294.6922              1312.3938
 Red. masses --      1.2440                 1.5658                 1.3213
 Frc consts  --      1.2220                 1.5464                 1.3408
 IR Inten    --     10.0724                 8.9120                 2.6285

                     34                     35                     36
                      A                      A                      A
 Frequencies --   1340.0382              1390.3841              1438.6008
 Red. masses --      1.2099                 1.3202                 1.5804
 Frc consts  --      1.2800                 1.5037                 1.9271
 IR Inten    --     23.2306                 8.1203                 9.8457

                     37                     38                     39
                      A                      A                      A
 Frequencies --   1452.8691              1467.0801              1473.6322
 Red. masses --      1.4837                 1.1437                 1.1209
 Frc consts  --      1.8453                 1.4504                 1.4341
 IR Inten    --     71.7089                11.6050                 0.5478

                     40                     41                     42
                      A                      A                      A
 Frequencies --   1526.0610              2237.5978              2954.4947
 Red. masses --      1.3195                 5.9433                 1.0821
 Frc consts  --      1.8105                17.5325                 5.5650
 IR Inten    --      1.8606                 2.7243                40.9830

                     43                     44                     45
                      A                      A                      A
 Frequencies --   3031.1012              3035.7748              3070.7183
 Red. masses --      1.0601                 1.0597                 1.1004
 Frc consts  --      5.7383                 5.7540                 6.1136
 IR Inten    --      9.8365                16.8075                 9.5844

                     46                     47                     48
                      A                      A                      A
 Frequencies --   3084.7189              3090.8912              3111.7009
 Red. masses --      1.0986                 1.0518                 1.0909
 Frc consts  --      6.1594                 5.9203                 6.2236
 IR Inten    --      3.8600                27.8662                27.3524

                     49                     50                     51
                      A                      A                      A
 Frequencies --   3180.5751              3506.6438              3749.3137
 Red. masses --      1.1197                 1.1618                 1.0661
 Frc consts  --      6.6736                 8.4173                 8.8296
 IR Inten    --     22.3532                66.0271               153.6316

 - Thermochemistry -
 -------------------
 Temperature   298.150 Kelvin.  Pressure   1.00000 Atm.
 Atom     1 has atomic number  8 and mass  15.99491

 Molecular mass:   126.06808 amu.
 Principal axes and moments of inertia in atomic units:
                           1         2         3
     Eigenvalues --   528.017182108.253032496.87726
           X            0.99993  -0.01106   0.00485
           Y            0.01102   0.99990   0.00843
           Z           -0.00494  -0.00837   0.99995
 This molecule is an asymmetric top.
 Rotational symmetry number  1.
 Warning -- assumption of classical behavior for rotation
           may cause significant error
 Rotational temperatures (Kelvin)      0.16404     0.04108     0.03469
 Rotational constants (GHZ):           3.41796     0.85604     0.72280
 Zero-point vibrational energy     411735.8 (Joules/Mol)
                                   98.40722 (Kcal/Mol)
 Warning -- explicit consideration of  13 degrees of freedom as
           vibrations may cause significant error
 Vibrational temperatures:     80.20   118.53   151.36   219.66   284.09
          (Kelvin)            429.88   513.87   519.17   583.95   668.44
                              675.19   721.03   813.50   894.04   933.37
                             1120.55  1210.08  1245.27  1319.02  1373.21
                             1394.97  1444.83  1511.31  1572.08  1588.10
                             1626.74  1668.55  1690.48  1740.27  1809.53
                             1857.78  1862.77  1888.24  1928.01  2000.45
                             2069.82  2090.35  2110.80  2120.23  2195.66
                             3219.40  4250.85  4361.07  4367.80  4418.07
                             4438.22  4447.10  4477.04  4576.13  5045.27
                             5394.42

 Zero-point correction=                           0.156822 (Hartree/Particle)
 Thermal correction to Energy=                    0.166424
 Thermal correction to Enthalpy=                  0.167368
 Thermal correction to Gibbs Free Energy=         0.121714
 Sum of electronic and zero-point Energies=           -422.969099
 Sum of electronic and thermal Energies=              -422.959496
 Sum of electronic and thermal Enthalpies=            -422.958552
 Sum of electronic and thermal Free Energies=         -423.004207

                     E (Thermal)             CV                S
                      KCal/Mol        Cal/Mol-Kelvin    Cal/Mol-Kelvin
 Total                  104.433             35.335             96.089
 Electronic               0.000              0.000              0.000
 Translational            0.889              2.981             40.409
 Rotational               0.889              2.981             29.409
 Vibrational            102.655             29.374             26.271
 Vibration     1          0.596              1.975              4.603
 Vibration     2          0.600              1.961              3.833
 Vibration     3          0.605              1.945              3.356
 Vibration     4          0.619              1.900              2.639
 Vibration     5          0.637              1.843              2.157
 Vibration     6          0.692              1.676              1.424
 Vibration     7          0.732              1.561              1.134
 Vibration     8          0.735              1.553              1.118
 Vibration     9          0.771              1.457              0.941
 Vibration    10          0.822              1.329              0.753
 Vibration    11          0.826              1.318              0.740
 Vibration    12          0.857              1.247              0.655
 Vibration    13          0.921              1.106              0.513

 Optimization completed.
    -- Stationary point found.
 Normal termination of Gaussian 09 at Mon Jan 27 17:26:00 2020.
