 Gaussian 09, Revision D.01,
 Gaussian 09:  ES64L-G09RevD.01 24-Apr-2013

 -----------------------------
 # b3lyp 6-31G(2df,p) opt Freq
 -----------------------------

 -----
 titel
 -----
 Symbolic Z-matrix:
 Charge =  0 Multiplicity = 1

 SCF Done:  E(RB3LYP) =  -423.198110804     A.U. after   14 cycles
 Optimization completed.
    -- Stationary point found.
 Normal termination of Gaussian 09 at Tue Jan 28 03:51:43 2020.

 ----------------------------------------------------------------------
 #N Geom=AllCheck Guess=TCheck SCRF=Check GenChk RB3LYP/6-31G(2df,p) Fr
 eq
 ----------------------------------------------------------------------

 Structure from the checkpoint file:  "/scratch/puck/g09_39cdb7bc-4196-4a4c-a23a-8bd2e566345a/Gau-8686.chk"
 -----
 titel
 -----
 Charge =  0 Multiplicity = 1

                         Standard orientation:
 ---------------------------------------------------------------------
 Center     Atomic      Atomic             Coordinates (Angstroms)
 Number     Number       Type             X           Y           Z
 ---------------------------------------------------------------------
      1          6           0       -2.731782    0.629200   -0.139901
      2          6           0       -1.352748    0.320162    0.430766
      3          6           0       -1.042798   -1.194537    0.645418
      4          6           0       -0.034751   -1.154707   -0.540785
      5          8           0        1.324768   -1.467952   -0.247305
      6          6           0        1.968484   -0.337689    0.306532
      7          6           0        1.123047    0.892176   -0.052554
      8          8           0        1.446240    2.038399    0.117477
      9          6           0       -0.191198    0.378764   -0.622985
     10          1           0       -2.939988    0.024531   -1.030081
     11          1           0       -3.512563    0.415124    0.597974
     12          1           0       -2.815433    1.683477   -0.423517
     13          1           0       -1.172614    0.947903    1.308477
     14          1           0       -0.557930   -1.428695    1.596291
     15          1           0       -1.894683   -1.867027    0.516096
     16          1           0       -0.320857   -1.747987   -1.410647
     17          1           0        2.055512   -0.401426    1.403494
     18          1           0        2.980273   -0.250413   -0.102765
     19          1           0       -0.419308    0.860720   -1.575649
 ---------------------------------------------------------------------

 SCF Done:  E(RB3LYP) =  -423.198110804     A.U. after    1 cycles

 The electronic state is 1-A.
 Alpha  occ. eigenvalues --  -19.14861 -19.13785 -10.27404 -10.23958 -10.23722
 Alpha  occ. eigenvalues --  -10.20489 -10.19498 -10.18675 -10.18528  -1.05578
 Alpha  occ. eigenvalues --   -1.03889  -0.85362  -0.74210  -0.73357  -0.68273
 Alpha  occ. eigenvalues --   -0.61937  -0.56518  -0.54954  -0.50841  -0.48426
 Alpha  occ. eigenvalues --   -0.46091  -0.44571  -0.44000  -0.42129  -0.41248
 Alpha  occ. eigenvalues --   -0.39405  -0.38457  -0.37150  -0.35582  -0.34394
 Alpha  occ. eigenvalues --   -0.31654  -0.30887  -0.26162  -0.23828
 Alpha virt. eigenvalues --   -0.02713   0.07678   0.08359   0.10410   0.12000
 Alpha virt. eigenvalues --    0.13707   0.14408   0.15241   0.15821   0.16877
 Alpha virt. eigenvalues --    0.17226   0.17614   0.18389   0.19936   0.22337

 Mulliken charges:
               1
     1  C   -0.405261
     2  C    0.019758
     3  C   -0.273137
     4  C    0.127409
     5  O   -0.266110
     6  C   -0.195265
     7  C    0.368053
     8  O   -0.306204
     9  C   -0.184264
    10  H    0.115931
    11  H    0.120168
    12  H    0.125330
    13  H    0.088087
    14  H    0.110426
    15  H    0.105264
    16  H    0.089540
    17  H    0.123153
    18  H    0.138562
    19  H    0.098562
 Sum of Mulliken charges =   0.00000

 Dipole moment (field-independent basis, Debye):
    X=             -1.7687    Y=             -1.2099    Z=             -0.0525  Tot=              2.1436
 Quadrupole moment (field-independent basis, Debye-Ang):
   XX=            -52.2439   YY=            -61.7775   ZZ=            -50.8050
   XY=             -1.4483   XZ=              0.6691   YZ=             -0.8601

  Exact polarizability:  87.374   2.120  74.116   2.272  -0.440  63.397
 Approx polarizability: 112.839   6.005 114.936   2.973   1.753  97.729

                      1                      2                      3
                      A                      A                      A
 Frequencies --     38.0503               108.0118               164.6317
 Red. masses --      2.9039                 2.9211                 3.2179
 Frc consts  --      0.0025                 0.0201                 0.0514
 IR Inten    --      0.5604                 7.8019                 0.3907

                      4                      5                      6
                      A                      A                      A
 Frequencies --    249.1259               256.4463               333.4796
 Red. masses --      1.1561                 2.3750                 3.7454
 Frc consts  --      0.0423                 0.0920                 0.2454
 IR Inten    --      0.2381                 1.6116                 2.2268

                      7                      8                      9
                      A                      A                      A
 Frequencies --    414.0321               451.2229               548.6214
 Red. masses --      2.1128                 3.9982                 3.3158
 Frc consts  --      0.2134                 0.4796                 0.5880
 IR Inten    --      3.4493                 6.9753                 3.0715

                     10                     11                     12
                      A                      A                      A
 Frequencies --    597.9236               665.4489               740.1930
 Red. masses --      3.9826                 6.7685                 2.5529
 Frc consts  --      0.8389                 1.7659                 0.8241
 IR Inten    --      2.4931                10.4909                 0.5296

                     13                     14                     15
                      A                      A                      A
 Frequencies --    776.0366               820.1997               878.5395
 Red. masses --      2.4135                 3.0350                 1.5045
 Frc consts  --      0.8564                 1.2029                 0.6842
 IR Inten    --      0.8681                 3.8129                 3.1260

                     16                     17                     18
                      A                      A                      A
 Frequencies --    899.1221               910.3678               941.7950
 Red. masses --      2.7584                 2.8960                 1.5308
 Frc consts  --      1.3139                 1.4141                 0.8000
 IR Inten    --      9.5852                 6.7800                 8.0646

                     19                     20                     21
                      A                      A                      A
 Frequencies --    971.1256               993.0593              1057.5411
 Red. masses --      1.7354                 2.7696                 2.1048
 Frc consts  --      0.9643                 1.6092                 1.3870
 IR Inten    --      2.6825                18.9312                22.7410

                     22                     23                     24
                      A                      A                      A
 Frequencies --   1086.6590              1090.1882              1103.1705
 Red. masses --      2.4069                 2.0027                 3.9772
 Frc consts  --      1.6745                 1.4024                 2.8518
 IR Inten    --      1.2246                11.1601                21.3147

                     25                     26                     27
                      A                      A                      A
 Frequencies --   1166.2374              1187.6414              1207.7027
 Red. masses --      1.5683                 2.4954                 1.6640
 Frc consts  --      1.2568                 2.0738                 1.4299
 IR Inten    --     15.9474               115.6011                15.5185

                     28                     29                     30
                      A                      A                      A
 Frequencies --   1212.4064              1231.9209              1261.3512
 Red. masses --      1.2443                 1.6145                 1.5650
 Frc consts  --      1.0777                 1.4436                 1.4670
 IR Inten    --      0.9340                16.3937                 4.7207

                     31                     32                     33
                      A                      A                      A
 Frequencies --   1265.4824              1282.8136              1324.2381
 Red. masses --      1.4176                 1.6801                 1.2958
 Frc consts  --      1.3376                 1.6289                 1.3388
 IR Inten    --     10.5085                 5.1568                 5.1399

                     34                     35                     36
                      A                      A                      A
 Frequencies --   1362.0984              1373.6865              1408.6637
 Red. masses --      1.4119                 1.3671                 1.2430
 Frc consts  --      1.5434                 1.5200                 1.4532
 IR Inten    --     15.0871                 3.5521                 1.3928

                     37                     38                     39
                      A                      A                      A
 Frequencies --   1470.2630              1486.2849              1494.5131
 Red. masses --      1.1024                 1.0803                 1.0463
 Frc consts  --      1.4040                 1.4060                 1.3769
 IR Inten    --      2.4702                 8.5698                 3.9614

                     40                     41                     42
                      A                      A                      A
 Frequencies --   1495.3490              1848.5909              2978.8863
 Red. masses --      1.0471                12.7624                 1.0698
 Frc consts  --      1.3795                25.6959                 5.5930
 IR Inten    --      2.5339               197.6183                31.2891

                     43                     44                     45
                      A                      A                      A
 Frequencies --   3025.4662              3054.4580              3063.1097
 Red. masses --      1.0352                 1.0832                 1.0621
 Frc consts  --      5.5827                 5.9542                 5.8716
 IR Inten    --     23.6156                11.6710                21.6993

                     46                     47                     48
                      A                      A                      A
 Frequencies --   3073.4152              3090.7029              3094.5048
 Red. masses --      1.0907                 1.0883                 1.1003
 Frc consts  --      6.0703                 6.1252                 6.2080
 IR Inten    --     18.4267                16.0859                24.2165

                     49                     50                     51
                      A                      A                      A
 Frequencies --   3099.8842              3101.1503              3119.1719
 Red. masses --      1.0973                 1.0944                 1.1059
 Frc consts  --      6.2125                 6.2012                 6.3395
 IR Inten    --     17.3773                24.2249                32.4230

 - Thermochemistry -
 -------------------
 Temperature   298.150 Kelvin.  Pressure   1.00000 Atm.
 Atom     1 has atomic number  6 and mass  12.00000

 Molecular mass:   126.06808 amu.
 Principal axes and moments of inertia in atomic units:
                           1         2         3
     Eigenvalues --   702.441291165.267901649.10274
           X            0.99943  -0.03263   0.00903
           Y            0.03276   0.99936  -0.01441
           Z           -0.00855   0.01470   0.99986
 This molecule is an asymmetric top.
 Rotational symmetry number  1.
 Warning -- assumption of classical behavior for rotation
           may cause significant error
 Rotational temperatures (Kelvin)      0.12330     0.07433     0.05252
 Rotational constants (GHZ):           2.56924     1.54878     1.09438
 Zero-point vibrational energy     417945.2 (Joules/Mol)
                                   99.89131 (Kcal/Mol)
 Warning -- explicit consideration of  10 degrees of freedom as
           vibrations may cause significant error
 Vibrational temperatures:     54.75   155.40   236.87   358.44   368.97
          (Kelvin)            479.80   595.70   649.21   789.34   860.28
                              957.43  1064.97  1116.54  1180.08  1264.02
                             1293.63  1309.81  1355.03  1397.23  1428.79
                             1521.56  1563.46  1568.54  1587.21  1677.95
                             1708.75  1737.61  1744.38  1772.46  1814.80
                             1820.74  1845.68  1905.28  1959.75  1976.43
                             2026.75  2115.38  2138.43  2150.27  2151.47
                             2659.71  4285.95  4352.97  4394.68  4407.13
                             4421.95  4446.83  4452.30  4460.04  4461.86
                             4487.79

 Zero-point correction=                           0.159187 (Hartree/Particle)
 Thermal correction to Energy=                    0.167430
 Thermal correction to Enthalpy=                  0.168374
 Thermal correction to Gibbs Free Energy=         0.125561
 Sum of electronic and zero-point Energies=           -423.038924
 Sum of electronic and thermal Energies=              -423.030681
 Sum of electronic and thermal Enthalpies=            -423.029737
 Sum of electronic and thermal Free Energies=         -423.072550

                     E (Thermal)             CV                S
                      KCal/Mol        Cal/Mol-Kelvin    Cal/Mol-Kelvin
 Total                  105.064             31.093             90.107
 Electronic               0.000              0.000              0.000
 Translational            0.889              2.981             40.409
 Rotational               0.889              2.981             28.692
 Vibrational            103.286             25.131             21.007
 Vibration     1          0.594              1.982              5.358
 Vibration     2          0.606              1.943              3.304
 Vibration     3          0.623              1.886              2.496
 Vibration     4          0.662              1.764              1.737
 Vibration     5          0.666              1.752              1.686
 Vibration     6          0.715              1.609              1.243
 Vibration     7          0.778              1.440              0.912
 Vibration     8          0.810              1.358              0.792
 Vibration     9          0.904              1.143              0.547
 Vibration    10          0.956              1.036              0.453

 Optimization completed.
    -- Stationary point found.
 Normal termination of Gaussian 09 at Tue Jan 28 04:33:53 2020.
