 Gaussian 09, Revision D.01,
 Gaussian 09:  ES64L-G09RevD.01 24-Apr-2013

 -----------------------------
 # b3lyp 6-31G(2df,p) opt Freq
 -----------------------------

 -----
 titel
 -----
 Symbolic Z-matrix:
 Charge =  0 Multiplicity = 1

 SCF Done:  E(RB3LYP) =  -423.111935664     A.U. after   14 cycles
 Optimization completed.
    -- Stationary point found.
 Normal termination of Gaussian 09 at Tue Jan 28 12:10:50 2020.

 ----------------------------------------------------------------------
 #N Geom=AllCheck Guess=TCheck SCRF=Check GenChk RB3LYP/6-31G(2df,p) Fr
 eq
 ----------------------------------------------------------------------

 Structure from the checkpoint file:  "/scratch/puck/g09_503a3264-8fa1-482e-b2e4-59f0bed9047a/Gau-36768.chk"
 -----
 titel
 -----
 Charge =  0 Multiplicity = 1

                         Standard orientation:
 ---------------------------------------------------------------------
 Center     Atomic      Atomic             Coordinates (Angstroms)
 Number     Number       Type             X           Y           Z
 ---------------------------------------------------------------------
      1          6           0        2.897880   -0.930180   -0.047328
      2          8           0        1.712416   -0.332423    0.421298
      3          6           0        0.907602    0.181715   -0.616371
      4          6           0       -0.357191    0.740293   -0.008337
      5          6           0       -1.135652   -0.207039    0.901896
      6          6           0       -1.697728   -1.344908    0.183454
      7          6           0       -2.155261   -2.272512   -0.428938
      8          6           0       -1.056040    1.837854   -0.684959
      9          8           0       -0.265578    2.080214    0.482782
     10          1           0        3.535540   -0.207544   -0.580270
     11          1           0        3.440755   -1.304493    0.823625
     12          1           0        2.689043   -1.771487   -0.726858
     13          1           0        1.431278    0.982174   -1.161915
     14          1           0        0.650237   -0.613428   -1.335851
     15          1           0       -0.457549   -0.559800    1.686552
     16          1           0       -1.930148    0.365461    1.392433
     17          1           0       -2.564892   -3.096792   -0.958163
     18          1           0       -0.658187    2.249513   -1.611661
     19          1           0       -2.132442    1.942716   -0.557028
 ---------------------------------------------------------------------

 SCF Done:  E(RB3LYP) =  -423.111935664     A.U. after    1 cycles

 The electronic state is 1-A.
 Alpha  occ. eigenvalues --  -19.15323 -19.14536 -10.24981 -10.23674 -10.23391
 Alpha  occ. eigenvalues --  -10.22736 -10.20949 -10.18444 -10.17300  -1.07672
 Alpha  occ. eigenvalues --   -1.03771  -0.80052  -0.74489  -0.70657  -0.67370
 Alpha  occ. eigenvalues --   -0.64785  -0.57794  -0.52929  -0.50619  -0.49988
 Alpha  occ. eigenvalues --   -0.48586  -0.46526  -0.45357  -0.43168  -0.42333
 Alpha  occ. eigenvalues --   -0.40594  -0.37653  -0.36817  -0.32762  -0.30578
 Alpha  occ. eigenvalues --   -0.28237  -0.26712  -0.26093  -0.25820
 Alpha virt. eigenvalues --    0.04800   0.05695   0.08320   0.10090   0.10869
 Alpha virt. eigenvalues --    0.12170   0.13057   0.13663   0.13718   0.16131
 Alpha virt. eigenvalues --    0.16425   0.16947   0.17596   0.18557   0.20525

 Mulliken charges:
               1
     1  C   -0.223987
     2  O   -0.237605
     3  C   -0.118642
     4  C    0.399385
     5  C   -0.422925
     6  C    0.310701
     7  C   -0.467049
     8  C   -0.229482
     9  O   -0.274513
    10  H    0.106868
    11  H    0.130406
    12  H    0.107185
    13  H    0.093326
    14  H    0.103658
    15  H    0.156730
    16  H    0.136598
    17  H    0.197222
    18  H    0.114199
    19  H    0.117925
 Sum of Mulliken charges =   0.00000

 Dipole moment (field-independent basis, Debye):
    X=              0.1509    Y=             -0.9257    Z=             -1.8669  Tot=              2.0892
 Quadrupole moment (field-independent basis, Debye-Ang):
   XX=            -48.5892   YY=            -54.2199   ZZ=            -52.0247
   XY=             -2.0718   XZ=             -0.4919   YZ=             -1.4189

  Exact polarizability:  80.709   2.644  86.080   4.278   2.938  65.547
 Approx polarizability: 103.103   9.410 125.722  11.498  14.443 105.671

                      1                      2                      3
                      A                      A                      A
 Frequencies --     41.3546                84.4058               107.8146
 Red. masses --      3.8659                 2.9505                 2.4622
 Frc consts  --      0.0039                 0.0124                 0.0169
 IR Inten    --      0.1048                 3.2907                 2.3894

                      4                      5                      6
                      A                      A                      A
 Frequencies --    139.2595               175.3648               232.2878
 Red. masses --      3.4191                 3.1092                 1.3101
 Frc consts  --      0.0391                 0.0563                 0.0416
 IR Inten    --      1.1750                 0.9152                 3.6129

                      7                      8                      9
                      A                      A                      A
 Frequencies --    310.4859               336.3541               352.3096
 Red. masses --      3.3820                 3.6888                 2.8065
 Frc consts  --      0.1921                 0.2459                 0.2052
 IR Inten    --      0.8315                 3.8417                 2.4483

                     10                     11                     12
                      A                      A                      A
 Frequencies --    370.3384               418.6737               454.9613
 Red. masses --      2.2772                 3.4912                 4.9436
 Frc consts  --      0.1840                 0.3606                 0.6029
 IR Inten    --      4.6710                 9.6831                 2.3058

                     13                     14                     15
                      A                      A                      A
 Frequencies --    568.1217               620.9857               647.2286
 Red. masses --      3.8522                 1.2133                 1.2342
 Frc consts  --      0.7326                 0.2757                 0.3046
 IR Inten    --      5.7251                43.4558                42.3177

                     16                     17                     18
                      A                      A                      A
 Frequencies --    779.9161               845.9692               909.2172
 Red. masses --      3.7123                 3.6672                 2.0865
 Frc consts  --      1.3304                 1.5463                 1.0163
 IR Inten    --      7.9664                28.9214                 3.2402

                     19                     20                     21
                      A                      A                      A
 Frequencies --    919.0335               969.4037               990.5276
 Red. masses --      1.5882                 3.3034                 3.3855
 Frc consts  --      0.7903                 1.8290                 1.9571
 IR Inten    --      7.7998                 1.3148                28.3763

                     22                     23                     24
                      A                      A                      A
 Frequencies --   1028.3582              1049.5042              1128.6047
 Red. masses --      3.0329                 2.1569                 1.2806
 Frc consts  --      1.8897                 1.3998                 0.9610
 IR Inten    --      9.3602                 3.2664                 5.1035

                     25                     26                     27
                      A                      A                      A
 Frequencies --   1155.3528              1165.9701              1184.4817
 Red. masses --      2.8867                 1.6133                 1.3126
 Frc consts  --      2.2703                 1.2922                 1.0850
 IR Inten    --    112.5869                33.6723                 5.1484

                     28                     29                     30
                      A                      A                      A
 Frequencies --   1196.1521              1228.5926              1255.5836
 Red. masses --      1.3266                 1.6968                 1.3567
 Frc consts  --      1.1183                 1.5090                 1.2601
 IR Inten    --     19.6555                36.8029                 1.0749

                     31                     32                     33
                      A                      A                      A
 Frequencies --   1297.5396              1332.3686              1384.2071
 Red. masses --      1.6081                 1.5919                 1.7650
 Frc consts  --      1.5952                 1.6650                 1.9925
 IR Inten    --     14.7586                 7.5057                22.9212

                     34                     35                     36
                      A                      A                      A
 Frequencies --   1449.4956              1464.1419              1479.0481
 Red. masses --      1.6373                 1.1126                 1.1796
 Frc consts  --      2.0267                 1.4053                 1.5204
 IR Inten    --      9.3124                14.3952                 3.0497

                     37                     38                     39
                      A                      A                      A
 Frequencies --   1486.0515              1495.9396              1519.0709
 Red. masses --      1.0516                 1.0698                 1.0929
 Frc consts  --      1.3682                 1.4105                 1.4859
 IR Inten    --      5.3227                11.4181                 3.4118

                     40                     41                     42
                      A                      A                      A
 Frequencies --   1533.3871              2238.6052              2964.1089
 Red. masses --      1.4196                 5.9317                 1.0491
 Frc consts  --      1.9666                17.5140                 5.4305
 IR Inten    --      4.7001                 2.1608                29.6585

                     43                     44                     45
                      A                      A                      A
 Frequencies --   2975.6093              3006.2837              3018.0142
 Red. masses --      1.0436                 1.1037                 1.1038
 Frc consts  --      5.4443                 5.8770                 5.9233
 IR Inten    --     63.1762                62.9738                38.8933

                     46                     47                     48
                      A                      A                      A
 Frequencies --   3045.4348              3082.4622              3086.2399
 Red. masses --      1.0583                 1.0516                 1.1011
 Frc consts  --      5.7828                 5.8871                 6.1794
 IR Inten    --      7.4491                20.8554                 6.2288

                     49                     50                     51
                      A                      A                      A
 Frequencies --   3118.0405              3168.3291              3506.4472
 Red. masses --      1.0961                 1.1193                 1.1621
 Frc consts  --      6.2785                 6.6200                 8.4184
 IR Inten    --     26.5311                21.4506                64.7580

 - Thermochemistry -
 -------------------
 Temperature   298.150 Kelvin.  Pressure   1.00000 Atm.
 Atom     1 has atomic number  6 and mass  12.00000

 Molecular mass:   126.06808 amu.
 Principal axes and moments of inertia in atomic units:
                           1         2         3
     Eigenvalues --  1000.677591329.212242026.83035
           X            0.99692  -0.07793  -0.00856
           Y            0.07784   0.99691  -0.01038
           Z            0.00934   0.00968   0.99991
 This molecule is an asymmetric top.
 Rotational symmetry number  1.
 Warning -- assumption of classical behavior for rotation
           may cause significant error
 Rotational temperatures (Kelvin)      0.08656     0.06516     0.04273
 Rotational constants (GHZ):           1.80352     1.35775     0.89043
 Zero-point vibrational energy     408629.0 (Joules/Mol)
                                   97.66468 (Kcal/Mol)
 Warning -- explicit consideration of  13 degrees of freedom as
           vibrations may cause significant error
 Vibrational temperatures:     59.50   121.44   155.12   200.36   252.31
          (Kelvin)            334.21   446.72   483.94   506.89   532.83
                              602.38   654.59   817.40   893.46   931.22
                             1122.12  1217.16  1308.16  1322.28  1394.75
                             1425.15  1479.58  1510.00  1623.81  1662.29
                             1677.57  1704.20  1720.99  1767.67  1806.50
                             1866.87  1916.98  1991.56  2085.50  2106.57
                             2128.02  2138.09  2152.32  2185.60  2206.20
                             3220.85  4264.69  4281.23  4325.37  4342.24
                             4381.70  4434.97  4440.41  4486.16  4558.51
                             5044.99

 Zero-point correction=                           0.155639 (Hartree/Particle)
 Thermal correction to Energy=                    0.165666
 Thermal correction to Enthalpy=                  0.166610
 Thermal correction to Gibbs Free Energy=         0.119849
 Sum of electronic and zero-point Energies=           -422.956297
 Sum of electronic and thermal Energies=              -422.946270
 Sum of electronic and thermal Enthalpies=            -422.945326
 Sum of electronic and thermal Free Energies=         -422.992087

                     E (Thermal)             CV                S
                      KCal/Mol        Cal/Mol-Kelvin    Cal/Mol-Kelvin
 Total                  103.957             35.730             98.416
 Electronic               0.000              0.000              0.000
 Translational            0.889              2.981             40.409
 Rotational               0.889              2.981             29.379
 Vibrational            102.179             29.768             28.629
 Vibration     1          0.594              1.981              5.193
 Vibration     2          0.601              1.960              3.786
 Vibration     3          0.606              1.943              3.308
 Vibration     4          0.615              1.914              2.814
 Vibration     5          0.627              1.873              2.377
 Vibration     6          0.653              1.792              1.861
 Vibration     7          0.699              1.654              1.360
 Vibration     8          0.717              1.603              1.229
 Vibration     9          0.729              1.571              1.156
 Vibration    10          0.742              1.533              1.078
 Vibration    11          0.782              1.430              0.896
 Vibration    12          0.813              1.350              0.781
 Vibration    13          0.924              1.100              0.508

 Optimization completed.
    -- Stationary point found.
 Normal termination of Gaussian 09 at Tue Jan 28 12:51:05 2020.
