 Gaussian 09, Revision D.01,
 Gaussian 09:  ES64L-G09RevD.01 24-Apr-2013

 -----------------------------
 # b3lyp 6-31G(2df,p) opt Freq
 -----------------------------

 -----
 titel
 -----
 Symbolic Z-matrix:
 Charge =  0 Multiplicity = 1

 SCF Done:  E(RB3LYP) =  -423.128562403     A.U. after   14 cycles
 Optimization completed.
    -- Stationary point found.
 Normal termination of Gaussian 09 at Mon Jan 27 23:03:41 2020.

 ----------------------------------------------------------------------
 #N Geom=AllCheck Guess=TCheck SCRF=Check GenChk RB3LYP/6-31G(2df,p) Fr
 eq
 ----------------------------------------------------------------------

 Structure from the checkpoint file:  "/scratch/puck/g09_fb1bcf2e-ce27-468d-8327-08555ec26efe/Gau-195638.chk"
 -----
 titel
 -----
 Charge =  0 Multiplicity = 1

                         Standard orientation:
 ---------------------------------------------------------------------
 Center     Atomic      Atomic             Coordinates (Angstroms)
 Number     Number       Type             X           Y           Z
 ---------------------------------------------------------------------
      1          6           0       -2.713921    0.024200   -0.496382
      2          6           0       -1.250965    0.436474   -0.403288
      3          6           0       -0.634354    0.378858    1.018298
      4          8           0       -0.552732   -1.093088    0.857019
      5          6           0       -0.228571   -0.721241   -0.535081
      6          6           0        1.170927   -0.099321   -0.336484
      7          8           0        2.278278   -0.929791   -0.426528
      8          6           0        1.359970    1.376407   -0.442820
      9          6           0        0.840483    0.783946    0.861375
     10          1           0       -2.902723   -0.879170    0.086861
     11          1           0       -3.363160    0.822704   -0.120914
     12          1           0       -2.996573   -0.167254   -1.537171
     13          1           0       -1.076596    1.337253   -0.994010
     14          1           0       -1.172521    0.685979    1.915594
     15          1           0       -0.322799   -1.540579   -1.249001
     16          1           0        2.143005   -1.648518    0.203495
     17          1           0        2.399376    1.687366   -0.395203
     18          1           0        0.749282    2.000021   -1.084776
     19          1           0        1.476929    0.809305    1.737491
 ---------------------------------------------------------------------

 SCF Done:  E(RB3LYP) =  -423.128562403     A.U. after    1 cycles

 The electronic state is 1-A.
 Alpha  occ. eigenvalues --  -19.14609 -19.13034 -10.24146 -10.23903 -10.23782
 Alpha  occ. eigenvalues --  -10.19646 -10.19444 -10.18831 -10.17586  -1.05063
 Alpha  occ. eigenvalues --   -1.02394  -0.85745  -0.76951  -0.69546  -0.68056
 Alpha  occ. eigenvalues --   -0.61559  -0.57209  -0.54001  -0.52638  -0.50142
 Alpha  occ. eigenvalues --   -0.47121  -0.43704  -0.43068  -0.40826  -0.39641
 Alpha  occ. eigenvalues --   -0.37130  -0.36640  -0.36469  -0.35017  -0.31908
 Alpha  occ. eigenvalues --   -0.30081  -0.29662  -0.24798  -0.23977
 Alpha virt. eigenvalues --    0.08301   0.09050   0.09974   0.10343   0.11891
 Alpha virt. eigenvalues --    0.12323   0.13954   0.15003   0.15703   0.17274
 Alpha virt. eigenvalues --    0.17648   0.18168   0.20570   0.21327   0.23194

 Mulliken charges:
               1
     1  C   -0.426797
     2  C    0.020806
     3  C    0.056896
     4  O   -0.317719
     5  C   -0.043122
     6  C    0.450800
     7  O   -0.467082
     8  C   -0.354482
     9  C   -0.140446
    10  H    0.138037
    11  H    0.113585
    12  H    0.114164
    13  H    0.068931
    14  H    0.077358
    15  H    0.078868
    16  H    0.287464
    17  H    0.124583
    18  H    0.119003
    19  H    0.099152
 Sum of Mulliken charges =   0.00000

 Dipole moment (field-independent basis, Debye):
    X=             -0.6662    Y=              0.9888    Z=              0.0179  Tot=              1.1924
 Quadrupole moment (field-independent basis, Debye-Ang):
   XX=            -55.1288   YY=            -52.1287   ZZ=            -52.6411
   XY=             -1.3036   XZ=              3.3900   YZ=              0.6226

  Exact polarizability:  83.972   1.370  70.367   0.365   0.618  67.508
 Approx polarizability: 108.489   0.222 111.687  -3.882  -0.126 108.793

                      1                      2                      3
                      A                      A                      A
 Frequencies --    188.1315               224.8287               229.0965
 Red. masses --      2.9527                 1.4882                 2.0232
 Frc consts  --      0.0616                 0.0443                 0.0626
 IR Inten    --      3.4803                 0.3153                 0.1855

                      4                      5                      6
                      A                      A                      A
 Frequencies --    267.3905               351.7925               388.5350
 Red. masses --      2.6542                 3.1793                 1.4015
 Frc consts  --      0.1118                 0.2318                 0.1247
 IR Inten    --      2.5082                 7.1295                41.9735

                      7                      8                      9
                      A                      A                      A
 Frequencies --    421.7976               449.0281               512.6542
 Red. masses --      2.6939                 2.4725                 2.6487
 Frc consts  --      0.2824                 0.2937                 0.4101
 IR Inten    --     34.0011                20.8734                 7.9245

                     10                     11                     12
                      A                      A                      A
 Frequencies --    611.4854               628.4166               734.8229
 Red. masses --      4.0532                 5.9173                 3.6119
 Frc consts  --      0.8929                 1.3768                 1.1491
 IR Inten    --      6.6279                 5.9668                 7.6095

                     13                     14                     15
                      A                      A                      A
 Frequencies --    793.1957               825.5790               843.8163
 Red. masses --      2.4135                 3.8456                 3.0397
 Frc consts  --      0.8947                 1.5443                 1.2752
 IR Inten    --      5.8531                14.2338                 4.3050

                     16                     17                     18
                      A                      A                      A
 Frequencies --    860.8709               876.5574               889.5245
 Red. masses --      2.2778                 3.6934                 2.6181
 Frc consts  --      0.9946                 1.6720                 1.2205
 IR Inten    --     13.8350                41.7900                22.3518

                     19                     20                     21
                      A                      A                      A
 Frequencies --    946.8993               967.1894              1012.0892
 Red. masses --      1.5026                 1.9991                 1.5306
 Frc consts  --      0.7938                 1.1018                 0.9238
 IR Inten    --     19.7350                 8.3131                 2.8626

                     22                     23                     24
                      A                      A                      A
 Frequencies --   1029.7892              1044.9208              1064.9267
 Red. masses --      1.7218                 2.1772                 1.5357
 Frc consts  --      1.0758                 1.4006                 1.0261
 IR Inten    --      2.1056                 0.5243                 0.2051

                     25                     26                     27
                      A                      A                      A
 Frequencies --   1086.6649              1094.1089              1124.6569
 Red. masses --      1.8694                 1.4645                 2.3343
 Frc consts  --      1.3006                 1.0329                 1.7396
 IR Inten    --      8.7787                 5.5278                 1.5029

                     28                     29                     30
                      A                      A                      A
 Frequencies --   1178.9246              1193.9830              1229.8831
 Red. masses --      1.5197                 1.4374                 1.8929
 Frc consts  --      1.2444                 1.2073                 1.6869
 IR Inten    --      1.8283                 1.0120                63.8074

                     31                     32                     33
                      A                      A                      A
 Frequencies --   1239.9256              1269.6236              1281.4566
 Red. masses --      1.6406                 1.6049                 1.5279
 Frc consts  --      1.4861                 1.5242                 1.4782
 IR Inten    --      3.2159                 6.9694                 4.0288

                     34                     35                     36
                      A                      A                      A
 Frequencies --   1301.2078              1326.8794              1395.2268
 Red. masses --      1.6837                 1.9692                 1.4411
 Frc consts  --      1.6796                 2.0427                 1.6529
 IR Inten    --      4.7198               138.8169                 2.2488

                     37                     38                     39
                      A                      A                      A
 Frequencies --   1403.1564              1429.9390              1493.1879
 Red. masses --      1.3543                 1.7778                 1.0972
 Frc consts  --      1.5710                 2.1418                 1.4414
 IR Inten    --      2.3183                 5.3898                 1.1443

                     40                     41                     42
                      A                      A                      A
 Frequencies --   1500.9527              1507.4368              3035.0667
 Red. masses --      1.3221                 1.0496                 1.0376
 Frc consts  --      1.7549                 1.4053                 5.6311
 IR Inten    --     14.5856                 2.9570                32.8092

                     43                     44                     45
                      A                      A                      A
 Frequencies --   3088.5337              3092.8338              3115.9611
 Red. masses --      1.0832                 1.1009                 1.0884
 Frc consts  --      6.0878                 6.2047                 6.2261
 IR Inten    --     22.3137                20.7864                67.1838

                     46                     47                     48
                      A                      A                      A
 Frequencies --   3118.5960              3132.6131              3135.9490
 Red. masses --      1.0928                 1.0606                 1.0937
 Frc consts  --      6.2618                 6.1322                 6.3370
 IR Inten    --      7.9748                 6.9441                27.9189

                     49                     50                     51
                      A                      A                      A
 Frequencies --   3189.5122              3213.8227              3777.1080
 Red. masses --      1.0927                 1.1138                 1.0656
 Frc consts  --      6.5495                 6.7782                 8.9568
 IR Inten    --      6.3990                11.2047                21.9465

 - Thermochemistry -
 -------------------
 Temperature   298.150 Kelvin.  Pressure   1.00000 Atm.
 Atom     1 has atomic number  6 and mass  12.00000

 Molecular mass:   126.06808 amu.
 Principal axes and moments of inertia in atomic units:
                           1         2         3
     Eigenvalues --   538.579451262.012841364.76780
           X            0.99971   0.00773   0.02270
           Y           -0.00790   0.99994   0.00770
           Z           -0.02264  -0.00788   0.99971
 This molecule is an asymmetric top.
 Rotational symmetry number  1.
 Warning -- assumption of classical behavior for rotation
           may cause significant error
 Rotational temperatures (Kelvin)      0.16082     0.06863     0.06346
 Rotational constants (GHZ):           3.35093     1.43005     1.32238
 Zero-point vibrational energy     419414.0 (Joules/Mol)
                                  100.24236 (Kcal/Mol)
 Warning -- explicit consideration of  10 degrees of freedom as
           vibrations may cause significant error
 Vibrational temperatures:    270.68   323.48   329.62   384.71   506.15
          (Kelvin)            559.01   606.87   646.05   737.59   879.79
                              904.15  1057.24  1141.23  1187.82  1214.06
                             1238.60  1261.17  1279.83  1362.38  1391.57
                             1456.17  1481.64  1503.41  1532.19  1563.47
                             1574.18  1618.13  1696.21  1717.87  1769.53
                             1783.97  1826.70  1843.73  1872.15  1909.08
                             2007.42  2018.83  2057.36  2148.36  2159.53
                             2168.86  4366.78  4443.71  4449.89  4483.17
                             4486.96  4507.13  4511.93  4588.99  4623.97
                             5434.41

 Zero-point correction=                           0.159746 (Hartree/Particle)
 Thermal correction to Energy=                    0.167339
 Thermal correction to Enthalpy=                  0.168283
 Thermal correction to Gibbs Free Energy=         0.128326
 Sum of electronic and zero-point Energies=           -422.968816
 Sum of electronic and thermal Energies=              -422.961224
 Sum of electronic and thermal Enthalpies=            -422.960280
 Sum of electronic and thermal Free Energies=         -423.000236

                     E (Thermal)             CV                S
                      KCal/Mol        Cal/Mol-Kelvin    Cal/Mol-Kelvin
 Total                  105.007             31.397             84.095
 Electronic               0.000              0.000              0.000
 Translational            0.889              2.981             40.409
 Rotational               0.889              2.981             28.319
 Vibrational            103.229             25.436             15.368
 Vibration     1          0.633              1.856              2.246
 Vibration     2          0.649              1.803              1.920
 Vibration     3          0.652              1.797              1.886
 Vibration     4          0.672              1.733              1.613
 Vibration     5          0.728              1.572              1.158
 Vibration     6          0.757              1.495              1.006
 Vibration     7          0.784              1.423              0.886
 Vibration     8          0.808              1.363              0.799
 Vibration     9          0.868              1.222              0.627
 Vibration    10          0.971              1.008              0.430

 Optimization completed.
    -- Stationary point found.
 Normal termination of Gaussian 09 at Mon Jan 27 23:47:11 2020.
