 Gaussian 09, Revision D.01,
 Gaussian 09:  ES64L-G09RevD.01 24-Apr-2013

 -----------------------------
 # b3lyp 6-31G(2df,p) opt Freq
 -----------------------------

 -----
 titel
 -----
 Symbolic Z-matrix:
 Charge =  0 Multiplicity = 1

 SCF Done:  E(RB3LYP) =  -423.161435867     A.U. after   13 cycles
 Optimization completed.
    -- Stationary point found.
 Normal termination of Gaussian 09 at Mon Jan 27 17:29:12 2020.

 ----------------------------------------------------------------------
 #N Geom=AllCheck Guess=TCheck SCRF=Check GenChk RB3LYP/6-31G(2df,p) Fr
 eq
 ----------------------------------------------------------------------

 Structure from the checkpoint file:  "/scratch/puck/g09_183cb26f-ca01-411d-8756-94b55f435ed4/Gau-72626.chk"
 -----
 titel
 -----
 Charge =  0 Multiplicity = 1

                         Standard orientation:
 ---------------------------------------------------------------------
 Center     Atomic      Atomic             Coordinates (Angstroms)
 Number     Number       Type             X           Y           Z
 ---------------------------------------------------------------------
      1          6           0        2.481240    0.407242    0.486537
      2          6           0        1.097798    0.105094   -0.035252
      3          6           0        0.232721    1.296377   -0.464972
      4          6           0       -1.252345    0.981840   -0.251590
      5          6           0       -1.536071    0.333410    1.126141
      6          6           0       -1.170085   -0.945620    0.339481
      7          8           0       -1.554204   -0.290801   -0.890540
      8          6           0        0.351737   -1.099796    0.368728
      9          8           0        1.016459   -1.052641   -0.888748
     10          1           0        2.436721    1.037641    1.381225
     11          1           0        3.007304   -0.518187    0.734176
     12          1           0        3.069161    0.941470   -0.268713
     13          1           0        0.510893    2.182839    0.117951
     14          1           0        0.416951    1.526246   -1.520459
     15          1           0       -1.908583    1.784193   -0.598954
     16          1           0       -0.918110    0.615222    1.982464
     17          1           0       -2.595205    0.375666    1.383624
     18          1           0       -1.715127   -1.877913    0.506025
     19          1           0        0.767991   -1.790912    1.102527
 ---------------------------------------------------------------------

 SCF Done:  E(RB3LYP) =  -423.161435867     A.U. after    1 cycles

 The electronic state is 1-A.
 Alpha  occ. eigenvalues --  -19.14271 -19.13128 -10.23991 -10.23951 -10.23870
 Alpha  occ. eigenvalues --  -10.23053 -10.19220 -10.18811 -10.18312  -1.07322
 Alpha  occ. eigenvalues --   -1.03549  -0.78650  -0.75082  -0.72704  -0.68362
 Alpha  occ. eigenvalues --   -0.61462  -0.58587  -0.52925  -0.51109  -0.47518
 Alpha  occ. eigenvalues --   -0.46761  -0.45140  -0.44348  -0.41662  -0.39691
 Alpha  occ. eigenvalues --   -0.39246  -0.37942  -0.37306  -0.35417  -0.33345
 Alpha  occ. eigenvalues --   -0.30933  -0.27642  -0.26016  -0.24429
 Alpha virt. eigenvalues --    0.07419   0.09097   0.10734   0.11118   0.12046
 Alpha virt. eigenvalues --    0.12950   0.13732   0.14471   0.15991   0.16672
 Alpha virt. eigenvalues --    0.17704   0.18101   0.18482   0.19934   0.21382

 Mulliken charges:
               1
     1  C   -0.470006
     2  C    0.400243
     3  C   -0.284116
     4  C    0.090857
     5  C   -0.255752
     6  C    0.044005
     7  O   -0.274793
     8  C   -0.018151
     9  O   -0.279717
    10  H    0.117560
    11  H    0.127903
    12  H    0.127217
    13  H    0.098846
    14  H    0.121559
    15  H    0.078413
    16  H    0.098023
    17  H    0.113424
    18  H    0.080215
    19  H    0.084269
 Sum of Mulliken charges =   0.00000

 Dipole moment (field-independent basis, Debye):
    X=              0.1915    Y=              1.5278    Z=              2.7608  Tot=              3.1612
 Quadrupole moment (field-independent basis, Debye-Ang):
   XX=            -53.0203   YY=            -50.8382   ZZ=            -55.2100
   XY=              0.7639   XZ=             -1.0023   YZ=             -3.6485

  Exact polarizability:  80.712   2.201  75.106  -1.369  -3.882  64.619
 Approx polarizability: 105.058   3.940 114.155  -1.683  -1.560 104.976

                      1                      2                      3
                      A                      A                      A
 Frequencies --    166.6601               201.9712               253.2713
 Red. masses --      2.6131                 1.0788                 3.2799
 Frc consts  --      0.0428                 0.0259                 0.1240
 IR Inten    --      0.0936                 0.0997                 0.5456

                      4                      5                      6
                      A                      A                      A
 Frequencies --    336.6786               364.9122               392.8491
 Red. masses --      2.1813                 5.0750                 2.1810
 Frc consts  --      0.1457                 0.3982                 0.1983
 IR Inten    --      0.6802                 2.8535                 0.5073

                      7                      8                      9
                      A                      A                      A
 Frequencies --    414.0937               491.2786               585.9372
 Red. masses --      2.8756                 4.2891                 3.6755
 Frc consts  --      0.2905                 0.6099                 0.7435
 IR Inten    --      3.4844                 7.9431                 4.4937

                     10                     11                     12
                      A                      A                      A
 Frequencies --    645.5655               718.3544               802.1582
 Red. masses --      4.3057                 4.3077                 3.8594
 Frc consts  --      1.0573                 1.3097                 1.4631
 IR Inten    --     11.6426                 2.7173                19.1967

                     13                     14                     15
                      A                      A                      A
 Frequencies --    837.2688               863.7247               875.7970
 Red. masses --      2.3658                 2.5143                 2.2903
 Frc consts  --      0.9772                 1.1051                 1.0350
 IR Inten    --      3.5058                14.0718                 0.9442

                     16                     17                     18
                      A                      A                      A
 Frequencies --    917.4998               924.1776               948.9136
 Red. masses --      3.4899                 2.6540                 2.2117
 Frc consts  --      1.7309                 1.3356                 1.1734
 IR Inten    --     12.0795                18.4757                 6.7115

                     19                     20                     21
                      A                      A                      A
 Frequencies --    969.3934               988.8381              1032.9085
 Red. masses --      1.9981                 3.7318                 1.4847
 Frc consts  --      1.1063                 2.1499                 0.9333
 IR Inten    --      5.3078                33.8662                 1.1850

                     22                     23                     24
                      A                      A                      A
 Frequencies --   1051.5672              1060.6196              1090.7587
 Red. masses --      1.6903                 1.5392                 2.7545
 Frc consts  --      1.1013                 1.0201                 1.9309
 IR Inten    --     13.3318                 5.0013                 2.7070

                     25                     26                     27
                      A                      A                      A
 Frequencies --   1120.3883              1141.3279              1198.5710
 Red. masses --      1.6363                 1.6551                 1.4018
 Frc consts  --      1.2101                 1.2703                 1.1865
 IR Inten    --      8.9942                 2.8018                 4.0602

                     28                     29                     30
                      A                      A                      A
 Frequencies --   1219.0424              1242.8218              1249.5510
 Red. masses --      1.7946                 1.7118                 1.3305
 Frc consts  --      1.5713                 1.5578                 1.2240
 IR Inten    --      8.9148                 4.3451                 2.5853

                     31                     32                     33
                      A                      A                      A
 Frequencies --   1287.8458              1324.5599              1331.1573
 Red. masses --      1.4351                 1.6979                 1.5891
 Frc consts  --      1.4024                 1.7551                 1.6591
 IR Inten    --      1.6206                 9.7695                 1.3771

                     34                     35                     36
                      A                      A                      A
 Frequencies --   1342.7990              1379.9273              1411.6390
 Red. masses --      1.5483                 1.5575                 1.2751
 Frc consts  --      1.6448                 1.7473                 1.4971
 IR Inten    --     16.3360                 4.8927                 5.0112

                     37                     38                     39
                      A                      A                      A
 Frequencies --   1449.6465              1466.1889              1484.3664
 Red. masses --      1.7237                 1.2582                 1.0893
 Frc consts  --      2.1343                 1.5936                 1.4141
 IR Inten    --     11.9718                 1.0980                 0.5714

                     40                     41                     42
                      A                      A                      A
 Frequencies --   1490.1531              1500.0627              3029.2062
 Red. masses --      1.1369                 1.3070                 1.0424
 Frc consts  --      1.4875                 1.7327                 5.6358
 IR Inten    --     10.7158                 2.8170                 6.8197

                     43                     44                     45
                      A                      A                      A
 Frequencies --   3034.8280              3064.8993              3076.1494
 Red. masses --      1.0539                 1.0616                 1.0875
 Frc consts  --      5.7189                 5.8757                 6.0632
 IR Inten    --     34.5865                23.5835                68.9638

                     46                     47                     48
                      A                      A                      A
 Frequencies --   3078.5841              3081.6731              3092.3553
 Red. masses --      1.1004                 1.0890                 1.1003
 Frc consts  --      6.1449                 6.0933                 6.1992
 IR Inten    --     17.3201                22.8125                21.6180

                     49                     50                     51
                      A                      A                      A
 Frequencies --   3105.6089              3121.3117              3135.3133
 Red. masses --      1.0898                 1.1009                 1.1072
 Frc consts  --      6.1926                 6.3191                 6.4128
 IR Inten    --     39.9369                19.4979                26.6079

 - Thermochemistry -
 -------------------
 Temperature   298.150 Kelvin.  Pressure   1.00000 Atm.
 Atom     1 has atomic number  6 and mass  12.00000

 Molecular mass:   126.06808 amu.
 Principal axes and moments of inertia in atomic units:
                           1         2         3
     Eigenvalues --   576.516071110.504201244.90523
           X            0.99985   0.01727  -0.00120
           Y           -0.01730   0.99591  -0.08863
           Z           -0.00033   0.08864   0.99606
 This molecule is an asymmetric top.
 Rotational symmetry number  1.
 Warning -- assumption of classical behavior for rotation
           may cause significant error
 Rotational temperatures (Kelvin)      0.15024     0.07800     0.06957
 Rotational constants (GHZ):           3.13043     1.62515     1.44970
 Zero-point vibrational energy     421056.6 (Joules/Mol)
                                  100.63495 (Kcal/Mol)
 Warning -- explicit consideration of   9 degrees of freedom as
           vibrations may cause significant error
 Vibrational temperatures:    239.79   290.59   364.40   484.40   525.03
          (Kelvin)            565.22   595.79   706.84   843.03   928.82
                             1033.55  1154.13  1204.64  1242.71  1260.07
                             1320.08  1329.68  1365.27  1394.74  1422.72
                             1486.12  1512.97  1525.99  1569.36  1611.99
                             1642.11  1724.47  1753.93  1788.14  1797.82
                             1852.92  1905.74  1915.24  1931.99  1985.41
                             2031.03  2085.72  2109.52  2135.67  2144.00
                             2158.25  4358.35  4366.44  4409.70  4425.89
                             4429.39  4433.83  4449.20  4468.27  4490.87
                             4511.01

 Zero-point correction=                           0.160372 (Hartree/Particle)
 Thermal correction to Energy=                    0.167630
 Thermal correction to Enthalpy=                  0.168574
 Thermal correction to Gibbs Free Energy=         0.129162
 Sum of electronic and zero-point Energies=           -423.001064
 Sum of electronic and thermal Energies=              -422.993806
 Sum of electronic and thermal Enthalpies=            -422.992862
 Sum of electronic and thermal Free Energies=         -423.032274

                     E (Thermal)             CV                S
                      KCal/Mol        Cal/Mol-Kelvin    Cal/Mol-Kelvin
 Total                  105.189             29.785             82.951
 Electronic               0.000              0.000              0.000
 Translational            0.889              2.981             40.409
 Rotational               0.889              2.981             28.168
 Vibrational            103.412             23.824             14.374
 Vibration     1          0.624              1.883              2.473
 Vibration     2          0.639              1.837              2.115
 Vibration     3          0.664              1.757              1.708
 Vibration     4          0.717              1.602              1.228
 Vibration     5          0.738              1.544              1.101
 Vibration     6          0.760              1.485              0.989
 Vibration     7          0.778              1.440              0.912
 Vibration     8          0.847              1.269              0.680
 Vibration     9          0.943              1.062              0.474

 Optimization completed.
    -- Stationary point found.
 Normal termination of Gaussian 09 at Mon Jan 27 18:28:45 2020.
