 Gaussian 09, Revision D.01,
 Gaussian 09:  ES64L-G09RevD.01 24-Apr-2013

 -----------------------------
 # b3lyp 6-31G(2df,p) opt Freq
 -----------------------------

 -----
 titel
 -----
 Symbolic Z-matrix:
 Charge =  0 Multiplicity = 1

 SCF Done:  E(RB3LYP) =  -423.164015522     A.U. after   14 cycles
 Optimization completed.
    -- Stationary point found.
 Normal termination of Gaussian 09 at Mon Jan 27 14:13:31 2020.

 ----------------------------------------------------------------------
 #N Geom=AllCheck Guess=TCheck SCRF=Check GenChk RB3LYP/6-31G(2df,p) Fr
 eq
 ----------------------------------------------------------------------

 Structure from the checkpoint file:  "/scratch/puck/g09_c759ad03-1758-4e6f-9806-2a0d8aa9fd7b/Gau-171148.chk"
 -----
 titel
 -----
 Charge =  0 Multiplicity = 1

                         Standard orientation:
 ---------------------------------------------------------------------
 Center     Atomic      Atomic             Coordinates (Angstroms)
 Number     Number       Type             X           Y           Z
 ---------------------------------------------------------------------
      1          6           0       -2.080981    1.335758    0.164638
      2          6           0       -1.932109   -0.159715   -0.035712
      3          8           0       -2.840939   -0.936440    0.066780
      4          8           0       -0.699685   -0.635151   -0.361868
      5          6           0        0.428470    0.218323   -0.475501
      6          6           0        1.762689   -0.515271   -0.739933
      7          6           0        2.454545    0.780333   -0.222468
      8          6           0        1.300932    0.504936    0.783661
      9          6           0        1.724352   -0.995879    0.743480
     10          1           0       -1.915238    1.871706   -0.775604
     11          1           0       -3.095882    1.529549    0.508559
     12          1           0       -1.362356    1.720339    0.893114
     13          1           0        0.208930    1.069895   -1.125702
     14          1           0        2.017556   -1.097198   -1.625264
     15          1           0        3.465338    0.654647    0.169095
     16          1           0        2.373575    1.675182   -0.846567
     17          1           0        1.032065    1.099882    1.657604
     18          1           0        2.690417   -1.230935    1.196230
     19          1           0        0.963206   -1.731260    1.000250
 ---------------------------------------------------------------------

 SCF Done:  E(RB3LYP) =  -423.164015522     A.U. after    1 cycles

 The electronic state is 1-A.
 Alpha  occ. eigenvalues --  -19.17742 -19.11593 -10.30603 -10.25569 -10.21361
 Alpha  occ. eigenvalues --  -10.21197 -10.20148 -10.19955 -10.19432  -1.09425
 Alpha  occ. eigenvalues --   -1.01500  -0.92113  -0.75032  -0.69289  -0.67762
 Alpha  occ. eigenvalues --   -0.64103  -0.58639  -0.53752  -0.51076  -0.50151
 Alpha  occ. eigenvalues --   -0.48298  -0.46453  -0.44075  -0.41734  -0.39961
 Alpha  occ. eigenvalues --   -0.39153  -0.36845  -0.34513  -0.34128  -0.33868
 Alpha  occ. eigenvalues --   -0.32389  -0.31622  -0.28378  -0.26285
 Alpha virt. eigenvalues --    0.01562   0.07934   0.10177   0.11126   0.12604
 Alpha virt. eigenvalues --    0.12888   0.13666   0.14723   0.15417   0.15629
 Alpha virt. eigenvalues --    0.16616   0.16790   0.18649   0.19822   0.21045

 Mulliken charges:
               1
     1  C   -0.524569
     2  C    0.405486
     3  O   -0.310254
     4  O   -0.248622
     5  C    0.190885
     6  C   -0.082768
     7  C   -0.225320
     8  C   -0.091067
     9  C   -0.222419
    10  H    0.150378
    11  H    0.152457
    12  H    0.148078
    13  H    0.080979
    14  H    0.083596
    15  H    0.104667
    16  H    0.093871
    17  H    0.076456
    18  H    0.094610
    19  H    0.123559
 Sum of Mulliken charges =   0.00000

 Dipole moment (field-independent basis, Debye):
    X=              2.7938    Y=              2.9766    Z=             -0.0281  Tot=              4.0824
 Quadrupole moment (field-independent basis, Debye-Ang):
   XX=            -59.1874   YY=            -54.1684   ZZ=            -51.8008
   XY=             -7.0315   XZ=              0.0812   YZ=             -0.4304

  Exact polarizability:  94.678   1.432  72.883  -1.436  -1.668  63.395
 Approx polarizability: 125.943   7.861 110.537  -2.897  -1.689  98.787

                      1                      2                      3
                      A                      A                      A
 Frequencies --     52.9410                81.0549               153.1882
 Red. masses --      3.0650                 6.6162                 3.4751
 Frc consts  --      0.0051                 0.0256                 0.0480
 IR Inten    --      2.4455                 0.5778                 1.7230

                      4                      5                      6
                      A                      A                      A
 Frequencies --    167.1686               309.4489               357.5075
 Red. masses --      1.0518                 3.8937                 3.6067
 Frc consts  --      0.0173                 0.2197                 0.2716
 IR Inten    --      0.0483                 0.5424                 0.7724

                      7                      8                      9
                      A                      A                      A
 Frequencies --    424.8597               503.2965               559.4935
 Red. masses --      4.2734                 3.5546                 1.8779
 Frc consts  --      0.4545                 0.5305                 0.3464
 IR Inten    --      5.3520                 2.6027                 0.1311

                     10                     11                     12
                      A                      A                      A
 Frequencies --    577.5102               663.3646               771.1904
 Red. masses --      2.5042                 4.5173                 2.9576
 Frc consts  --      0.4921                 1.1712                 1.0363
 IR Inten    --      5.4149                18.0052                 0.2132

                     13                     14                     15
                      A                      A                      A
 Frequencies --    804.9589               856.1871               886.8353
 Red. masses --      2.7948                 4.1347                 2.0913
 Frc consts  --      1.0670                 1.7858                 0.9690
 IR Inten    --      0.6284                 0.4196                 3.1398

                     16                     17                     18
                      A                      A                      A
 Frequencies --    901.7989               911.4111               924.9153
 Red. masses --      2.0666                 2.8317                 2.2871
 Frc consts  --      0.9902                 1.3859                 1.1528
 IR Inten    --      0.4582                 1.1734                 1.0736

                     19                     20                     21
                      A                      A                      A
 Frequencies --   1007.7200              1020.5012              1027.6701
 Red. masses --      1.6139                 1.0279                 1.4226
 Frc consts  --      0.9656                 0.6307                 0.8852
 IR Inten    --     44.0588                 0.2566                21.9666

                     22                     23                     24
                      A                      A                      A
 Frequencies --   1032.1897              1058.2758              1090.9113
 Red. masses --      1.2193                 1.8249                 1.5477
 Frc consts  --      0.7654                 1.2042                 1.0852
 IR Inten    --     24.6900                 6.3305                 4.8246

                     25                     26                     27
                      A                      A                      A
 Frequencies --   1104.2813              1112.8308              1147.6038
 Red. masses --      1.9109                 3.2542                 1.9958
 Frc consts  --      1.3729                 2.3744                 1.5486
 IR Inten    --     14.3851                54.2153                58.3736

                     28                     29                     30
                      A                      A                      A
 Frequencies --   1155.6910              1198.1703              1216.5186
 Red. masses --      1.9807                 1.3921                 1.4454
 Frc consts  --      1.5587                 1.1775                 1.2603
 IR Inten    --     19.2761                 1.8181                 8.9327

                     31                     32                     33
                      A                      A                      A
 Frequencies --   1242.5009              1247.6196              1259.9368
 Red. masses --      2.1900                 2.0557                 1.9116
 Frc consts  --      1.9920                 1.8853                 1.7879
 IR Inten    --    172.7170               135.2774                42.7547

                     34                     35                     36
                      A                      A                      A
 Frequencies --   1278.7798              1391.0191              1403.5742
 Red. masses --      1.9941                 1.3255                 1.1883
 Frc consts  --      1.9212                 1.5111                 1.3793
 IR Inten    --     81.7589                47.2898                20.1130

                     37                     38                     39
                      A                      A                      A
 Frequencies --   1468.1233              1484.7109              1498.0815
 Red. masses --      1.0516                 1.0480                 1.0930
 Frc consts  --      1.3354                 1.3611                 1.4453
 IR Inten    --      9.7672                 9.1483                 0.7743

                     40                     41                     42
                      A                      A                      A
 Frequencies --   1535.2419              1849.7242              3051.0787
 Red. masses --      1.1408                11.5820                 1.0421
 Frc consts  --      1.5843                23.3479                 5.7157
 IR Inten    --      6.5681               346.3533                 4.7180

                     43                     44                     45
                      A                      A                      A
 Frequencies --   3054.7629              3067.1130              3073.4173
 Red. masses --      1.0571                 1.0798                 1.0585
 Frc consts  --      5.8121                 5.9848                 5.8908
 IR Inten    --     27.7131                52.0667                35.8922

                     46                     47                     48
                      A                      A                      A
 Frequencies --   3103.6197              3117.5637              3121.3120
 Red. masses --      1.0916                 1.0976                 1.0942
 Frc consts  --      6.1953                 6.2855                 6.2807
 IR Inten    --     59.2242                 7.8698                31.9311

                     49                     50                     51
                      A                      A                      A
 Frequencies --   3129.6263              3155.7245              3168.6498
 Red. masses --      1.1076                 1.1074                 1.1016
 Frc consts  --      6.3917                 6.4974                 6.5165
 IR Inten    --     32.0024                19.2631                 6.9576

 - Thermochemistry -
 -------------------
 Temperature   298.150 Kelvin.  Pressure   1.00000 Atm.
 Atom     1 has atomic number  6 and mass  12.00000

 Molecular mass:   126.06808 amu.
 Principal axes and moments of inertia in atomic units:
                           1         2         3
     Eigenvalues --   449.714371734.842221913.65412
           X            0.99962  -0.02748  -0.00015
           Y            0.02747   0.99934  -0.02363
           Z            0.00080   0.02362   0.99972
 This molecule is an asymmetric top.
 Rotational symmetry number  1.
 Warning -- assumption of classical behavior for rotation
           may cause significant error
 Rotational temperatures (Kelvin)      0.19260     0.04993     0.04526
 Rotational constants (GHZ):           4.01308     1.04029     0.94309
 Zero-point vibrational energy     417387.1 (Joules/Mol)
                                   99.75791 (Kcal/Mol)
 Warning -- explicit consideration of  10 degrees of freedom as
           vibrations may cause significant error
 Vibrational temperatures:     76.17   116.62   220.40   240.52   445.23
          (Kelvin)            514.37   611.28   724.13   804.99   830.91
                              954.43  1109.57  1158.15  1231.86  1275.96
                             1297.49  1311.32  1330.75  1449.88  1468.27
                             1478.59  1485.09  1522.62  1569.58  1588.81
                             1601.11  1651.14  1662.78  1723.90  1750.30
                             1787.68  1795.04  1812.77  1839.88  2001.36
                             2019.43  2112.30  2136.17  2155.40  2208.87
                             2661.34  4389.82  4395.12  4412.89  4421.96
                             4465.41  4485.47  4490.87  4502.83  4540.38
                             4558.97

 Zero-point correction=                           0.158974 (Hartree/Particle)
 Thermal correction to Energy=                    0.167253
 Thermal correction to Enthalpy=                  0.168198
 Thermal correction to Gibbs Free Energy=         0.125242
 Sum of electronic and zero-point Energies=           -423.005041
 Sum of electronic and thermal Energies=              -422.996762
 Sum of electronic and thermal Enthalpies=            -422.995818
 Sum of electronic and thermal Free Energies=         -423.038774

                     E (Thermal)             CV                S
                      KCal/Mol        Cal/Mol-Kelvin    Cal/Mol-Kelvin
 Total                  104.953             31.195             90.408
 Electronic               0.000              0.000              0.000
 Translational            0.889              2.981             40.409
 Rotational               0.889              2.981             28.792
 Vibrational            103.176             25.233             21.208
 Vibration     1          0.596              1.976              4.704
 Vibration     2          0.600              1.962              3.865
 Vibration     3          0.619              1.899              2.632
 Vibration     4          0.624              1.883              2.467
 Vibration     5          0.699              1.656              1.365
 Vibration     6          0.733              1.560              1.133
 Vibration     7          0.787              1.416              0.876
 Vibration     8          0.859              1.243              0.650
 Vibration     9          0.915              1.119              0.525
 Vibration    10          0.934              1.080              0.490

 Optimization completed.
    -- Stationary point found.
 Normal termination of Gaussian 09 at Mon Jan 27 14:57:48 2020.
