 Gaussian 09, Revision D.01,
 Gaussian 09:  ES64L-G09RevD.01 24-Apr-2013

 -----------------------------
 # b3lyp 6-31G(2df,p) opt Freq
 -----------------------------

 -----
 titel
 -----
 Symbolic Z-matrix:
 Charge =  0 Multiplicity = 1

 SCF Done:  E(RB3LYP) =  -423.177384747     A.U. after   15 cycles
 Optimization completed.
    -- Stationary point found.
 Normal termination of Gaussian 09 at Mon Jan 27 13:57:51 2020.

 ----------------------------------------------------------------------
 #N Geom=AllCheck Guess=TCheck SCRF=Check GenChk RB3LYP/6-31G(2df,p) Fr
 eq
 ----------------------------------------------------------------------

 Structure from the checkpoint file:  "/scratch/puck/g09_803868d2-1ef8-4f7a-b058-acc9ac6bc768/Gau-39794.chk"
 -----
 titel
 -----
 Charge =  0 Multiplicity = 1

                         Standard orientation:
 ---------------------------------------------------------------------
 Center     Atomic      Atomic             Coordinates (Angstroms)
 Number     Number       Type             X           Y           Z
 ---------------------------------------------------------------------
      1          6           0        3.522284   -0.504582   -0.206774
      2          6           0        2.127115   -0.114995   -0.065817
      3          6           0        0.970718    0.207344    0.043042
      4          6           0       -0.435446    0.600218    0.194103
      5          6           0       -0.742258    1.892393   -0.572035
      6          8           0       -0.781921    0.724031    1.577614
      7          6           0       -1.297280   -0.579366   -0.357374
      8          6           0       -1.535612   -1.732361    0.590998
      9          8           0       -1.721335   -0.550776   -1.485475
     10          1           0        3.899586   -0.967519    0.711444
     11          1           0        3.646174   -1.228963   -1.019087
     12          1           0        4.156938    0.359355   -0.431661
     13          1           0       -0.592879    1.744203   -1.642302
     14          1           0       -1.782793    2.177223   -0.397419
     15          1           0       -0.087777    2.697063   -0.225553
     16          1           0       -0.085042    1.232917    2.005061
     17          1           0       -1.987651   -2.561419    0.045527
     18          1           0       -0.598624   -2.042610    1.061833
     19          1           0       -2.199011   -1.408194    1.398192
 ---------------------------------------------------------------------

 SCF Done:  E(RB3LYP) =  -423.177384747     A.U. after    1 cycles

 The electronic state is 1-A.
 Alpha  occ. eigenvalues --  -19.14822 -19.13042 -10.26948 -10.26420 -10.21329
 Alpha  occ. eigenvalues --  -10.19049 -10.18033 -10.17898 -10.17622  -1.04633
 Alpha  occ. eigenvalues --   -1.02841  -0.79825  -0.76984  -0.73662  -0.70226
 Alpha  occ. eigenvalues --   -0.64461  -0.55676  -0.52217  -0.47594  -0.46822
 Alpha  occ. eigenvalues --   -0.45339  -0.43617  -0.43565  -0.42541  -0.40986
 Alpha  occ. eigenvalues --   -0.40361  -0.39547  -0.37284  -0.36099  -0.34994
 Alpha  occ. eigenvalues --   -0.29188  -0.27496  -0.26518  -0.23621
 Alpha virt. eigenvalues --   -0.01923   0.03885   0.05842   0.08773   0.10305
 Alpha virt. eigenvalues --    0.12905   0.14208   0.15613   0.16730   0.16838
 Alpha virt. eigenvalues --    0.17368   0.18337   0.18409   0.19676   0.22156

 Mulliken charges:
               1
     1  C   -0.499118
     2  C   -0.015647
     3  C    0.118416
     4  C    0.079705
     5  C   -0.408155
     6  O   -0.450200
     7  C    0.384573
     8  C   -0.472483
     9  O   -0.301972
    10  H    0.152837
    11  H    0.157981
    12  H    0.153269
    13  H    0.145705
    14  H    0.126206
    15  H    0.107771
    16  H    0.285307
    17  H    0.132953
    18  H    0.144227
    19  H    0.158622
 Sum of Mulliken charges =   0.00000

 Dipole moment (field-independent basis, Debye):
    X=              2.8323    Y=              0.3087    Z=              1.7778  Tot=              3.3583
 Quadrupole moment (field-independent basis, Debye-Ang):
   XX=            -48.0902   YY=            -49.9032   ZZ=            -56.2200
   XY=             -0.8184   XZ=             -2.5325   YZ=             -0.2053

  Exact polarizability: 103.319  -3.982  72.631  -0.130  -1.024  68.408
 Approx polarizability: 149.087 -10.112  96.737   1.065   1.355 108.599

                      1                      2                      3
                      A                      A                      A
 Frequencies --      7.3480                47.6924                79.6006
 Red. masses --      1.0181                 4.2537                 3.7496
 Frc consts  --      0.0000                 0.0057                 0.0140
 IR Inten    --      0.0141                 4.3559                 0.4623

                      4                      5                      6
                      A                      A                      A
 Frequencies --    114.8741               142.5905               213.3768
 Red. masses --      3.3694                 1.0480                 1.3046
 Frc consts  --      0.0262                 0.0126                 0.0350
 IR Inten    --      1.2227                 0.3638                17.0168

                      7                      8                      9
                      A                      A                      A
 Frequencies --    224.3140               245.1811               262.9590
 Red. masses --      1.1118                 2.5673                 2.9950
 Frc consts  --      0.0330                 0.0909                 0.1220
 IR Inten    --     56.5601                18.5760                 8.0390

                     10                     11                     12
                      A                      A                      A
 Frequencies --    298.0234               334.9541               358.7120
 Red. masses --      3.2626                 3.3888                 3.6539
 Frc consts  --      0.1707                 0.2240                 0.2770
 IR Inten    --      3.8196                16.8479                 3.1080

                     13                     14                     15
                      A                      A                      A
 Frequencies --    418.2016               475.3862               530.5091
 Red. masses --      4.1911                 7.3370                 3.3356
 Frc consts  --      0.4319                 0.9769                 0.5531
 IR Inten    --      2.7554                 3.9850                 7.7436

                     16                     17                     18
                      A                      A                      A
 Frequencies --    566.2960               603.2378               656.2026
 Red. masses --      4.6976                 3.9652                 3.2370
 Frc consts  --      0.8876                 0.8502                 0.8212
 IR Inten    --     11.2364                11.2062                 1.6531

                     19                     20                     21
                      A                      A                      A
 Frequencies --    795.8706               908.9215               965.4138
 Red. masses --      2.5948                 2.6537                 2.0789
 Frc consts  --      0.9684                 1.2917                 1.1416
 IR Inten    --      3.0456                14.7681                35.8957

                     22                     23                     24
                      A                      A                      A
 Frequencies --   1030.5550              1050.1766              1053.6500
 Red. masses --      1.7412                 1.4132                 1.4042
 Frc consts  --      1.0895                 0.9183                 0.9185
 IR Inten    --      4.8907                 1.6331                 1.4251

                     25                     26                     27
                      A                      A                      A
 Frequencies --   1060.9926              1096.6935              1135.1831
 Red. masses --      2.4340                 1.6624                 3.9292
 Frc consts  --      1.6144                 1.1780                 2.9832
 IR Inten    --      2.1107                33.2078                85.4126

                     28                     29                     30
                      A                      A                      A
 Frequencies --   1189.6412              1227.2364              1354.1080
 Red. masses --      2.5614                 4.6075                 1.5822
 Frc consts  --      2.1358                 4.0886                 1.7093
 IR Inten    --     57.5781                43.5802                53.1067

                     31                     32                     33
                      A                      A                      A
 Frequencies --   1378.9796              1397.3746              1413.5497
 Red. masses --      1.3137                 1.2330                 1.2432
 Frc consts  --      1.4718                 1.4185                 1.4636
 IR Inten    --     30.4581                 7.4834                 5.0492

                     34                     35                     36
                      A                      A                      A
 Frequencies --   1456.8476              1467.5018              1475.6282
 Red. masses --      1.0505                 1.0530                 1.0394
 Frc consts  --      1.3137                 1.3361                 1.3334
 IR Inten    --     13.0970                 8.5185                 6.6056

                     37                     38                     39
                      A                      A                      A
 Frequencies --   1477.0358              1481.3143              1484.3966
 Red. masses --      1.0396                 1.0524                 1.0624
 Frc consts  --      1.3363                 1.3606                 1.3792
 IR Inten    --      6.4680                 1.6647                 6.3654

                     40                     41                     42
                      A                      A                      A
 Frequencies --   1824.2759              2356.3120              3030.1786
 Red. masses --     11.4696                11.8913                 1.0347
 Frc consts  --     22.4895                38.8995                 5.5974
 IR Inten    --    151.0016                16.0370                25.2517

                     43                     44                     45
                      A                      A                      A
 Frequencies --   3051.3795              3053.4773              3092.8664
 Red. masses --      1.0351                 1.0342                 1.1004
 Frc consts  --      5.6783                 5.6811                 6.2020
 IR Inten    --     15.7428                 0.9510                 7.9299

                     46                     47                     48
                      A                      A                      A
 Frequencies --   3093.3896              3120.9059              3126.8230
 Red. masses --      1.1001                 1.0978                 1.1027
 Frc consts  --      6.2023                 6.2997                 6.3522
 IR Inten    --      7.0644                 3.8340                18.2086

                     49                     50                     51
                      A                      A                      A
 Frequencies --   3151.7865              3157.4460              3815.1165
 Red. masses --      1.1011                 1.1049                 1.0665
 Frc consts  --      6.4445                 6.4902                 9.1456
 IR Inten    --      7.7858                12.0334                25.1193

 - Thermochemistry -
 -------------------
 Temperature   298.150 Kelvin.  Pressure   1.00000 Atm.
 Atom     1 has atomic number  6 and mass  12.00000

 Molecular mass:   126.06808 amu.
 Principal axes and moments of inertia in atomic units:
                           1         2         3
     Eigenvalues --   835.347271730.741731875.20951
           X            0.99980  -0.01295  -0.01545
           Y            0.01066   0.99008  -0.14010
           Z            0.01711   0.13990   0.99002
 This molecule is an asymmetric top.
 Rotational symmetry number  1.
 Warning -- assumption of classical behavior for rotation
           may cause significant error
 Rotational temperatures (Kelvin)      0.10369     0.05004     0.04619
 Rotational constants (GHZ):           2.16047     1.04276     0.96242
 Zero-point vibrational energy     402869.3 (Joules/Mol)
                                   96.28807 (Kcal/Mol)
 Warning -- explicit consideration of  17 degrees of freedom as
           vibrations may cause significant error
 Vibrational temperatures:     10.57    68.62   114.53   165.28   205.16
          (Kelvin)            307.00   322.74   352.76   378.34   428.79
                              481.92   516.11   601.70   683.97   763.28
                              814.77   867.92   944.13  1145.08  1307.73
                             1389.01  1482.74  1510.97  1515.97  1526.53
                             1577.90  1633.27  1711.63  1765.72  1948.26
                             1984.04  2010.51  2033.78  2096.08  2111.41
                             2123.10  2125.12  2131.28  2135.71  2624.72
                             3390.20  4359.75  4390.25  4393.27  4449.94
                             4450.69  4490.28  4498.80  4534.71  4542.85
                             5489.09

 Zero-point correction=                           0.153445 (Hartree/Particle)
 Thermal correction to Energy=                    0.165008
 Thermal correction to Enthalpy=                  0.165952
 Thermal correction to Gibbs Free Energy=         0.114182
 Sum of electronic and zero-point Energies=           -423.023940
 Sum of electronic and thermal Energies=              -423.012377
 Sum of electronic and thermal Enthalpies=            -423.011432
 Sum of electronic and thermal Free Energies=         -423.063203

                     E (Thermal)             CV                S
                      KCal/Mol        Cal/Mol-Kelvin    Cal/Mol-Kelvin
 Total                  103.544             39.445            108.960
 Electronic               0.000              0.000              0.000
 Translational            0.889              2.981             40.409
 Rotational               0.889              2.981             29.385
 Vibrational            101.767             33.483             39.167
 Vibration     1          0.593              1.987              8.623
 Vibration     2          0.595              1.978              4.911
 Vibration     3          0.600              1.963              3.901
 Vibration     4          0.608              1.937              3.185
 Vibration     5          0.616              1.911              2.769
 Vibration     6          0.644              1.821              2.015
 Vibration     7          0.649              1.804              1.924
 Vibration     8          0.660              1.771              1.765
 Vibration     9          0.670              1.741              1.642
 Vibration    10          0.691              1.677              1.428
 Vibration    11          0.716              1.606              1.236
 Vibration    12          0.734              1.557              1.128
 Vibration    13          0.781              1.431              0.898
 Vibration    14          0.832              1.305              0.723
 Vibration    15          0.885              1.183              0.586
 Vibration    16          0.922              1.104              0.511
 Vibration    17          0.962              1.025              0.444

 Optimization completed on the basis of negligible forces.
    -- Stationary point found.
 Normal termination of Gaussian 09 at Mon Jan 27 14:33:51 2020.
