 Gaussian 09, Revision D.01,
 Gaussian 09:  ES64L-G09RevD.01 24-Apr-2013

 -----------------------------
 # b3lyp 6-31G(2df,p) opt Freq
 -----------------------------

 -----
 titel
 -----
 Symbolic Z-matrix:
 Charge =  0 Multiplicity = 1

 SCF Done:  E(RB3LYP) =  -423.123171532     A.U. after   14 cycles
 SCF Done:  E(RB3LYP) =  -423.123170690     A.U. after    7 cycles
 SCF Done:  E(RB3LYP) =  -423.123171478     A.U. after    7 cycles
 SCF Done:  E(RB3LYP) =  -423.123171504     A.U. after    6 cycles
 SCF Done:  E(RB3LYP) =  -423.123171160     A.U. after    6 cycles
 SCF Done:  E(RB3LYP) =  -423.123171105     A.U. after    6 cycles
 Optimization completed.
    -- Stationary point found.
 Normal termination of Gaussian 09 at Tue Jan 28 09:24:28 2020.

 ----------------------------------------------------------------------
 #N Geom=AllCheck Guess=TCheck SCRF=Check GenChk RB3LYP/6-31G(2df,p) Fr
 eq
 ----------------------------------------------------------------------

 Structure from the checkpoint file:  "/scratch/puck/g09_ecbc4875-ee8d-4388-a9d6-753c91863161/Gau-16420.chk"
 -----
 titel
 -----
 Charge =  0 Multiplicity = 1

                         Standard orientation:
 ---------------------------------------------------------------------
 Center     Atomic      Atomic             Coordinates (Angstroms)
 Number     Number       Type             X           Y           Z
 ---------------------------------------------------------------------
      1          8           0        0.370948    2.015273    0.301316
      2          6           0       -0.422757    1.310287   -0.663700
      3          6           0       -0.773666   -0.093866   -0.199059
      4          6           0       -2.148236   -0.368139    0.356832
      5          6           0       -1.777628   -0.865851   -1.017184
      6          6           0        0.378644   -0.843074    0.474900
      7          8           0        0.574964   -0.398558    1.809566
      8          6           0        1.620661   -0.735165   -0.313401
      9          6           0        2.632720   -0.602008   -0.951041
     10          1           0        1.292769    1.872949    0.059431
     11          1           0       -1.336606    1.893863   -0.819830
     12          1           0        0.113223    1.266753   -1.619215
     13          1           0       -2.230720   -1.088425    1.163058
     14          1           0       -2.838892    0.465242    0.432046
     15          1           0       -1.615348   -1.929337   -1.156960
     16          1           0       -2.213848   -0.370713   -1.879260
     17          1           0        0.113039   -1.904392    0.552641
     18          1           0        0.554919    0.568775    1.761906
     19          1           0        3.535732   -0.521538   -1.504954
 ---------------------------------------------------------------------

 SCF Done:  E(RB3LYP) =  -423.123171105     A.U. after    1 cycles

 The electronic state is 1-A.
 Alpha  occ. eigenvalues --  -19.15215 -19.12831 -10.25810 -10.23764 -10.20319
 Alpha  occ. eigenvalues --  -10.19432 -10.19023 -10.18883 -10.18351  -1.03323
 Alpha  occ. eigenvalues --   -1.01208  -0.87192  -0.76954  -0.70956  -0.68902
 Alpha  occ. eigenvalues --   -0.60995  -0.57408  -0.54755  -0.51689  -0.50528
 Alpha  occ. eigenvalues --   -0.49703  -0.47402  -0.44469  -0.42280  -0.40313
 Alpha  occ. eigenvalues --   -0.37354  -0.36505  -0.35032  -0.31519  -0.29352
 Alpha  occ. eigenvalues --   -0.28703  -0.28045  -0.26737  -0.26514
 Alpha virt. eigenvalues --    0.03470   0.04226   0.06998   0.09281   0.10573
 Alpha virt. eigenvalues --    0.11969   0.12718   0.14245   0.15193   0.15736
 Alpha virt. eigenvalues --    0.16687   0.18482   0.19942   0.21884   0.22651

 Mulliken charges:
               1
     1  O   -0.429430
     2  C   -0.162101
     3  C    0.341581
     4  C   -0.307488
     5  C   -0.316673
     6  C   -0.148715
     7  O   -0.422866
     8  C    0.325878
     9  C   -0.470523
    10  H    0.297057
    11  H    0.109535
    12  H    0.112984
    13  H    0.127173
    14  H    0.114828
    15  H    0.118321
    16  H    0.113391
    17  H    0.108908
    18  H    0.287480
    19  H    0.200660
 Sum of Mulliken charges =   0.00000

 Dipole moment (field-independent basis, Debye):
    X=             -0.1599    Y=              0.2583    Z=             -2.2954  Tot=              2.3154
 Quadrupole moment (field-independent basis, Debye-Ang):
   XX=            -48.1754   YY=            -54.1712   ZZ=            -55.7809
   XY=              2.0335   XZ=             -3.0113   YZ=             -0.2189

  Exact polarizability:  92.628   1.711  67.379  -8.491   0.029  70.428
 Approx polarizability: 131.597   4.830  98.034 -18.972   0.137 111.390

                      1                      2                      3
                      A                      A                      A
 Frequencies --     77.5777               102.9836               147.8081
 Red. masses --      4.6390                 3.4518                 3.0449
 Frc consts  --      0.0164                 0.0216                 0.0392
 IR Inten    --      2.6094                 2.5338                 0.5792

                      4                      5                      6
                      A                      A                      A
 Frequencies --    217.1639               232.6300               265.8198
 Red. masses --      5.8203                 4.5430                 2.4801
 Frc consts  --      0.1617                 0.1449                 0.1033
 IR Inten    --      4.8608                 0.9463                 0.8033

                      7                      8                      9
                      A                      A                      A
 Frequencies --    305.4106               351.3194               362.1902
 Red. masses --      3.7026                 2.0705                 1.1865
 Frc consts  --      0.2035                 0.1506                 0.0917
 IR Inten    --      0.9254                11.1310               107.1964

                     10                     11                     12
                      A                      A                      A
 Frequencies --    423.8819               490.6050               532.4149
 Red. masses --      4.3272                 4.7834                 4.6306
 Frc consts  --      0.4581                 0.6783                 0.7734
 IR Inten    --      3.6376                 6.2288                 3.5655

                     13                     14                     15
                      A                      A                      A
 Frequencies --    596.4575               618.5380               639.8862
 Red. masses --      5.3099                 1.1165                 1.2410
 Frc consts  --      1.1130                 0.2517                 0.2994
 IR Inten    --      9.4831                84.7508                54.2246

                     16                     17                     18
                      A                      A                      A
 Frequencies --    660.7742               775.9862               804.4459
 Red. masses --      1.2392                 1.0532                 3.0129
 Frc consts  --      0.3188                 0.3737                 1.1488
 IR Inten    --     37.9537                 0.8561                 8.7567

                     19                     20                     21
                      A                      A                      A
 Frequencies --    879.8076               929.2690               936.1779
 Red. masses --      2.6272                 1.6725                 1.6668
 Frc consts  --      1.1982                 0.8510                 0.8607
 IR Inten    --      3.2719                 3.7082                 0.7370

                     22                     23                     24
                      A                      A                      A
 Frequencies --    964.7188               989.9511              1026.0572
 Red. masses --      3.0231                 2.3960                 2.9513
 Frc consts  --      1.6577                 1.3835                 1.8307
 IR Inten    --      5.7535                17.4403               113.5571

                     25                     26                     27
                      A                      A                      A
 Frequencies --   1043.9867              1054.4012              1069.2982
 Red. masses --      2.7095                 1.8677                 2.6377
 Frc consts  --      1.7399                 1.2234                 1.7770
 IR Inten    --     12.2067                32.3153                93.8592

                     28                     29                     30
                      A                      A                      A
 Frequencies --   1082.8891              1186.0579              1212.3397
 Red. masses --      1.4326                 1.3054                 1.2996
 Frc consts  --      0.9898                 1.0819                 1.1254
 IR Inten    --      0.6130                 0.6903                20.1584

                     31                     32                     33
                      A                      A                      A
 Frequencies --   1243.0459              1308.9397              1324.5156
 Red. masses --      1.4777                 1.3842                 2.3976
 Frc consts  --      1.3453                 1.3973                 2.4782
 IR Inten    --      4.3135                20.6294                 6.4325

                     34                     35                     36
                      A                      A                      A
 Frequencies --   1360.4597              1396.4245              1420.9560
 Red. masses --      1.5005                 1.1801                 1.5168
 Frc consts  --      1.6363                 1.3558                 1.8044
 IR Inten    --      6.5266                18.6777                23.7623

                     37                     38                     39
                      A                      A                      A
 Frequencies --   1452.4920              1471.8787              1494.4510
 Red. masses --      1.1788                 1.0878                 1.1378
 Frc consts  --      1.4653                 1.3885                 1.4972
 IR Inten    --     71.7801                10.6962                 3.0904

                     40                     41                     42
                      A                      A                      A
 Frequencies --   1508.1096              2220.1696              3027.3309
 Red. masses --      1.2843                 5.9150                 1.0587
 Frc consts  --      1.7210                17.1781                 5.7165
 IR Inten    --      2.3644                 0.7111                34.8389

                     43                     44                     45
                      A                      A                      A
 Frequencies --   3036.1700              3075.7762              3126.3726
 Red. masses --      1.0834                 1.1071                 1.0532
 Frc consts  --      5.8842                 6.1710                 6.0650
 IR Inten    --     15.3651                30.2199                14.8030

                     46                     47                     48
                      A                      A                      A
 Frequencies --   3134.5977              3205.2362              3222.2575
 Red. masses --      1.0564                 1.1173                 1.1157
 Frc consts  --      6.1155                 6.7632                 6.8255
 IR Inten    --     11.8425                 2.0452                11.9336

                     49                     50                     51
                      A                      A                      A
 Frequencies --   3498.7108              3719.5369              3809.1827
 Red. masses --      1.1614                 1.0657                 1.0664
 Frc consts  --      8.3759                 8.6868                 9.1167
 IR Inten    --     65.6658                98.1573                43.2352

 - Thermochemistry -
 -------------------
 Temperature   298.150 Kelvin.  Pressure   1.00000 Atm.
 Atom     1 has atomic number  8 and mass  15.99491

 Molecular mass:   126.06808 amu.
 Principal axes and moments of inertia in atomic units:
                           1         2         3
     Eigenvalues --   857.529181311.481261428.56680
           X            0.99965   0.02576  -0.00658
           Y           -0.02593   0.99928  -0.02786
           Z            0.00586   0.02802   0.99959
 This molecule is an asymmetric top.
 Rotational symmetry number  1.
 Warning -- assumption of classical behavior for rotation
           may cause significant error
 Rotational temperatures (Kelvin)      0.10100     0.06604     0.06063
 Rotational constants (GHZ):           2.10458     1.37611     1.26332
 Zero-point vibrational energy     412935.7 (Joules/Mol)
                                   98.69400 (Kcal/Mol)
 Warning -- explicit consideration of  14 degrees of freedom as
           vibrations may cause significant error
 Vibrational temperatures:    111.62   148.17   212.66   312.45   334.70
          (Kelvin)            382.45   439.42   505.47   521.11   609.87
                              705.87   766.03   858.17   889.94   920.65
                              950.71  1116.47  1157.42  1265.85  1337.01
                             1346.95  1388.01  1424.32  1476.27  1502.06
                             1517.05  1538.48  1558.03  1706.47  1744.28
                             1788.46  1883.27  1905.68  1957.40  2009.14
                             2044.44  2089.81  2117.70  2150.18  2169.83
                             3194.32  4355.65  4368.37  4425.35  4498.15
                             4509.98  4611.61  4636.10  5033.86  5351.58
                             5480.56

 Zero-point correction=                           0.157279 (Hartree/Particle)
 Thermal correction to Energy=                    0.166857
 Thermal correction to Enthalpy=                  0.167801
 Thermal correction to Gibbs Free Energy=         0.123191
 Sum of electronic and zero-point Energies=           -422.965892
 Sum of electronic and thermal Energies=              -422.956314
 Sum of electronic and thermal Enthalpies=            -422.955370
 Sum of electronic and thermal Free Energies=         -422.999980

                     E (Thermal)             CV                S
                      KCal/Mol        Cal/Mol-Kelvin    Cal/Mol-Kelvin
 Total                  104.704             36.369             93.890
 Electronic               0.000              0.000              0.000
 Translational            0.889              2.981             40.409
 Rotational               0.889              2.981             28.865
 Vibrational            102.927             30.408             24.617
 Vibration     1          0.599              1.964              3.951
 Vibration     2          0.605              1.947              3.397
 Vibration     3          0.617              1.905              2.700
 Vibration     4          0.646              1.815              1.983
 Vibration     5          0.653              1.791              1.859
 Vibration     6          0.672              1.736              1.623
 Vibration     7          0.696              1.663              1.387
 Vibration     8          0.728              1.573              1.160
 Vibration     9          0.736              1.550              1.113
 Vibration    10          0.786              1.418              0.879
 Vibration    11          0.846              1.271              0.682
 Vibration    12          0.887              1.178              0.582
 Vibration    13          0.954              1.039              0.456
 Vibration    14          0.978              0.993              0.419

 Optimization completed.
    -- Stationary point found.
 Normal termination of Gaussian 09 at Tue Jan 28 10:06:44 2020.
