 Gaussian 09, Revision D.01,
 Gaussian 09:  ES64L-G09RevD.01 24-Apr-2013

 -----------------------------
 # b3lyp 6-31G(2df,p) opt Freq
 -----------------------------

 -----
 titel
 -----
 Symbolic Z-matrix:
 Charge =  0 Multiplicity = 1

 SCF Done:  E(RB3LYP) =  -423.176820392     A.U. after   13 cycles
 Optimization completed.
    -- Stationary point found.
 Normal termination of Gaussian 09 at Tue Jan 28 00:03:43 2020.

 ----------------------------------------------------------------------
 #N Geom=AllCheck Guess=TCheck SCRF=Check GenChk RB3LYP/6-31G(2df,p) Fr
 eq
 ----------------------------------------------------------------------

 Structure from the checkpoint file:  "/scratch/puck/g09_47cff324-bdce-44da-8aaf-6b5370b15825/Gau-116680.chk"
 -----
 titel
 -----
 Charge =  0 Multiplicity = 1

                         Standard orientation:
 ---------------------------------------------------------------------
 Center     Atomic      Atomic             Coordinates (Angstroms)
 Number     Number       Type             X           Y           Z
 ---------------------------------------------------------------------
      1          8           0       -1.570525   -1.155948   -0.805452
      2          6           0       -1.435462   -0.082744    0.156865
      3          6           0       -0.654259   -0.665351    1.308982
      4          6           0        0.676873   -0.710192    1.272676
      5          6           0        1.445850   -0.188246    0.076944
      6          8           0        1.568654   -1.213714   -0.911929
      7          6           0        0.783378    1.039023   -0.527953
      8          6           0        0.089290    2.071134    0.325644
      9          6           0       -0.722726    1.091682   -0.487842
     10          1           0       -2.069754   -0.813238   -1.556127
     11          1           0       -2.437426    0.217727    0.494773
     12          1           0       -1.213907   -1.097271    2.132471
     13          1           0        1.241189   -1.180848    2.072305
     14          1           0        2.475564    0.048389    0.365757
     15          1           0        0.661525   -1.479982   -1.123968
     16          1           0        1.275305    1.386242   -1.430999
     17          1           0        0.110448    1.948508    1.402195
     18          1           0        0.112352    3.101520   -0.011962
     19          1           0       -1.237996    1.494415   -1.357289
 ---------------------------------------------------------------------

 SCF Done:  E(RB3LYP) =  -423.176820392     A.U. after    1 cycles

 The electronic state is 1-A.
 Alpha  occ. eigenvalues --  -19.14648 -19.11782 -10.24278 -10.22995 -10.19382
 Alpha  occ. eigenvalues --  -10.18795 -10.18763 -10.18656 -10.18566  -1.02360
 Alpha  occ. eigenvalues --   -1.00057  -0.87089  -0.78538  -0.72127  -0.65533
 Alpha  occ. eigenvalues --   -0.60018  -0.58759  -0.53574  -0.51675  -0.49802
 Alpha  occ. eigenvalues --   -0.47740  -0.44787  -0.44202  -0.41668  -0.40018
 Alpha  occ. eigenvalues --   -0.38766  -0.36907  -0.34019  -0.32356  -0.30116
 Alpha  occ. eigenvalues --   -0.28207  -0.27958  -0.26636  -0.24682
 Alpha virt. eigenvalues --   -0.00054   0.06833   0.09812   0.11044   0.12447
 Alpha virt. eigenvalues --    0.14174   0.14911   0.15566   0.16266   0.17516
 Alpha virt. eigenvalues --    0.18852   0.19225   0.21149   0.23079   0.24828

 Mulliken charges:
               1
     1  O   -0.430710
     2  C    0.043442
     3  C   -0.063431
     4  C   -0.084817
     5  C    0.079085
     6  O   -0.441833
     7  C   -0.039695
     8  C   -0.325454
     9  C   -0.048360
    10  H    0.280776
    11  H    0.072206
    12  H    0.097930
    13  H    0.099074
    14  H    0.081780
    15  H    0.281544
    16  H    0.092265
    17  H    0.119240
    18  H    0.110576
    19  H    0.076383
 Sum of Mulliken charges =   0.00000

 Dipole moment (field-independent basis, Debye):
    X=             -1.9138    Y=              1.8560    Z=              0.2863  Tot=              2.6813
 Quadrupole moment (field-independent basis, Debye-Ang):
   XX=            -52.3826   YY=            -55.8910   ZZ=            -49.5961
   XY=              1.3889   XZ=              4.5552   YZ=             -2.7337

  Exact polarizability:  83.369  -0.398  71.624   1.302  -2.146  71.127
 Approx polarizability: 132.359  -1.763 102.184   0.749   2.246 106.199

                      1                      2                      3
                      A                      A                      A
 Frequencies --     93.1889               197.5760               240.1240
 Red. masses --      5.0427                 3.7310                 4.3877
 Frc consts  --      0.0258                 0.0858                 0.1491
 IR Inten    --      0.5195                 0.5201                 9.8347

                      4                      5                      6
                      A                      A                      A
 Frequencies --    294.7735               320.7680               364.9951
 Red. masses --      2.8256                 1.1979                 4.0518
 Frc consts  --      0.1447                 0.0726                 0.3180
 IR Inten    --      0.5830                78.8600                 1.8489

                      7                      8                      9
                      A                      A                      A
 Frequencies --    375.7199               506.1961               548.6156
 Red. masses --      2.4909                 2.8612                 1.5324
 Frc consts  --      0.2072                 0.4319                 0.2717
 IR Inten    --     10.5426                 2.5998                70.2922

                     10                     11                     12
                      A                      A                      A
 Frequencies --    570.0058               599.8611               607.0334
 Red. masses --      2.6402                 3.2831                 4.1504
 Frc consts  --      0.5054                 0.6960                 0.9011
 IR Inten    --     32.7688                 3.6622                 5.7196

                     13                     14                     15
                      A                      A                      A
 Frequencies --    754.4852               775.2791               790.6442
 Red. masses --      1.9597                 1.7297                 3.0815
 Frc consts  --      0.6573                 0.6125                 1.1350
 IR Inten    --      3.8885                 5.2071                 5.7254

                     16                     17                     18
                      A                      A                      A
 Frequencies --    844.8836               921.6108               928.9871
 Red. masses --      1.4946                 2.4732                 2.3567
 Frc consts  --      0.6286                 1.2377                 1.1983
 IR Inten    --      3.8260                18.1164                13.4222

                     19                     20                     21
                      A                      A                      A
 Frequencies --    948.2001               998.4263              1014.4112
 Red. masses --      3.1040                 1.3134                 4.8348
 Frc consts  --      1.6443                 0.7714                 2.9313
 IR Inten    --      2.1811                 1.3146                31.9575

                     22                     23                     24
                      A                      A                      A
 Frequencies --   1022.5584              1035.8509              1065.6336
 Red. masses --      2.6027                 4.6943                 2.8858
 Frc consts  --      1.6034                 2.9677                 1.9308
 IR Inten    --     21.0477               129.2102                10.3336

                     25                     26                     27
                      A                      A                      A
 Frequencies --   1071.9088              1110.5636              1129.6989
 Red. masses --      1.2736                 1.3769                 1.3539
 Frc consts  --      0.8622                 1.0005                 1.0180
 IR Inten    --      8.4798                 6.0882                 1.2627

                     28                     29                     30
                      A                      A                      A
 Frequencies --   1135.0475              1191.8820              1210.5539
 Red. masses --      1.2565                 1.1236                 1.3172
 Frc consts  --      0.9538                 0.9404                 1.1372
 IR Inten    --      3.3303                 0.7413                 3.5362

                     31                     32                     33
                      A                      A                      A
 Frequencies --   1237.8584              1292.8680              1340.2487
 Red. masses --      1.1048                 1.2007                 1.2446
 Frc consts  --      0.9974                 1.1825                 1.3172
 IR Inten    --     57.7651                11.6151                 4.2345

                     34                     35                     36
                      A                      A                      A
 Frequencies --   1351.4917              1361.8342              1387.9784
 Red. masses --      1.5591                 1.9002                 1.7869
 Frc consts  --      1.6778                 2.0763                 2.0282
 IR Inten    --      8.6125                 4.1174                14.3974

                     37                     38                     39
                      A                      A                      A
 Frequencies --   1408.0448              1441.0618              1461.4324
 Red. masses --      1.4882                 1.5226                 1.2403
 Frc consts  --      1.7384                 1.8630                 1.5607
 IR Inten    --      1.7801                 2.7033                88.6666

                     40                     41                     42
                      A                      A                      A
 Frequencies --   1492.2964              1709.9791              2997.5106
 Red. masses --      1.4333                 6.5186                 1.0841
 Frc consts  --      1.8806                11.2301                 5.7393
 IR Inten    --      5.8249                 0.5711                60.9662

                     43                     44                     45
                      A                      A                      A
 Frequencies --   3051.2900              3123.1933              3139.2417
 Red. masses --      1.0852                 1.0869                 1.0557
 Frc consts  --      5.9528                 6.2465                 6.1298
 IR Inten    --     40.0557                23.7085                15.0052

                     46                     47                     48
                      A                      A                      A
 Frequencies --   3160.5413              3164.0698              3187.0756
 Red. masses --      1.0899                 1.0848                 1.0987
 Frc consts  --      6.4144                 6.3989                 6.5753
 IR Inten    --     13.4741                 7.7565                22.6697

                     49                     50                     51
                      A                      A                      A
 Frequencies --   3226.1525              3721.7066              3790.1403
 Red. masses --      1.1153                 1.0662                 1.0659
 Frc consts  --      6.8393                 8.7010                 9.0215
 IR Inten    --      7.9849                48.0996                12.1540

 - Thermochemistry -
 -------------------
 Temperature   298.150 Kelvin.  Pressure   1.00000 Atm.
 Atom     1 has atomic number  8 and mass  15.99491

 Molecular mass:   126.06808 amu.
 Principal axes and moments of inertia in atomic units:
                           1         2         3
     Eigenvalues --   889.28133 951.542031196.36114
           X            0.99890   0.04004   0.02461
           Y           -0.03894   0.99830  -0.04337
           Z           -0.02630   0.04237   0.99876
 This molecule is an asymmetric top.
 Rotational symmetry number  1.
 Warning -- assumption of classical behavior for rotation
           may cause significant error
 Rotational temperatures (Kelvin)      0.09740     0.09102     0.07240
 Rotational constants (GHZ):           2.02944     1.89665     1.50853
 Zero-point vibrational energy     422972.6 (Joules/Mol)
                                  101.09288 (Kcal/Mol)
 Warning -- explicit consideration of  12 degrees of freedom as
           vibrations may cause significant error
 Vibrational temperatures:    134.08   284.27   345.48   424.11   461.51
          (Kelvin)            525.15   540.58   728.30   789.33   820.11
                              863.07   873.38  1085.53  1115.45  1137.56
                             1215.60  1325.99  1336.60  1364.25  1436.51
                             1459.51  1471.23  1490.36  1533.21  1542.24
                             1597.85  1625.38  1633.08  1714.85  1741.71
                             1781.00  1860.15  1928.32  1944.49  1959.37
                             1996.99  2025.86  2073.36  2102.67  2147.08
                             2460.28  4312.74  4390.12  4493.57  4516.66
                             4547.31  4552.39  4585.49  4641.71  5354.70
                             5453.16

 Zero-point correction=                           0.161102 (Hartree/Particle)
 Thermal correction to Energy=                    0.169003
 Thermal correction to Enthalpy=                  0.169947
 Thermal correction to Gibbs Free Energy=         0.129066
 Sum of electronic and zero-point Energies=           -423.015719
 Sum of electronic and thermal Energies=              -423.007818
 Sum of electronic and thermal Enthalpies=            -423.006874
 Sum of electronic and thermal Free Energies=         -423.047755

                     E (Thermal)             CV                S
                      KCal/Mol        Cal/Mol-Kelvin    Cal/Mol-Kelvin
 Total                  106.051             31.930             86.041
 Electronic               0.000              0.000              0.000
 Translational            0.889              2.981             40.409
 Rotational               0.889              2.981             28.406
 Vibrational            104.273             25.968             17.227
 Vibration     1          0.602              1.954              3.592
 Vibration     2          0.637              1.843              2.156
 Vibration     3          0.657              1.779              1.802
 Vibration     4          0.689              1.683              1.446
 Vibration     5          0.706              1.634              1.306
 Vibration     6          0.738              1.544              1.101
 Vibration     7          0.747              1.522              1.056
 Vibration     8          0.861              1.236              0.643
 Vibration     9          0.904              1.143              0.547
 Vibration    10          0.926              1.096              0.504
 Vibration    11          0.958              1.032              0.450
 Vibration    12          0.966              1.017              0.438

 Optimization completed.
    -- Stationary point found.
 Normal termination of Gaussian 09 at Tue Jan 28 01:00:18 2020.
