 Gaussian 09, Revision D.01,
 Gaussian 09:  ES64L-G09RevD.01 24-Apr-2013

 -----------------------------
 # b3lyp 6-31G(2df,p) opt Freq
 -----------------------------

 -----
 titel
 -----
 Symbolic Z-matrix:
 Charge =  0 Multiplicity = 1

 SCF Done:  E(RB3LYP) =  -423.169739055     A.U. after   15 cycles
 Optimization completed.
    -- Stationary point found.
 Normal termination of Gaussian 09 at Tue Jan 28 12:01:05 2020.

 ----------------------------------------------------------------------
 #N Geom=AllCheck Guess=TCheck SCRF=Check GenChk RB3LYP/6-31G(2df,p) Fr
 eq
 ----------------------------------------------------------------------

 Structure from the checkpoint file:  "/scratch/puck/g09_abb57873-bc45-447b-8c00-3b6a9bb6ac7d/Gau-138991.chk"
 -----
 titel
 -----
 Charge =  0 Multiplicity = 1

                         Standard orientation:
 ---------------------------------------------------------------------
 Center     Atomic      Atomic             Coordinates (Angstroms)
 Number     Number       Type             X           Y           Z
 ---------------------------------------------------------------------
      1          6           0       -4.200819    0.309000    0.001813
      2          6           0       -2.681306    0.483138    0.011220
      3          6           0       -1.941021   -0.870178    0.003200
      4          6           0       -0.491060   -0.747700    0.000858
      5          6           0        0.713727   -0.645108   -0.009671
      6          6           0        2.160498   -0.543086   -0.001000
      7          8           0        2.887051   -1.510733   -0.055440
      8          6           0        2.722353    0.876195    0.132475
      9          8           0        1.815784    1.910142   -0.164444
     10          1           0       -4.706159    1.278867    0.009198
     11          1           0       -4.533070   -0.233273   -0.890175
     12          1           0       -4.542670   -0.252091    0.878484
     13          1           0       -2.361704    1.066299   -0.859336
     14          1           0       -2.372669    1.050451    0.896663
     15          1           0       -2.245237   -1.465771    0.874682
     16          1           0       -2.244944   -1.453907   -0.876307
     17          1           0        3.133636    0.954278    1.153999
     18          1           0        3.565763    0.963348   -0.558406
     19          1           0        0.990143    1.722956    0.296901
 ---------------------------------------------------------------------

 SCF Done:  E(RB3LYP) =  -423.169739055     A.U. after    1 cycles

 The electronic state is 1-A.
 Alpha  occ. eigenvalues --  -19.14376 -19.13640 -10.28779 -10.23840 -10.22651
 Alpha  occ. eigenvalues --  -10.21392 -10.20551 -10.19346 -10.19087  -1.04912
 Alpha  occ. eigenvalues --   -1.02602  -0.82828  -0.77489  -0.73151  -0.70519
 Alpha  occ. eigenvalues --   -0.62972  -0.61038  -0.52979  -0.49509  -0.48865
 Alpha  occ. eigenvalues --   -0.47421  -0.45182  -0.43521  -0.42955  -0.41782
 Alpha  occ. eigenvalues --   -0.39112  -0.38183  -0.36654  -0.35488  -0.35191
 Alpha  occ. eigenvalues --   -0.29628  -0.28480  -0.28287  -0.25047
 Alpha virt. eigenvalues --   -0.05573   0.02650   0.07136   0.09204   0.09841
 Alpha virt. eigenvalues --    0.12215   0.12433   0.12950   0.14462   0.15865
 Alpha virt. eigenvalues --    0.16815   0.17410   0.18973   0.20256   0.21632

 Mulliken charges:
               1
     1  C   -0.383785
     2  C   -0.163953
     3  C   -0.343937
     4  C    0.035417
     5  C    0.073875
     6  C    0.195539
     7  O   -0.276753
     8  C   -0.158112
     9  O   -0.411008
    10  H    0.122287
    11  H    0.121772
    12  H    0.120503
    13  H    0.119089
    14  H    0.110024
    15  H    0.143359
    16  H    0.145913
    17  H    0.120651
    18  H    0.145634
    19  H    0.283483
 Sum of Mulliken charges =   0.00000

 Dipole moment (field-independent basis, Debye):
    X=             -3.8355    Y=              0.8531    Z=              0.9356  Tot=              4.0391
 Quadrupole moment (field-independent basis, Debye-Ang):
   XX=            -52.8656   YY=            -60.1494   ZZ=            -52.0548
   XY=              4.8949   XZ=              1.3333   YZ=              1.4909

  Exact polarizability: 125.542  -0.872  70.371   0.006   0.744  56.536
 Approx polarizability: 175.904  -5.920 103.885  -1.500   0.714  85.905

                      1                      2                      3
                      A                      A                      A
 Frequencies --     25.2777                51.4306                62.2331
 Red. masses --      2.3681                 5.0837                 1.9573
 Frc consts  --      0.0009                 0.0079                 0.0045
 IR Inten    --      0.7957                 0.1503                 3.3812

                      4                      5                      6
                      A                      A                      A
 Frequencies --     74.4771               147.6815               159.8664
 Red. masses --      2.5449                 4.3251                 4.1603
 Frc consts  --      0.0083                 0.0556                 0.0626
 IR Inten    --      0.9598                 2.7741                 0.1058

                      7                      8                      9
                      A                      A                      A
 Frequencies --    247.1837               249.8596               278.0410
 Red. masses --      1.0845                 1.4611                 3.1582
 Frc consts  --      0.0390                 0.0537                 0.1438
 IR Inten    --      0.0143                89.2946                63.2939

                     10                     11                     12
                      A                      A                      A
 Frequencies --    316.3605               388.4617               440.3586
 Red. masses --      3.2043                 3.6677                 5.3612
 Frc consts  --      0.1890                 0.3261                 0.6125
 IR Inten    --     13.3350                 1.8525                 1.9730

                     13                     14                     15
                      A                      A                      A
 Frequencies --    503.5458               578.3909               655.3842
 Red. masses --      6.4551                 3.1812                 6.9719
 Frc consts  --      0.9643                 0.6270                 1.7644
 IR Inten    --     11.4354                 2.7871                 2.4805

                     16                     17                     18
                      A                      A                      A
 Frequencies --    667.7204               741.1804               868.0290
 Red. masses --      4.4917                 1.1172                 1.2453
 Frc consts  --      1.1799                 0.3616                 0.5528
 IR Inten    --     39.1998                 3.2416                 0.2327

                     19                     20                     21
                      A                      A                      A
 Frequencies --    886.6591               990.0251              1001.1269
 Red. masses --      2.0171                 2.0347                 4.4663
 Frc consts  --      0.9343                 1.1750                 2.6374
 IR Inten    --      0.5271                 8.4687                36.5896

                     22                     23                     24
                      A                      A                      A
 Frequencies --   1046.5114              1103.5880              1109.9038
 Red. masses --      2.7462                 4.2515                 2.0317
 Frc consts  --      1.7720                 3.0508                 1.4746
 IR Inten    --     14.2714                70.4356                 1.5044

                     25                     26                     27
                      A                      A                      A
 Frequencies --   1116.9572              1201.3342              1238.5517
 Red. masses --      1.4530                 1.6241                 2.3861
 Frc consts  --      1.0680                 1.3810                 2.1566
 IR Inten    --      0.7352                66.6741               105.1728

                     28                     29                     30
                      A                      A                      A
 Frequencies --   1256.9929              1303.1863              1321.3571
 Red. masses --      1.3099                 1.4156                 1.0804
 Frc consts  --      1.2194                 1.4164                 1.1114
 IR Inten    --      0.1619                37.5617                 0.0678

                     31                     32                     33
                      A                      A                      A
 Frequencies --   1343.6912              1380.0727              1412.3465
 Red. masses --      1.2646                 1.5042                 1.2598
 Frc consts  --      1.3453                 1.6879                 1.4806
 IR Inten    --      0.2821                 2.8204                39.6752

                     34                     35                     36
                      A                      A                      A
 Frequencies --   1417.0837              1459.6212              1472.7361
 Red. masses --      1.2335                 1.0820                 1.0730
 Frc consts  --      1.4595                 1.3581                 1.3712
 IR Inten    --      0.6814                 2.6990                 5.7226

                     37                     38                     39
                      A                      A                      A
 Frequencies --   1492.2010              1500.6627              1508.5053
 Red. masses --      1.0519                 1.0395                 1.0792
 Frc consts  --      1.3800                 1.3793                 1.4469
 IR Inten    --      1.1398                 6.1737                 3.9952

                     40                     41                     42
                      A                      A                      A
 Frequencies --   1767.8694              2320.0511              2961.9957
 Red. masses --     12.7776                11.9443                 1.0711
 Frc consts  --     23.5288                37.8795                 5.5366
 IR Inten    --    210.0918               177.3243                37.4208

                     43                     44                     45
                      A                      A                      A
 Frequencies --   3015.0478              3033.5838              3040.7099
 Red. masses --      1.0583                 1.0379                 1.0679
 Frc consts  --      5.6682                 5.6273                 5.8173
 IR Inten    --      5.8404                17.9388                22.6878

                     46                     47                     48
                      A                      A                      A
 Frequencies --   3043.6987              3076.1193              3095.1956
 Red. masses --      1.0891                 1.1028                 1.0890
 Frc consts  --      5.9445                 6.1481                 6.1467
 IR Inten    --      8.1990                 3.8767                 9.7428

                     49                     50                     51
                      A                      A                      A
 Frequencies --   3103.8418              3112.2377              3794.2231
 Red. masses --      1.1032                 1.1006                 1.0656
 Frc consts  --      6.2617                 6.2809                 9.0384
 IR Inten    --     47.2734                25.9611                29.4190

 - Thermochemistry -
 -------------------
 Temperature   298.150 Kelvin.  Pressure   1.00000 Atm.
 Atom     1 has atomic number  6 and mass  12.00000

 Molecular mass:   126.06808 amu.
 Principal axes and moments of inertia in atomic units:
                           1         2         3
     Eigenvalues --   544.504852848.123273341.94108
           X            0.99996   0.00831   0.00222
           Y           -0.00833   0.99993   0.00809
           Z           -0.00216  -0.00811   0.99996
 This molecule is an asymmetric top.
 Rotational symmetry number  1.
 Warning -- assumption of classical behavior for rotation
           may cause significant error
 Rotational temperatures (Kelvin)      0.15907     0.03041     0.02592
 Rotational constants (GHZ):           3.31446     0.63366     0.54003
 Zero-point vibrational energy     409022.2 (Joules/Mol)
                                   97.75865 (Kcal/Mol)
 Warning -- explicit consideration of  14 degrees of freedom as
           vibrations may cause significant error
 Vibrational temperatures:     36.37    74.00    89.54   107.16   212.48
          (Kelvin)            230.01   355.64   359.49   400.04   455.17
                              558.91   633.58   724.49   832.17   942.95
                              960.70  1066.39  1248.90  1275.70  1424.42
                             1440.40  1505.69  1587.82  1596.90  1607.05
                             1728.45  1782.00  1808.53  1874.99  1901.14
                             1933.27  1985.61  2032.05  2038.86  2100.07
                             2118.94  2146.94  2159.12  2170.40  2543.57
                             3338.03  4261.65  4337.98  4364.65  4374.90
                             4379.20  4425.84  4453.29  4465.73  4477.81
                             5459.03

 Zero-point correction=                           0.155788 (Hartree/Particle)
 Thermal correction to Energy=                    0.166796
 Thermal correction to Enthalpy=                  0.167740
 Thermal correction to Gibbs Free Energy=         0.117190
 Sum of electronic and zero-point Energies=           -423.013951
 Sum of electronic and thermal Energies=              -423.002943
 Sum of electronic and thermal Enthalpies=            -423.001999
 Sum of electronic and thermal Free Energies=         -423.052549

                     E (Thermal)             CV                S
                      KCal/Mol        Cal/Mol-Kelvin    Cal/Mol-Kelvin
 Total                  104.666             36.984            106.392
 Electronic               0.000              0.000              0.000
 Translational            0.889              2.981             40.409
 Rotational               0.889              2.981             30.028
 Vibrational            102.889             31.023             35.955
 Vibration     1          0.593              1.985              6.169
 Vibration     2          0.596              1.977              4.762
 Vibration     3          0.597              1.972              4.385
 Vibration     4          0.599              1.966              4.031
 Vibration     5          0.617              1.905              2.702
 Vibration     6          0.622              1.892              2.551
 Vibration     7          0.661              1.767              1.751
 Vibration     8          0.663              1.763              1.732
 Vibration     9          0.679              1.714              1.546
 Vibration    10          0.703              1.642              1.329
 Vibration    11          0.757              1.495              1.006
 Vibration    12          0.800              1.382              0.825
 Vibration    13          0.859              1.242              0.649
 Vibration    14          0.935              1.078              0.488

 Optimization completed.
    -- Stationary point found.
 Normal termination of Gaussian 09 at Tue Jan 28 12:31:12 2020.
