 Gaussian 09, Revision D.01,
 Gaussian 09:  ES64L-G09RevD.01 24-Apr-2013

 -----------------------------
 # b3lyp 6-31G(2df,p) opt Freq
 -----------------------------

 -----
 titel
 -----
 Symbolic Z-matrix:
 Charge =  0 Multiplicity = 1

 SCF Done:  E(RB3LYP) =  -423.123970038     A.U. after   12 cycles
 Optimization completed.
    -- Stationary point found.
 Normal termination of Gaussian 09 at Mon Jan 27 17:26:42 2020.

 ----------------------------------------------------------------------
 #N Geom=AllCheck Guess=TCheck SCRF=Check GenChk RB3LYP/6-31G(2df,p) Fr
 eq
 ----------------------------------------------------------------------

 Structure from the checkpoint file:  "/scratch/puck/g09_4397d6a8-44f4-42f7-b590-77267cac012d/Gau-39824.chk"
 -----
 titel
 -----
 Charge =  0 Multiplicity = 1

                         Standard orientation:
 ---------------------------------------------------------------------
 Center     Atomic      Atomic             Coordinates (Angstroms)
 Number     Number       Type             X           Y           Z
 ---------------------------------------------------------------------
      1          8           0        2.417153    0.254002   -0.766412
      2          6           0        1.218949   -0.047730   -0.140415
      3          6           0        1.145266   -0.414737    1.310504
      4          6           0        0.434820    0.834884    0.826721
      5          6           0       -0.877184    0.514921    0.068166
      6          8           0       -1.628801    1.622319   -0.333640
      7          6           0       -1.750297   -0.694487    0.494441
      8          6           0       -0.939231   -1.618783   -0.474241
      9          6           0       -0.078139   -0.399111   -0.917790
     10          1           0        2.949479   -0.548421   -0.807163
     11          1           0        0.601005   -1.279809    1.677485
     12          1           0        2.059529   -0.202141    1.857396
     13          1           0        0.668944    1.805553    1.251948
     14          1           0       -1.021213    2.298198   -0.654916
     15          1           0       -1.739755   -0.955444    1.555396
     16          1           0       -2.785861   -0.549608    0.180345
     17          1           0       -0.391609   -2.439604   -0.004069
     18          1           0       -1.545396   -2.035109   -1.281419
     19          1           0       -0.027048   -0.153932   -1.978901
 ---------------------------------------------------------------------

 SCF Done:  E(RB3LYP) =  -423.123970038     A.U. after    1 cycles

 The electronic state is 1-A.
 Alpha  occ. eigenvalues --  -19.14794 -19.13864 -10.24090 -10.23202 -10.18870
 Alpha  occ. eigenvalues --  -10.18753 -10.17937 -10.17577 -10.17400  -1.03443
 Alpha  occ. eigenvalues --   -1.02284  -0.89002  -0.79541  -0.67808  -0.65973
 Alpha  occ. eigenvalues --   -0.58962  -0.58314  -0.54501  -0.51467  -0.49417
 Alpha  occ. eigenvalues --   -0.48222  -0.43809  -0.42422  -0.40807  -0.39469
 Alpha  occ. eigenvalues --   -0.37701  -0.35509  -0.33918  -0.33690  -0.32251
 Alpha  occ. eigenvalues --   -0.29662  -0.26066  -0.25937  -0.22633
 Alpha virt. eigenvalues --    0.07648   0.08039   0.09336   0.09858   0.10379
 Alpha virt. eigenvalues --    0.13121   0.14622   0.15574   0.17354   0.18011
 Alpha virt. eigenvalues --    0.18363   0.18830   0.20959   0.21876   0.24442

 Mulliken charges:
               1
     1  O   -0.464717
     2  C    0.388057
     3  C   -0.360440
     4  C   -0.208579
     5  C    0.459657
     6  O   -0.483642
     7  C   -0.279028
     8  C   -0.248346
     9  C   -0.167969
    10  H    0.284251
    11  H    0.111950
    12  H    0.114376
    13  H    0.088822
    14  H    0.279018
    15  H    0.099243
    16  H    0.113698
    17  H    0.096926
    18  H    0.102805
    19  H    0.073917
 Sum of Mulliken charges =   0.00000

 Dipole moment (field-independent basis, Debye):
    X=              1.3158    Y=             -1.0817    Z=              0.1644  Tot=              1.7113
 Quadrupole moment (field-independent basis, Debye-Ang):
   XX=            -54.7757   YY=            -50.3188   ZZ=            -52.7605
   XY=             -1.2901   XZ=              1.1488   YZ=              0.1205

  Exact polarizability:  80.649   0.586  73.639   1.329   0.275  69.112
 Approx polarizability: 112.358  -2.817 110.523  -1.329  -0.703 105.079

                      1                      2                      3
                      A                      A                      A
 Frequencies --    139.8749               223.8228               245.1883
 Red. masses --      3.6916                 1.7221                 1.2825
 Frc consts  --      0.0426                 0.0508                 0.0454
 IR Inten    --      2.8643                37.8058                44.5132

                      4                      5                      6
                      A                      A                      A
 Frequencies --    279.9109               307.0605               340.5342
 Red. masses --      3.0529                 1.6124                 2.1893
 Frc consts  --      0.1409                 0.0896                 0.1496
 IR Inten    --      0.9675                39.6824                45.0950

                      7                      8                      9
                      A                      A                      A
 Frequencies --    359.8302               398.5097               466.1731
 Red. masses --      2.9942                 3.6783                 2.2768
 Frc consts  --      0.2284                 0.3442                 0.2915
 IR Inten    --     25.0188                10.6028                 7.7702

                     10                     11                     12
                      A                      A                      A
 Frequencies --    483.3633               589.3778               629.8668
 Red. masses --      2.6828                 4.1013                 2.9294
 Frc consts  --      0.3693                 0.8394                 0.6847
 IR Inten    --      1.5861                 6.5871                 2.5890

                     13                     14                     15
                      A                      A                      A
 Frequencies --    723.6672               752.6430               805.4024
 Red. masses --      2.2313                 1.7146                 2.5695
 Frc consts  --      0.6885                 0.5723                 0.9820
 IR Inten    --      2.1986                 0.7216                15.2364

                     16                     17                     18
                      A                      A                      A
 Frequencies --    840.0379               891.0781               926.9582
 Red. masses --      2.4428                 1.9062                 1.9701
 Frc consts  --      1.0156                 0.8918                 0.9974
 IR Inten    --      3.9984                 5.6173                13.3686

                     19                     20                     21
                      A                      A                      A
 Frequencies --    938.8628               955.2910               980.8164
 Red. masses --      2.2156                 1.8075                 2.2028
 Frc consts  --      1.1506                 0.9719                 1.2485
 IR Inten    --      1.3023                 3.0306                 4.2477

                     22                     23                     24
                      A                      A                      A
 Frequencies --    992.4586              1019.6830              1028.7170
 Red. masses --      1.4137                 2.2432                 1.9739
 Frc consts  --      0.8204                 1.3742                 1.2308
 IR Inten    --     16.0109                21.5911                22.8095

                     25                     26                     27
                      A                      A                      A
 Frequencies --   1075.7780              1093.9808              1097.9156
 Red. masses --      1.3999                 1.7415                 2.4391
 Frc consts  --      0.9545                 1.2280                 1.7323
 IR Inten    --      8.1745                 5.2078                 4.2996

                     28                     29                     30
                      A                      A                      A
 Frequencies --   1120.0965              1190.6537              1212.8708
 Red. masses --      1.7544                 1.6215                 1.6297
 Frc consts  --      1.2968                 1.3544                 1.4125
 IR Inten    --     32.1207                80.7958                23.5860

                     31                     32                     33
                      A                      A                      A
 Frequencies --   1218.0941              1239.8237              1255.3088
 Red. masses --      1.6998                 1.5796                 1.5493
 Frc consts  --      1.4860                 1.4306                 1.4385
 IR Inten    --     13.5900                 8.1776                 4.1145

                     34                     35                     36
                      A                      A                      A
 Frequencies --   1270.6756              1296.9827              1342.2809
 Red. masses --      1.9630                 1.4510                 2.5590
 Frc consts  --      1.8674                 1.4381                 2.7165
 IR Inten    --     39.7244                63.8980               107.8013

                     37                     38                     39
                      A                      A                      A
 Frequencies --   1368.0590              1402.5215              1469.4877
 Red. masses --      1.8803                 2.0028                 1.0853
 Frc consts  --      2.0734                 2.3212                 1.3808
 IR Inten    --     40.2492                19.1431                 1.2802

                     40                     41                     42
                      A                      A                      A
 Frequencies --   1487.1618              1504.6502              3061.3097
 Red. masses --      1.2137                 1.2851                 1.0585
 Frc consts  --      1.5816                 1.7142                 5.8443
 IR Inten    --      5.4403                12.7477                35.5543

                     43                     44                     45
                      A                      A                      A
 Frequencies --   3068.7053              3104.6048              3116.5891
 Red. masses --      1.0606                 1.1041                 1.0919
 Frc consts  --      5.8847                 6.2701                 6.2490
 IR Inten    --     32.3406                 3.5934                15.4020

                     46                     47                     48
                      A                      A                      A
 Frequencies --   3117.8200              3128.8439              3164.2211
 Red. masses --      1.0547                 1.1057                 1.0939
 Frc consts  --      6.0405                 6.3776                 6.4532
 IR Inten    --     10.8891                37.7903                11.6852

                     49                     50                     51
                      A                      A                      A
 Frequencies --   3199.6153              3787.5538              3795.6884
 Red. masses --      1.1148                 1.0662                 1.0656
 Frc consts  --      6.7239                 9.0113                 9.0456
 IR Inten    --     11.1777                19.9398                15.2882

 - Thermochemistry -
 -------------------
 Temperature   298.150 Kelvin.  Pressure   1.00000 Atm.
 Atom     1 has atomic number  8 and mass  15.99491

 Molecular mass:   126.06808 amu.
 Principal axes and moments of inertia in atomic units:
                           1         2         3
     Eigenvalues --   681.122901177.882281337.57725
           X            0.99960   0.02415   0.01492
           Y           -0.02415   0.99971   0.00006
           Z           -0.01491  -0.00042   0.99989
 This molecule is an asymmetric top.
 Rotational symmetry number  1.
 Warning -- assumption of classical behavior for rotation
           may cause significant error
 Rotational temperatures (Kelvin)      0.12716     0.07353     0.06475
 Rotational constants (GHZ):           2.64966     1.53219     1.34926
 Zero-point vibrational energy     415764.6 (Joules/Mol)
                                   99.37013 (Kcal/Mol)
 Warning -- explicit consideration of  11 degrees of freedom as
           vibrations may cause significant error
 Vibrational temperatures:    201.25   322.03   352.77   402.73   441.79
          (Kelvin)            489.95   517.71   573.37   670.72   695.45
                              847.98   906.24  1041.19  1082.88  1158.79
                             1208.63  1282.06  1333.68  1350.81  1374.45
                             1411.17  1427.92  1467.09  1480.09  1547.80
                             1573.99  1579.65  1611.57  1713.08  1745.05
                             1752.56  1783.83  1806.11  1828.22  1866.07
                             1931.24  1968.33  2017.91  2114.26  2139.69
                             2164.85  4404.54  4415.18  4466.83  4484.07
                             4485.84  4501.70  4552.60  4603.53  5449.44
                             5461.14

 Zero-point correction=                           0.158356 (Hartree/Particle)
 Thermal correction to Energy=                    0.166479
 Thermal correction to Enthalpy=                  0.167423
 Thermal correction to Gibbs Free Energy=         0.126429
 Sum of electronic and zero-point Energies=           -422.965614
 Sum of electronic and thermal Energies=              -422.957491
 Sum of electronic and thermal Enthalpies=            -422.956547
 Sum of electronic and thermal Free Energies=         -422.997541

                     E (Thermal)             CV                S
                      KCal/Mol        Cal/Mol-Kelvin    Cal/Mol-Kelvin
 Total                  104.467             33.152             86.279
 Electronic               0.000              0.000              0.000
 Translational            0.889              2.981             40.409
 Rotational               0.889              2.981             28.464
 Vibrational            102.690             27.190             17.406
 Vibration     1          0.615              1.913              2.806
 Vibration     2          0.649              1.805              1.928
 Vibration     3          0.660              1.771              1.765
 Vibration     4          0.680              1.711              1.534
 Vibration     5          0.697              1.660              1.378
 Vibration     6          0.720              1.594              1.210
 Vibration     7          0.734              1.555              1.123
 Vibration     8          0.765              1.473              0.968
 Vibration     9          0.824              1.325              0.748
 Vibration    10          0.840              1.287              0.701
 Vibration    11          0.947              1.054              0.468

 Normal termination of Gaussian 09 at Mon Jan 27 18:25:05 2020.
