 Gaussian 09, Revision D.01,
 Gaussian 09:  ES64L-G09RevD.01 24-Apr-2013

 -----------------------------
 # b3lyp 6-31G(2df,p) opt Freq
 -----------------------------

 -----
 titel
 -----
 Symbolic Z-matrix:
 Charge =  0 Multiplicity = 1

 SCF Done:  E(RB3LYP) =  -423.178234150     A.U. after   14 cycles
 Optimization completed.
    -- Stationary point found.
 Normal termination of Gaussian 09 at Tue Jan 28 00:06:03 2020.

 ----------------------------------------------------------------------
 #N Geom=AllCheck Guess=TCheck SCRF=Check GenChk RB3LYP/6-31G(2df,p) Fr
 eq
 ----------------------------------------------------------------------

 Structure from the checkpoint file:  "/scratch/puck/g09_3a38cc06-af2d-43e4-aeda-acb9ba0635b6/Gau-21328.chk"
 -----
 titel
 -----
 Charge =  0 Multiplicity = 1

                         Standard orientation:
 ---------------------------------------------------------------------
 Center     Atomic      Atomic             Coordinates (Angstroms)
 Number     Number       Type             X           Y           Z
 ---------------------------------------------------------------------
      1          6           0       -2.568908    0.059523    0.736470
      2          6           0       -1.414927    0.388580   -0.222192
      3          6           0       -1.027524   -0.783132   -1.104716
      4          6           0        0.221283   -1.210298   -0.910346
      5          6           0        0.944877   -0.405620    0.135164
      6          8           0        1.581933   -1.159368    1.135071
      7          6           0        1.814063    0.754561   -0.385174
      8          8           0        0.713268    1.678130   -0.257851
      9          6           0       -0.085903    0.720456    0.474718
     10          1           0       -2.835125    0.931229    1.342813
     11          1           0       -3.461734   -0.254469    0.186155
     12          1           0       -2.296005   -0.755707    1.415604
     13          1           0       -1.696326    1.252819   -0.837420
     14          1           0       -1.724618   -1.215479   -1.816252
     15          1           0        0.701894   -2.031826   -1.431734
     16          1           0        1.009693   -1.901120    1.359302
     17          1           0        2.637079    0.992238    0.301165
     18          1           0        2.189126    0.691851   -1.412307
     19          1           0       -0.183363    0.995946    1.531370
 ---------------------------------------------------------------------

 SCF Done:  E(RB3LYP) =  -423.178234151     A.U. after    1 cycles

 The electronic state is 1-A.
 Alpha  occ. eigenvalues --  -19.14608 -19.12961 -10.23990 -10.22316 -10.22269
 Alpha  occ. eigenvalues --  -10.19277 -10.19212 -10.18500 -10.18181  -1.04545
 Alpha  occ. eigenvalues --   -1.01832  -0.83525  -0.75463  -0.70124  -0.68189
 Alpha  occ. eigenvalues --   -0.62613  -0.55899  -0.54720  -0.52790  -0.48537
 Alpha  occ. eigenvalues --   -0.45591  -0.44477  -0.42854  -0.42566  -0.40017
 Alpha  occ. eigenvalues --   -0.38614  -0.36720  -0.35661  -0.34185  -0.33765
 Alpha  occ. eigenvalues --   -0.30798  -0.26773  -0.25222  -0.24592
 Alpha virt. eigenvalues --    0.00341   0.07434   0.09756   0.10605   0.12836
 Alpha virt. eigenvalues --    0.13607   0.14316   0.15527   0.16010   0.16785
 Alpha virt. eigenvalues --    0.17540   0.17974   0.19042   0.20871   0.21761

 Mulliken charges:
               1
     1  C   -0.403797
     2  C   -0.050115
     3  C   -0.058828
     4  C   -0.190313
     5  C    0.320784
     6  O   -0.473941
     7  C   -0.105523
     8  O   -0.297381
     9  C    0.051659
    10  H    0.121695
    11  H    0.117285
    12  H    0.111982
    13  H    0.099847
    14  H    0.099201
    15  H    0.099638
    16  H    0.277881
    17  H    0.105547
    18  H    0.103204
    19  H    0.071173
 Sum of Mulliken charges =   0.00000

 Dipole moment (field-independent basis, Debye):
    X=             -1.4484    Y=             -1.9061    Z=             -0.1468  Tot=              2.3985
 Quadrupole moment (field-independent basis, Debye-Ang):
   XX=            -52.7195   YY=            -54.1839   ZZ=            -52.4748
   XY=             -0.1687   XZ=             -1.6682   YZ=              0.8468

  Exact polarizability:  92.539  -2.132  68.990   0.257   3.304  67.736
 Approx polarizability: 132.394  -8.357 104.786   4.830   1.087 100.914

                      1                      2                      3
                      A                      A                      A
 Frequencies --     96.4855               185.0527               216.3393
 Red. masses --      3.5971                 2.5751                 1.4121
 Frc consts  --      0.0197                 0.0520                 0.0389
 IR Inten    --      0.2934                 0.5775                 1.1053

                      4                      5                      6
                      A                      A                      A
 Frequencies --    239.3892               313.1535               320.3432
 Red. masses --      1.9541                 1.2635                 2.3208
 Frc consts  --      0.0660                 0.0730                 0.1403
 IR Inten    --      0.7586                62.1092                15.1709

                      7                      8                      9
                      A                      A                      A
 Frequencies --    326.3556               388.8686               445.4156
 Red. masses --      2.9102                 3.4856                 3.0892
 Frc consts  --      0.1826                 0.3106                 0.3611
 IR Inten    --      4.3716                14.4561                 2.4388

                     10                     11                     12
                      A                      A                      A
 Frequencies --    566.3334               619.4927               676.2025
 Red. masses --      3.1642                 4.2082                 4.0134
 Frc consts  --      0.5979                 0.9515                 1.0812
 IR Inten    --      1.3589                 5.0661                 2.5562

                     13                     14                     15
                      A                      A                      A
 Frequencies --    734.6204               801.3002               862.2256
 Red. masses --      4.4028                 1.4224                 2.3123
 Frc consts  --      1.3999                 0.5381                 1.0128
 IR Inten    --      1.0299                36.2269                 4.0903

                     16                     17                     18
                      A                      A                      A
 Frequencies --    865.9335               919.7223               945.0499
 Red. masses --      3.1730                 1.8297                 1.7420
 Frc consts  --      1.4018                 0.9119                 0.9167
 IR Inten    --      4.2895                 1.0674                 9.3470

                     19                     20                     21
                      A                      A                      A
 Frequencies --    981.7893              1007.4870              1023.3714
 Red. masses --      1.2886                 4.1433                 3.9672
 Frc consts  --      0.7318                 2.4779                 2.4479
 IR Inten    --      1.1543                26.7411                58.7717

                     22                     23                     24
                      A                      A                      A
 Frequencies --   1033.2855              1039.8553              1096.6434
 Red. masses --      2.0400                 2.2898                 1.7815
 Frc consts  --      1.2833                 1.4588                 1.2623
 IR Inten    --      6.3688                12.7049                32.8880

                     25                     26                     27
                      A                      A                      A
 Frequencies --   1105.7528              1118.7912              1149.5790
 Red. masses --      1.4992                 1.6424                 1.4040
 Frc consts  --      1.0800                 1.2112                 1.0932
 IR Inten    --     43.0265                 4.9733                 0.3826

                     28                     29                     30
                      A                      A                      A
 Frequencies --   1180.3633              1202.1535              1256.7035
 Red. masses --      1.9577                 2.1530                 2.1748
 Frc consts  --      1.6071                 1.8332                 2.0237
 IR Inten    --     56.3965                10.0930                42.5436

                     31                     32                     33
                      A                      A                      A
 Frequencies --   1297.1662              1304.1175              1309.7398
 Red. masses --      1.2966                 1.6532                 1.3205
 Frc consts  --      1.2854                 1.6565                 1.3346
 IR Inten    --      4.1113                 6.8509                 8.1247

                     34                     35                     36
                      A                      A                      A
 Frequencies --   1351.3035              1380.4372              1390.3422
 Red. masses --      1.4481                 1.7942                 1.7861
 Frc consts  --      1.5580                 2.0144                 2.0342
 IR Inten    --     26.9284                 2.5755                31.2343

                     37                     38                     39
                      A                      A                      A
 Frequencies --   1411.4519              1495.3593              1499.5839
 Red. masses --      1.2957                 1.0450                 1.0521
 Frc consts  --      1.5209                 1.3768                 1.3940
 IR Inten    --     10.8314                 5.8727                 2.6744

                     40                     41                     42
                      A                      A                      A
 Frequencies --   1512.9647              1671.5623              3015.5951
 Red. masses --      1.1093                 6.7948                 1.0571
 Frc consts  --      1.4961                11.1860                 5.6639
 IR Inten    --      1.1084                 4.3850                69.0676

                     43                     44                     45
                      A                      A                      A
 Frequencies --   3029.1011              3031.5668              3041.4269
 Red. masses --      1.0483                 1.0702                 1.0845
 Frc consts  --      5.6672                 5.7952                 5.9109
 IR Inten    --     15.3849                15.1867                43.3758

                     46                     47                     48
                      A                      A                      A
 Frequencies --   3074.8598              3099.3343              3104.6863
 Red. masses --      1.1089                 1.1012                 1.1020
 Frc consts  --      6.1771                 6.2323                 6.2582
 IR Inten    --     34.2755                29.8665                23.0883

                     49                     50                     51
                      A                      A                      A
 Frequencies --   3170.7585              3196.1862              3805.6302
 Red. masses --      1.0844                 1.1033                 1.0660
 Frc consts  --      6.4237                 6.6403                 9.0963
 IR Inten    --      7.2532                17.8827                17.3339

 - Thermochemistry -
 -------------------
 Temperature   298.150 Kelvin.  Pressure   1.00000 Atm.
 Atom     1 has atomic number  6 and mass  12.00000

 Molecular mass:   126.06808 amu.
 Principal axes and moments of inertia in atomic units:
                           1         2         3
     Eigenvalues --   705.005461191.697461367.56746
           X            0.99957   0.00631  -0.02859
           Y           -0.00490   0.99879   0.04901
           Z            0.02886  -0.04884   0.99839
 This molecule is an asymmetric top.
 Rotational symmetry number  1.
 Warning -- assumption of classical behavior for rotation
           may cause significant error
 Rotational temperatures (Kelvin)      0.12286     0.07268     0.06333
 Rotational constants (GHZ):           2.55990     1.51443     1.31967
 Zero-point vibrational energy     418162.0 (Joules/Mol)
                                   99.94312 (Kcal/Mol)
 Warning -- explicit consideration of  11 degrees of freedom as
           vibrations may cause significant error
 Vibrational temperatures:    138.82   266.25   311.26   344.43   450.56
          (Kelvin)            460.90   469.55   559.49   640.85   814.83
                              891.31   972.90  1056.95  1152.89  1240.55
                             1245.88  1323.27  1359.71  1412.57  1449.55
                             1472.40  1486.67  1496.12  1577.82  1590.93
                             1609.69  1653.99  1698.28  1729.63  1808.11
                             1866.33  1876.33  1884.42  1944.22  1986.14
                             2000.39  2030.76  2151.49  2157.56  2176.82
                             2405.00  4338.76  4358.20  4361.74  4375.93
                             4424.03  4459.25  4466.95  4562.01  4598.59
                             5475.45

 Zero-point correction=                           0.159270 (Hartree/Particle)
 Thermal correction to Energy=                    0.167485
 Thermal correction to Enthalpy=                  0.168430
 Thermal correction to Gibbs Free Energy=         0.126818
 Sum of electronic and zero-point Energies=           -423.018965
 Sum of electronic and thermal Energies=              -423.010749
 Sum of electronic and thermal Enthalpies=            -423.009805
 Sum of electronic and thermal Free Energies=         -423.051416

                     E (Thermal)             CV                S
                      KCal/Mol        Cal/Mol-Kelvin    Cal/Mol-Kelvin
 Total                  105.099             32.145             87.578
 Electronic               0.000              0.000              0.000
 Translational            0.889              2.981             40.409
 Rotational               0.889              2.981             28.532
 Vibrational            103.321             26.183             18.638
 Vibration     1          0.603              1.952              3.524
 Vibration     2          0.631              1.860              2.277
 Vibration     3          0.645              1.816              1.990
 Vibration     4          0.657              1.780              1.807
 Vibration     5          0.701              1.649              1.346
 Vibration     6          0.706              1.635              1.308
 Vibration     7          0.710              1.623              1.278
 Vibration     8          0.757              1.494              1.004
 Vibration     9          0.805              1.371              0.810
 Vibration    10          0.922              1.104              0.511
 Vibration    11          0.979              0.991              0.417

 Optimization completed.
    -- Stationary point found.
 Normal termination of Gaussian 09 at Tue Jan 28 00:57:14 2020.
