 Gaussian 09, Revision D.01,
 Gaussian 09:  ES64L-G09RevD.01 24-Apr-2013

 -----------------------------
 # b3lyp 6-31G(2df,p) opt Freq
 -----------------------------

 -----
 titel
 -----
 Symbolic Z-matrix:
 Charge =  0 Multiplicity = 1

 SCF Done:  E(RB3LYP) =  -423.125167671     A.U. after   14 cycles
 Optimization completed.
    -- Stationary point found.
 Normal termination of Gaussian 09 at Tue Jan 28 12:07:27 2020.

 ----------------------------------------------------------------------
 #N Geom=AllCheck Guess=TCheck SCRF=Check GenChk RB3LYP/6-31G(2df,p) Fr
 eq
 ----------------------------------------------------------------------

 Structure from the checkpoint file:  "/scratch/puck/g09_b8ae197e-465c-4191-a299-bb9bef772807/Gau-1488.chk"
 -----
 titel
 -----
 Charge =  0 Multiplicity = 1

                         Standard orientation:
 ---------------------------------------------------------------------
 Center     Atomic      Atomic             Coordinates (Angstroms)
 Number     Number       Type             X           Y           Z
 ---------------------------------------------------------------------
      1          8           0       -4.197422   -0.831654    0.107559
      2          6           0       -2.789624   -0.690370    0.071535
      3          6           0       -2.359553    0.785447   -0.054980
      4          6           0       -0.911065    0.943981   -0.052569
      5          6           0        0.290306    1.026638   -0.055134
      6          6           0        1.747032    1.119288   -0.038799
      7          6           0        2.411998   -0.142957    0.484519
      8          6           0        3.752453   -0.541826    0.042501
      9          8           0        2.585494   -1.208274   -0.445386
     10          1           0       -4.540791   -0.617425   -0.765626
     11          1           0       -2.417058   -1.097915    1.015687
     12          1           0       -2.336236   -1.276681   -0.740216
     13          1           0       -2.778196    1.199664   -0.983202
     14          1           0       -2.814994    1.349891    0.767687
     15          1           0        2.128429    1.317871   -1.047838
     16          1           0        2.059046    1.965027    0.589673
     17          1           0        2.075544   -0.461888    1.471519
     18          1           0        4.280602    0.069296   -0.688842
     19          1           0        4.389790   -1.129624    0.701339
 ---------------------------------------------------------------------

 SCF Done:  E(RB3LYP) =  -423.125167671     A.U. after    1 cycles

 The electronic state is 1-A.
 Alpha  occ. eigenvalues --  -19.15211 -19.13761 -10.24495 -10.23646 -10.23083
 Alpha  occ. eigenvalues --  -10.21331 -10.20366 -10.17344 -10.17096  -1.07374
 Alpha  occ. eigenvalues --   -1.01914  -0.79923  -0.77505  -0.70014  -0.66419
 Alpha  occ. eigenvalues --   -0.63307  -0.60545  -0.51995  -0.50917  -0.48465
 Alpha  occ. eigenvalues --   -0.47688  -0.45765  -0.44787  -0.43135  -0.40442
 Alpha  occ. eigenvalues --   -0.39012  -0.38650  -0.37800  -0.33001  -0.31079
 Alpha  occ. eigenvalues --   -0.28207  -0.27195  -0.25050  -0.24562
 Alpha virt. eigenvalues --    0.04859   0.05780   0.07479   0.10563   0.11017
 Alpha virt. eigenvalues --    0.12222   0.12589   0.13585   0.14267   0.14533
 Alpha virt. eigenvalues --    0.15546   0.17691   0.18464   0.21053   0.21970

 Mulliken charges:
               1
     1  O   -0.409522
     2  C   -0.054874
     3  C   -0.356130
     4  C    0.057636
     5  C    0.077644
     6  C   -0.380683
     7  C    0.112005
     8  C   -0.181766
     9  O   -0.225186
    10  H    0.283758
    11  H    0.123858
    12  H    0.105059
    13  H    0.116454
    14  H    0.135099
    15  H    0.133680
    16  H    0.131328
    17  H    0.101537
    18  H    0.113341
    19  H    0.116760
 Sum of Mulliken charges =   0.00000

 Dipole moment (field-independent basis, Debye):
    X=              1.1963    Y=              1.5943    Z=             -0.2543  Tot=              2.0094
 Quadrupole moment (field-independent basis, Debye-Ang):
   XX=            -46.5675   YY=            -56.0797   ZZ=            -51.2966
   XY=              0.4878   XZ=              8.3861   YZ=             -0.8611

  Exact polarizability: 120.098  -0.922  64.530   0.205  -1.587  60.476
 Approx polarizability: 159.221   2.149  91.522  -0.688   0.525  92.382

                      1                      2                      3
                      A                      A                      A
 Frequencies --     16.6560                41.2229                70.9987
 Red. masses --      2.2432                 5.9187                 2.9847
 Frc consts  --      0.0004                 0.0059                 0.0089
 IR Inten    --      4.0392                 1.3082                 4.6759

                      4                      5                      6
                      A                      A                      A
 Frequencies --     99.8761               148.8391               236.7991
 Red. masses --      2.9898                 4.2600                 2.8959
 Frc consts  --      0.0176                 0.0556                 0.0957
 IR Inten    --      0.9630                 2.2486                 7.6505

                      7                      8                      9
                      A                      A                      A
 Frequencies --    298.7021               320.7880               339.0218
 Red. masses --      1.2937                 2.7069                 3.9686
 Frc consts  --      0.0680                 0.1641                 0.2687
 IR Inten    --     65.6283                34.1249                 8.1571

                     10                     11                     12
                      A                      A                      A
 Frequencies --    394.1481               397.7708               439.5836
 Red. masses --      2.7546                 4.1112                 4.0946
 Frc consts  --      0.2521                 0.3833                 0.4662
 IR Inten    --      0.7927                 9.6313                14.3326

                     13                     14                     15
                      A                      A                      A
 Frequencies --    567.4995               780.6271               785.8103
 Red. masses --      6.6288                 1.1633                 2.9381
 Frc consts  --      1.2578                 0.4177                 1.0689
 IR Inten    --      2.5323                 2.1929                 6.3965

                     16                     17                     18
                      A                      A                      A
 Frequencies --    809.4876               861.8504               939.2807
 Red. masses --      3.7011                 1.9146                 2.8503
 Frc consts  --      1.4289                 0.8379                 1.4816
 IR Inten    --      3.3558                18.1844                 9.8636

                     19                     20                     21
                      A                      A                      A
 Frequencies --    960.2005              1008.9176              1050.8373
 Red. masses --      2.3565                 3.2628                 1.8912
 Frc consts  --      1.2801                 1.9568                 1.2304
 IR Inten    --     24.6507                 5.3119                81.2782

                     22                     23                     24
                      A                      A                      A
 Frequencies --   1082.0003              1094.4359              1107.1688
 Red. masses --      3.9484                 1.4169                 1.6685
 Frc consts  --      2.7235                 1.0000                 1.2050
 IR Inten    --     89.2435                 0.4750                 4.0210

                     25                     26                     27
                      A                      A                      A
 Frequencies --   1156.9192              1161.0646              1166.9703
 Red. masses --      1.6084                 1.9952                 1.1671
 Frc consts  --      1.2684                 1.5847                 0.9365
 IR Inten    --      0.5234                 0.5740                 8.3707

                     28                     29                     30
                      A                      A                      A
 Frequencies --   1170.1431              1244.8867              1293.1858
 Red. masses --      1.3457                 1.2154                 1.6225
 Frc consts  --      1.0856                 1.1097                 1.5987
 IR Inten    --      1.9764                 2.8957                 5.8345

                     31                     32                     33
                      A                      A                      A
 Frequencies --   1294.9960              1310.4116              1321.1452
 Red. masses --      1.3829                 1.1962                 1.4236
 Frc consts  --      1.3664                 1.2103                 1.4640
 IR Inten    --      0.2987                15.3648                21.0364

                     34                     35                     36
                      A                      A                      A
 Frequencies --   1395.8067              1412.9219              1437.5279
 Red. masses --      1.2758                 1.2406                 1.7133
 Frc consts  --      1.4645                 1.4593                 2.0860
 IR Inten    --     14.0727                43.5819                15.2107

                     37                     38                     39
                      A                      A                      A
 Frequencies --   1455.1263              1474.6958              1509.6203
 Red. masses --      1.1033                 1.0870                 1.0894
 Frc consts  --      1.3764                 1.3928                 1.4627
 IR Inten    --      2.6909                 1.7875                 0.6253

                     40                     41                     42
                      A                      A                      A
 Frequencies --   1530.2001              2370.3226              3006.8048
 Red. masses --      1.3542                11.8435                 1.0638
 Frc consts  --      1.8682                39.2054                 5.6667
 IR Inten    --      3.7145                 0.7270                15.2573

                     43                     44                     45
                      A                      A                      A
 Frequencies --   3008.8498              3013.2882              3054.1188
 Red. masses --      1.0693                 1.0613                 1.0925
 Frc consts  --      5.7036                 5.6778                 6.0042
 IR Inten    --     52.6525                23.1472                15.9359

                     46                     47                     48
                      A                      A                      A
 Frequencies --   3055.1634              3081.6475              3095.3616
 Red. masses --      1.0975                 1.0503                 1.0984
 Frc consts  --      6.0356                 5.8767                 6.2005
 IR Inten    --      4.4626                29.6511                29.0405

                     49                     50                     51
                      A                      A                      A
 Frequencies --   3110.0137              3168.0688              3817.9058
 Red. masses --      1.0891                 1.1191                 1.0662
 Frc consts  --      6.2066                 6.6180                 9.1569
 IR Inten    --     21.6686                28.3549                22.5347

 - Thermochemistry -
 -------------------
 Temperature   298.150 Kelvin.  Pressure   1.00000 Atm.
 Atom     1 has atomic number  8 and mass  15.99491

 Molecular mass:   126.06808 amu.
 Principal axes and moments of inertia in atomic units:
                           1         2         3
     Eigenvalues --   421.557873389.044453705.71178
           X            0.99998   0.00315   0.00587
           Y           -0.00304   0.99984  -0.01748
           Z           -0.00592   0.01746   0.99983
 This molecule is an asymmetric top.
 Rotational symmetry number  1.
 Rotational temperatures (Kelvin)      0.20546     0.02556     0.02337
 Rotational constants (GHZ):           4.28112     0.53252     0.48702
 Zero-point vibrational energy     412530.3 (Joules/Mol)
                                   98.59712 (Kcal/Mol)
 Warning -- explicit consideration of  13 degrees of freedom as
           vibrations may cause significant error
 Vibrational temperatures:     23.96    59.31   102.15   143.70   214.15
          (Kelvin)            340.70   429.77   461.54   487.78   567.09
                              572.30   632.46   816.50  1123.15  1130.60
                             1164.67  1240.01  1351.41  1381.51  1451.61
                             1511.92  1556.76  1574.65  1592.97  1664.55
                             1670.51  1679.01  1683.57  1791.11  1860.60
                             1863.21  1885.39  1900.83  2008.25  2032.88
                             2068.28  2093.60  2121.76  2172.00  2201.61
                             3410.36  4326.12  4329.06  4335.44  4394.19
                             4395.69  4433.80  4453.53  4474.61  4558.14
                             5493.11

 Zero-point correction=                           0.157125 (Hartree/Particle)
 Thermal correction to Energy=                    0.167376
 Thermal correction to Enthalpy=                  0.168320
 Thermal correction to Gibbs Free Energy=         0.118994
 Sum of electronic and zero-point Energies=           -422.968043
 Sum of electronic and thermal Energies=              -422.957791
 Sum of electronic and thermal Enthalpies=            -422.956847
 Sum of electronic and thermal Free Energies=         -423.006174

                     E (Thermal)             CV                S
                      KCal/Mol        Cal/Mol-Kelvin    Cal/Mol-Kelvin
 Total                  105.030             35.144            103.816
 Electronic               0.000              0.000              0.000
 Translational            0.889              2.981             40.409
 Rotational               0.889              2.981             30.050
 Vibrational            103.253             29.182             33.358
 Vibration     1          0.593              1.986              6.998
 Vibration     2          0.594              1.981              5.199
 Vibration     3          0.598              1.968              4.125
 Vibration     4          0.604              1.949              3.457
 Vibration     5          0.618              1.904              2.687
 Vibration     6          0.656              1.784              1.827
 Vibration     7          0.692              1.676              1.424
 Vibration     8          0.706              1.634              1.306
 Vibration     9          0.719              1.598              1.217
 Vibration    10          0.761              1.483              0.984
 Vibration    11          0.764              1.475              0.971
 Vibration    12          0.800              1.384              0.828
 Vibration    13          0.923              1.102              0.509

 Optimization completed.
    -- Stationary point found.
 Normal termination of Gaussian 09 at Tue Jan 28 12:43:27 2020.
