 Gaussian 09, Revision D.01,
 Gaussian 09:  ES64L-G09RevD.01 24-Apr-2013

 -----------------------------
 # b3lyp 6-31G(2df,p) opt Freq
 -----------------------------

 -----
 titel
 -----
 Symbolic Z-matrix:
 Charge =  0 Multiplicity = 1

 SCF Done:  E(RB3LYP) =  -423.147601353     A.U. after   13 cycles
 Optimization completed.
    -- Stationary point found.
 Normal termination of Gaussian 09 at Mon Jan 27 23:18:40 2020.

 ----------------------------------------------------------------------
 #N Geom=AllCheck Guess=TCheck SCRF=Check GenChk RB3LYP/6-31G(2df,p) Fr
 eq
 ----------------------------------------------------------------------

 Structure from the checkpoint file:  "/scratch/puck/g09_72bfc20d-6203-4eea-a047-97543b34e95f/Gau-66650.chk"
 -----
 titel
 -----
 Charge =  0 Multiplicity = 1

                         Standard orientation:
 ---------------------------------------------------------------------
 Center     Atomic      Atomic             Coordinates (Angstroms)
 Number     Number       Type             X           Y           Z
 ---------------------------------------------------------------------
      1          8           0       -2.541471   -0.039267   -0.326392
      2          6           0       -1.215835    0.392533   -0.534279
      3          6           0       -0.477246    1.022198    0.674125
      4          6           0        0.802711    1.559556   -0.027992
      5          6           0        1.106617    0.063266   -0.178964
      6          8           0        2.325983   -0.469671   -0.569526
      7          6           0        0.354717   -0.237749    1.171176
      8          6           0       -0.203861   -1.522110    0.540584
      9          6           0       -0.150459   -0.703059   -0.776504
     10          1           0       -2.555876   -0.643053    0.422276
     11          1           0       -1.281116    1.094526   -1.369739
     12          1           0       -1.058414    1.639668    1.356536
     13          1           0        0.686063    2.197668   -0.909939
     14          1           0        1.500551    2.024899    0.677292
     15          1           0        3.018317   -0.065364   -0.035212
     16          1           0        0.825234   -0.182753    2.152773
     17          1           0        0.552954   -2.309685    0.548325
     18          1           0       -1.157381   -1.950551    0.869746
     19          1           0       -0.106302   -1.181655   -1.753593
 ---------------------------------------------------------------------

 SCF Done:  E(RB3LYP) =  -423.147601353     A.U. after    1 cycles

 The electronic state is 1-A.
 Alpha  occ. eigenvalues --  -19.14874 -19.13252 -10.24116 -10.22751 -10.19100
 Alpha  occ. eigenvalues --  -10.18800 -10.18637 -10.18490 -10.18394  -1.03542
 Alpha  occ. eigenvalues --   -1.01737  -0.90332  -0.75780  -0.69782  -0.65872
 Alpha  occ. eigenvalues --   -0.61368  -0.56975  -0.55196  -0.51748  -0.48041
 Alpha  occ. eigenvalues --   -0.47048  -0.46687  -0.42017  -0.40698  -0.39059
 Alpha  occ. eigenvalues --   -0.36774  -0.36021  -0.34224  -0.32555  -0.32424
 Alpha  occ. eigenvalues --   -0.31143  -0.28624  -0.25510  -0.24669
 Alpha virt. eigenvalues --    0.07276   0.07558   0.10434   0.12326   0.13120
 Alpha virt. eigenvalues --    0.13790   0.14766   0.15825   0.16536   0.17498
 Alpha virt. eigenvalues --    0.17912   0.19003   0.20314   0.21472   0.22578

 Mulliken charges:
               1
     1  O   -0.457892
     2  C    0.190728
     3  C   -0.108645
     4  C   -0.312300
     5  C    0.433389
     6  O   -0.486139
     7  C   -0.103683
     8  C   -0.269777
     9  C   -0.109853
    10  H    0.280334
    11  H    0.084315
    12  H    0.070760
    13  H    0.096389
    14  H    0.087502
    15  H    0.279879
    16  H    0.064062
    17  H    0.115378
    18  H    0.074258
    19  H    0.071295
 Sum of Mulliken charges =   0.00000

 Dipole moment (field-independent basis, Debye):
    X=              1.4552    Y=              0.4091    Z=              1.7878  Tot=              2.3412
 Quadrupole moment (field-independent basis, Debye-Ang):
   XX=            -54.8426   YY=            -52.5166   ZZ=            -52.9198
   XY=              3.7719   XZ=              0.3484   YZ=             -1.2248

  Exact polarizability:  79.106   2.539  75.368   0.835  -1.337  67.610
 Approx polarizability: 114.942   2.097 109.374  -0.085  -1.770 106.920

                      1                      2                      3
                      A                      A                      A
 Frequencies --    174.5109               235.0928               287.6756
 Red. masses --      2.6317                 1.3789                 4.0296
 Frc consts  --      0.0472                 0.0449                 0.1965
 IR Inten    --     12.2395                48.1779                16.0655

                      4                      5                      6
                      A                      A                      A
 Frequencies --    310.0530               359.0726               369.4267
 Red. masses --      1.5068                 2.1966                 2.4566
 Frc consts  --      0.0853                 0.1669                 0.1975
 IR Inten    --     46.9589                31.8679                40.3409

                      7                      8                      9
                      A                      A                      A
 Frequencies --    445.3636               481.5872               500.4233
 Red. masses --      2.1848                 3.0499                 3.1453
 Frc consts  --      0.2553                 0.4168                 0.4641
 IR Inten    --      2.2645                 2.2788                 1.1955

                     10                     11                     12
                      A                      A                      A
 Frequencies --    636.1423               681.2023               708.3069
 Red. masses --      3.5550                 3.3642                 3.8281
 Frc consts  --      0.8476                 0.9198                 1.1316
 IR Inten    --      4.7610                 4.5212                 0.3879

                     13                     14                     15
                      A                      A                      A
 Frequencies --    787.3607               824.6688               861.1207
 Red. masses --      2.9572                 2.6290                 2.6256
 Frc consts  --      1.0802                 1.0534                 1.1471
 IR Inten    --      6.5418                 1.9434                 5.7101

                     16                     17                     18
                      A                      A                      A
 Frequencies --    904.8818               925.2274               940.4071
 Red. masses --      2.2851                 1.9534                 1.9354
 Frc consts  --      1.1024                 0.9853                 1.0084
 IR Inten    --      1.7386                 2.7894                 2.7525

                     19                     20                     21
                      A                      A                      A
 Frequencies --    962.8994               988.4362              1000.0072
 Red. masses --      2.0530                 2.3241                 1.3843
 Frc consts  --      1.1215                 1.3379                 0.8156
 IR Inten    --      2.1024                 3.2528                 0.4719

                     22                     23                     24
                      A                      A                      A
 Frequencies --   1040.4921              1048.3170              1077.2201
 Red. masses --      1.5373                 1.8255                 1.5885
 Frc consts  --      0.9806                 1.1820                 1.0861
 IR Inten    --     20.0088                 0.3655                18.1488

                     25                     26                     27
                      A                      A                      A
 Frequencies --   1086.3723              1125.9994              1134.6004
 Red. masses --      1.7754                 1.7856                 1.6734
 Frc consts  --      1.2346                 1.3339                 1.2692
 IR Inten    --    145.1316                 5.4214                35.3958

                     28                     29                     30
                      A                      A                      A
 Frequencies --   1147.7383              1184.4827              1216.3859
 Red. masses --      1.5517                 1.9049                 2.0298
 Frc consts  --      1.2043                 1.5747                 1.7695
 IR Inten    --     13.4337                 1.1561                 9.3688

                     31                     32                     33
                      A                      A                      A
 Frequencies --   1223.1466              1226.4699              1253.8902
 Red. masses --      1.5832                 1.8058                 1.3878
 Frc consts  --      1.3955                 1.6004                 1.2856
 IR Inten    --     11.6720                11.7091                 2.2660

                     34                     35                     36
                      A                      A                      A
 Frequencies --   1280.0385              1290.1541              1323.7014
 Red. masses --      1.4801                 1.6718                 1.7754
 Frc consts  --      1.4288                 1.6396                 1.8328
 IR Inten    --     13.2214                44.9149                31.2284

                     37                     38                     39
                      A                      A                      A
 Frequencies --   1328.2726              1375.3102              1445.6317
 Red. masses --      2.4120                 1.8702                 1.2079
 Frc consts  --      2.5073                 2.0842                 1.4873
 IR Inten    --    120.8182                 4.1339                62.0551

                     40                     41                     42
                      A                      A                      A
 Frequencies --   1504.8868              1507.7196              3032.5108
 Red. masses --      1.1360                 1.1265                 1.0623
 Frc consts  --      1.5157                 1.5088                 5.7559
 IR Inten    --      4.4684                 3.2935               105.1103

                     43                     44                     45
                      A                      A                      A
 Frequencies --   3034.6426              3075.6753              3089.9652
 Red. masses --      1.0596                 1.0882                 1.1060
 Frc consts  --      5.7492                 6.0652                 6.2219
 IR Inten    --      1.2051                15.0896                46.5341

                     46                     47                     48
                      A                      A                      A
 Frequencies --   3107.0370              3116.3064              3131.5794
 Red. masses --      1.0975                 1.0893                 1.0900
 Frc consts  --      6.2422                 6.2329                 6.2978
 IR Inten    --     11.3453                40.2158                40.5406

                     49                     50                     51
                      A                      A                      A
 Frequencies --   3136.2772              3801.4050              3825.6069
 Red. masses --      1.0920                 1.0657                 1.0653
 Frc consts  --      6.3284                 9.0735                 9.1855
 IR Inten    --     21.3109                19.7756                11.8013

 - Thermochemistry -
 -------------------
 Temperature   298.150 Kelvin.  Pressure   1.00000 Atm.
 Atom     1 has atomic number  8 and mass  15.99491

 Molecular mass:   126.06808 amu.
 Principal axes and moments of inertia in atomic units:
                           1         2         3
     Eigenvalues --   581.627201128.888891300.91206
           X            0.99969   0.02479   0.00333
           Y           -0.02469   0.99926  -0.02947
           Z           -0.00406   0.02938   0.99956
 This molecule is an asymmetric top.
 Rotational symmetry number  1.
 Warning -- assumption of classical behavior for rotation
           may cause significant error
 Rotational temperatures (Kelvin)      0.14892     0.07672     0.06658
 Rotational constants (GHZ):           3.10292     1.59869     1.38729
 Zero-point vibrational energy     422016.8 (Joules/Mol)
                                  100.86444 (Kcal/Mol)
 Warning -- explicit consideration of   9 degrees of freedom as
           vibrations may cause significant error
 Vibrational temperatures:    251.08   338.25   413.90   446.10   516.62
          (Kelvin)            531.52   640.78   692.90   720.00   915.27
                              980.10  1019.09  1132.84  1186.51  1238.96
                             1301.92  1331.19  1353.03  1385.40  1422.14
                             1438.79  1497.03  1508.29  1549.88  1563.05
                             1620.06  1632.43  1651.34  1704.20  1750.11
                             1759.83  1764.61  1804.07  1841.69  1856.24
                             1904.51  1911.09  1978.76  2079.94  2165.19
                             2169.27  4363.10  4366.17  4425.21  4445.77
                             4470.33  4483.66  4505.64  4512.40  5469.37
                             5504.19

 Zero-point correction=                           0.160738 (Hartree/Particle)
 Thermal correction to Energy=                    0.168124
 Thermal correction to Enthalpy=                  0.169068
 Thermal correction to Gibbs Free Energy=         0.129547
 Sum of electronic and zero-point Energies=           -422.986864
 Sum of electronic and thermal Energies=              -422.979478
 Sum of electronic and thermal Enthalpies=            -422.978533
 Sum of electronic and thermal Free Energies=         -423.018054

                     E (Thermal)             CV                S
                      KCal/Mol        Cal/Mol-Kelvin    Cal/Mol-Kelvin
 Total                  105.499             30.946             83.178
 Electronic               0.000              0.000              0.000
 Translational            0.889              2.981             40.409
 Rotational               0.889              2.981             28.237
 Vibrational            103.722             24.984             14.532
 Vibration     1          0.627              1.874              2.386
 Vibration     2          0.655              1.787              1.840
 Vibration     3          0.685              1.697              1.488
 Vibration     4          0.699              1.655              1.362
 Vibration     5          0.734              1.557              1.126
 Vibration     6          0.742              1.535              1.082
 Vibration     7          0.805              1.371              0.810
 Vibration     8          0.838              1.291              0.706
 Vibration     9          0.856              1.249              0.657

 Normal termination of Gaussian 09 at Tue Jan 28 00:05:36 2020.
