 Gaussian 09, Revision D.01,
 Gaussian 09:  ES64L-G09RevD.01 24-Apr-2013

 -----------------------------
 # b3lyp 6-31G(2df,p) opt Freq
 -----------------------------

 -----
 titel
 -----
 Symbolic Z-matrix:
 Charge =  0 Multiplicity = 1

 SCF Done:  E(RB3LYP) =  -423.130676433     A.U. after   14 cycles
 SCF Done:  E(RB3LYP) =  -423.130676375     A.U. after    7 cycles
 SCF Done:  E(RB3LYP) =  -423.130676329     A.U. after    7 cycles
 SCF Done:  E(RB3LYP) =  -423.130676347     A.U. after    7 cycles
 SCF Done:  E(RB3LYP) =  -423.130676463     A.U. after    7 cycles
 Optimization completed.
    -- Stationary point found.
 Normal termination of Gaussian 09 at Mon Jan 27 15:47:34 2020.

 ----------------------------------------------------------------------
 #N Geom=AllCheck Guess=TCheck SCRF=Check GenChk RB3LYP/6-31G(2df,p) Fr
 eq
 ----------------------------------------------------------------------

 Structure from the checkpoint file:  "/scratch/puck/g09_b85ddd38-71aa-474c-888c-6a6842af799a/Gau-162562.chk"
 -----
 titel
 -----
 Charge =  0 Multiplicity = 1

                         Standard orientation:
 ---------------------------------------------------------------------
 Center     Atomic      Atomic             Coordinates (Angstroms)
 Number     Number       Type             X           Y           Z
 ---------------------------------------------------------------------
      1          6           0        1.753441   -0.705909    1.371107
      2          6           0        1.247050   -0.706989   -0.073301
      3          8           0        2.166778   -0.088505   -0.955829
      4          6           0       -0.141936   -0.074377   -0.194330
      5          8           0       -0.941775   -0.549535   -1.292238
      6          6           0       -1.355989   -0.894094    0.029460
      7          6           0       -2.665811   -0.336065    0.517607
      8          6           0       -0.164462    1.354067    0.025874
      9          6           0       -0.098241    2.540148    0.217697
     10          1           0        1.095498   -1.286723    2.025769
     11          1           0        2.755347   -1.140866    1.406352
     12          1           0        1.806084    0.315587    1.763085
     13          1           0        1.150157   -1.735289   -0.436809
     14          1           0        2.198995    0.849664   -0.731278
     15          1           0       -1.175239   -1.942026    0.281385
     16          1           0       -2.754679   -0.467921    1.601149
     17          1           0       -2.749532    0.727125    0.284305
     18          1           0       -3.498839   -0.865499    0.044085
     19          1           0       -0.072122    3.589587    0.381809
 ---------------------------------------------------------------------

 SCF Done:  E(RB3LYP) =  -423.130676463     A.U. after    1 cycles

 The electronic state is 1-A.
 Alpha  occ. eigenvalues --  -19.15708 -19.13408 -10.26225 -10.24931 -10.24109
 Alpha  occ. eigenvalues --  -10.19816 -10.19371 -10.18731 -10.17992  -1.08064
 Alpha  occ. eigenvalues --   -1.01864  -0.78740  -0.75316  -0.75087  -0.68211
 Alpha  occ. eigenvalues --   -0.62213  -0.61434  -0.53635  -0.52106  -0.49716
 Alpha  occ. eigenvalues --   -0.46449  -0.44873  -0.42770  -0.41936  -0.40354
 Alpha  occ. eigenvalues --   -0.39279  -0.37552  -0.37036  -0.34494  -0.31999
 Alpha  occ. eigenvalues --   -0.29600  -0.28254  -0.27358  -0.25808
 Alpha virt. eigenvalues --    0.01796   0.03090   0.08788   0.10221   0.11347
 Alpha virt. eigenvalues --    0.11886   0.12661   0.13056   0.15309   0.15903
 Alpha virt. eigenvalues --    0.16458   0.17670   0.18599   0.19797   0.20517

 Mulliken charges:
               1
     1  C   -0.410724
     2  C    0.054992
     3  O   -0.428913
     4  C    0.175969
     5  O   -0.289817
     6  C    0.039860
     7  C   -0.436431
     8  C    0.282767
     9  C   -0.431009
    10  H    0.115294
    11  H    0.129400
    12  H    0.122341
    13  H    0.099703
    14  H    0.282843
    15  H    0.090402
    16  H    0.125344
    17  H    0.140869
    18  H    0.133214
    19  H    0.203898
 Sum of Mulliken charges =   0.00000

 Dipole moment (field-independent basis, Debye):
    X=             -0.7627    Y=              0.6915    Z=              2.7895  Tot=              2.9734
 Quadrupole moment (field-independent basis, Debye-Ang):
   XX=            -53.5647   YY=            -45.0763   ZZ=            -58.3840
   XY=              2.7291   XZ=              0.5457   YZ=             -1.2767

  Exact polarizability:  80.801   5.043  91.663  -1.058   1.398  60.991
 Approx polarizability: 104.016  11.175 146.930  -1.936   7.576  95.454

                      1                      2                      3
                      A                      A                      A
 Frequencies --     69.1256               133.3526               143.9518
 Red. masses --      3.6447                 3.8975                 3.1748
 Frc consts  --      0.0103                 0.0408                 0.0388
 IR Inten    --      0.3864                 0.3535                 0.3543

                      4                      5                      6
                      A                      A                      A
 Frequencies --    157.7074               186.4985               226.5967
 Red. masses --      1.9705                 1.3951                 1.5955
 Frc consts  --      0.0289                 0.0286                 0.0483
 IR Inten    --      0.9610                 0.0810                 3.3934

                      7                      8                      9
                      A                      A                      A
 Frequencies --    244.5449               312.6719               336.5523
 Red. masses --      1.5672                 1.7238                 2.2676
 Frc consts  --      0.0552                 0.0993                 0.1513
 IR Inten    --      2.1095                35.1852                63.1039

                     10                     11                     12
                      A                      A                      A
 Frequencies --    342.5610               394.9124               471.2558
 Red. masses --      2.4968                 4.9016                 3.0829
 Frc consts  --      0.1726                 0.4504                 0.4034
 IR Inten    --     15.7398                 7.4415                 1.3153

                     13                     14                     15
                      A                      A                      A
 Frequencies --    507.7550               580.5440               613.3371
 Red. masses --      4.1914                 6.4091                 3.6440
 Frc consts  --      0.6367                 1.2727                 0.8077
 IR Inten    --     26.7814                 2.3985                11.8783

                     16                     17                     18
                      A                      A                      A
 Frequencies --    632.6615               671.1316               685.0099
 Red. masses --      1.2858                 1.2384                 3.2905
 Frc consts  --      0.3032                 0.3286                 0.9097
 IR Inten    --     33.6419                41.6117                 2.9917

                     19                     20                     21
                      A                      A                      A
 Frequencies --    798.3913               901.4890               930.3400
 Red. masses --      3.8441                 2.0962                 3.9328
 Frc consts  --      1.4437                 1.0037                 2.0056
 IR Inten    --      4.5781                15.8282                24.1649

                     22                     23                     24
                      A                      A                      A
 Frequencies --    961.8918              1005.7204              1030.4355
 Red. masses --      1.5203                 2.7607                 1.5566
 Frc consts  --      0.8288                 1.6452                 0.9738
 IR Inten    --     14.3356                19.3422                35.3983

                     25                     26                     27
                      A                      A                      A
 Frequencies --   1091.3797              1108.4465              1140.9687
 Red. masses --      1.7994                 3.0255                 2.3676
 Frc consts  --      1.2628                 2.1902                 1.8160
 IR Inten    --     35.5253                36.3994                32.2485

                     28                     29                     30
                      A                      A                      A
 Frequencies --   1167.2529              1237.6117              1277.1403
 Red. masses --      1.6492                 2.8731                 1.4665
 Frc consts  --      1.3239                 2.5928                 1.4094
 IR Inten    --     12.3112                 8.1923                13.7155

                     31                     32                     33
                      A                      A                      A
 Frequencies --   1323.0333              1352.0430              1401.4755
 Red. masses --      1.4665                 1.4559                 1.2523
 Frc consts  --      1.5125                 1.5681                 1.4492
 IR Inten    --     14.7418                13.0917                 9.5555

                     34                     35                     36
                      A                      A                      A
 Frequencies --   1407.9177              1430.4878              1451.1558
 Red. masses --      1.2729                 1.1837                 1.9880
 Frc consts  --      1.4866                 1.4271                 2.4665
 IR Inten    --      4.2460                41.5094                25.1059

                     37                     38                     39
                      A                      A                      A
 Frequencies --   1485.0313              1490.3088              1495.1677
 Red. masses --      1.0648                 1.0603                 1.0690
 Frc consts  --      1.3835                 1.3875                 1.4081
 IR Inten    --      4.3954                 9.3888                 2.0616

                     40                     41                     42
                      A                      A                      A
 Frequencies --   1498.8309              2227.2122              3036.1846
 Red. masses --      1.2054                 5.9681                 1.0355
 Frc consts  --      1.5955                17.4426                 5.6241
 IR Inten    --      4.3096                 1.1348                11.5311

                     43                     44                     45
                      A                      A                      A
 Frequencies --   3041.1910              3063.6229              3077.7037
 Red. masses --      1.0368                 1.0858                 1.0862
 Frc consts  --      5.6499                 6.0042                 6.0621
 IR Inten    --     17.2365                 7.0093                27.5732

                     46                     47                     48
                      A                      A                      A
 Frequencies --   3104.8553              3106.7575              3124.6563
 Red. masses --      1.1007                 1.1006                 1.1016
 Frc consts  --      6.2518                 6.2589                 6.3367
 IR Inten    --     15.4471                28.2182                18.7312

                     49                     50                     51
                      A                      A                      A
 Frequencies --   3139.4835              3497.5450              3779.4819
 Red. masses --      1.1007                 1.1612                 1.0656
 Frc consts  --      6.3920                 8.3693                 8.9679
 IR Inten    --     13.7769                72.6028                19.3012

 - Thermochemistry -
 -------------------
 Temperature   298.150 Kelvin.  Pressure   1.00000 Atm.
 Atom     1 has atomic number  6 and mass  12.00000

 Molecular mass:   126.06808 amu.
 Principal axes and moments of inertia in atomic units:
                           1         2         3
     Eigenvalues --   832.861811359.862411617.18648
           X            0.99998   0.00213   0.00624
           Y           -0.00183   0.99892  -0.04646
           Z           -0.00633   0.04645   0.99890
 This molecule is an asymmetric top.
 Rotational symmetry number  1.
 Warning -- assumption of classical behavior for rotation
           may cause significant error
 Rotational temperatures (Kelvin)      0.10400     0.06369     0.05356
 Rotational constants (GHZ):           2.16692     1.32715     1.11598
 Zero-point vibrational energy     406104.6 (Joules/Mol)
                                   97.06132 (Kcal/Mol)
 Warning -- explicit consideration of  15 degrees of freedom as
           vibrations may cause significant error
 Vibrational temperatures:     99.46   191.86   207.11   226.91   268.33
          (Kelvin)            326.02   351.85   449.86   484.22   492.87
                              568.19   678.03   730.55   835.27   882.45
                              910.26   965.61   985.58  1148.71  1297.04
                             1338.55  1383.95  1447.01  1482.56  1570.25
                             1594.81  1641.60  1679.41  1780.64  1837.52
                             1903.55  1945.29  2016.41  2025.68  2058.15
                             2087.89  2136.63  2144.22  2151.21  2156.48
                             3204.46  4368.39  4375.59  4407.86  4428.12
                             4467.19  4469.93  4495.68  4517.01  5032.18
                             5437.82

 Zero-point correction=                           0.154677 (Hartree/Particle)
 Thermal correction to Energy=                    0.164974
 Thermal correction to Enthalpy=                  0.165918
 Thermal correction to Gibbs Free Energy=         0.119804
 Sum of electronic and zero-point Energies=           -422.975999
 Sum of electronic and thermal Energies=              -422.965702
 Sum of electronic and thermal Enthalpies=            -422.964758
 Sum of electronic and thermal Free Energies=         -423.010873

                     E (Thermal)             CV                S
                      KCal/Mol        Cal/Mol-Kelvin    Cal/Mol-Kelvin
 Total                  103.523             37.830             97.057
 Electronic               0.000              0.000              0.000
 Translational            0.889              2.981             40.409
 Rotational               0.889              2.981             28.995
 Vibrational            101.745             31.869             27.653
 Vibration     1          0.598              1.969              4.178
 Vibration     2          0.613              1.920              2.897
 Vibration     3          0.616              1.909              2.751
 Vibration     4          0.621              1.894              2.577
 Vibration     5          0.632              1.858              2.262
 Vibration     6          0.650              1.800              1.906
 Vibration     7          0.660              1.772              1.770
 Vibration     8          0.701              1.650              1.348
 Vibration     9          0.717              1.602              1.228
 Vibration    10          0.722              1.590              1.200
 Vibration    11          0.762              1.481              0.982
 Vibration    12          0.828              1.314              0.734
 Vibration    13          0.863              1.233              0.639
 Vibration    14          0.937              1.073              0.484
 Vibration    15          0.973              1.004              0.427

 Optimization completed.
    -- Stationary point found.
 Normal termination of Gaussian 09 at Mon Jan 27 16:27:22 2020.
 Normal termination of Gaussian 09 at Mon Jan 27 15:30:11 2020.
