 Gaussian 09, Revision D.01,
 Gaussian 09:  ES64L-G09RevD.01 24-Apr-2013

 -----------------------------
 # b3lyp 6-31G(2df,p) opt Freq
 -----------------------------

 -----
 titel
 -----
 Symbolic Z-matrix:
 Charge =  0 Multiplicity = 1

 SCF Done:  E(RB3LYP) =  -423.210550109     A.U. after   14 cycles
 Optimization completed.
    -- Stationary point found.
 Normal termination of Gaussian 09 at Tue Jan 28 14:08:56 2020.

 ----------------------------------------------------------------------
 #N Geom=AllCheck Guess=TCheck SCRF=Check GenChk RB3LYP/6-31G(2df,p) Fr
 eq
 ----------------------------------------------------------------------

 Structure from the checkpoint file:  "/scratch/puck/g09_6cb87896-6645-47de-85ad-4b956aea4eab/Gau-25411.chk"
 -----
 titel
 -----
 Charge =  0 Multiplicity = 1

                         Standard orientation:
 ---------------------------------------------------------------------
 Center     Atomic      Atomic             Coordinates (Angstroms)
 Number     Number       Type             X           Y           Z
 ---------------------------------------------------------------------
      1          6           0       -2.855840    0.370249   -0.254920
      2          8           0       -1.881245   -0.644009   -0.366975
      3          6           0       -0.705502   -0.403756    0.381855
      4          6           0        0.107552   -1.676857    0.399041
      5          6           0        1.391186   -1.484538    0.084330
      6          6           0        1.630841   -0.053931   -0.220646
      7          8           0        2.694620    0.481367   -0.428180
      8          6           0        0.261633    0.657206   -0.203927
      9          6           0        0.334329    2.010959    0.503165
     10          1           0       -2.526111    1.317638   -0.705289
     11          1           0       -3.743801    0.022126   -0.787762
     12          1           0       -3.122388    0.561033    0.796407
     13          1           0       -0.985513   -0.128017    1.415018
     14          1           0       -0.359589   -2.621341    0.654426
     15          1           0        2.179197   -2.226396    0.057121
     16          1           0       -0.023035    0.798364   -1.254788
     17          1           0        1.159657    2.596592    0.089950
     18          1           0       -0.592158    2.580257    0.387594
     19          1           0        0.521549    1.884891    1.575175
 ---------------------------------------------------------------------

 SCF Done:  E(RB3LYP) =  -423.210550109     A.U. after    1 cycles

 The electronic state is 1-A.
 Alpha  occ. eigenvalues --  -19.15051 -19.12447 -10.26306 -10.24831 -10.23272
 Alpha  occ. eigenvalues --  -10.21332 -10.19788 -10.19501 -10.18168  -1.04411
 Alpha  occ. eigenvalues --   -1.03386  -0.85256  -0.76395  -0.72142  -0.65596
 Alpha  occ. eigenvalues --   -0.64962  -0.57156  -0.53616  -0.50492  -0.49432
 Alpha  occ. eigenvalues --   -0.45844  -0.45085  -0.44279  -0.41628  -0.41053
 Alpha  occ. eigenvalues --   -0.40119  -0.38091  -0.37241  -0.36303  -0.34579
 Alpha  occ. eigenvalues --   -0.32126  -0.28611  -0.26748  -0.23841
 Alpha virt. eigenvalues --   -0.04955   0.04810   0.08484   0.11521   0.11780
 Alpha virt. eigenvalues --    0.13054   0.14005   0.14255   0.15216   0.16104
 Alpha virt. eigenvalues --    0.17186   0.18042   0.19405   0.21381   0.22333

 Mulliken charges:
               1
     1  C   -0.236644
     2  O   -0.248461
     3  C    0.068504
     4  C   -0.074926
     5  C   -0.187452
     6  C    0.376652
     7  O   -0.335025
     8  C   -0.121606
     9  C   -0.412527
    10  H    0.112915
    11  H    0.131372
    12  H    0.106742
    13  H    0.079215
    14  H    0.124955
    15  H    0.122079
    16  H    0.117006
    17  H    0.143864
    18  H    0.113861
    19  H    0.119475
 Sum of Mulliken charges =   0.00000

 Dipole moment (field-independent basis, Debye):
    X=             -2.7711    Y=             -0.4518    Z=              1.1335  Tot=              3.0279
 Quadrupole moment (field-independent basis, Debye-Ang):
   XX=            -59.6239   YY=            -50.6549   ZZ=            -53.0289
   XY=             -5.5141   XZ=              0.9080   YZ=             -1.1135

  Exact polarizability:  97.778   0.780  80.408  -4.105  -2.828  56.800
 Approx polarizability: 148.859  12.866 114.037 -11.685  -6.152  90.908

                      1                      2                      3
                      A                      A                      A
 Frequencies --     53.4893                96.6380               184.8190
 Red. masses --      4.1000                 2.5415                 3.2715
 Frc consts  --      0.0069                 0.0140                 0.0658
 IR Inten    --      1.8017                 3.5542                 3.6166

                      4                      5                      6
                      A                      A                      A
 Frequencies --    195.7649               207.1643               254.6667
 Red. masses --      1.1244                 1.1241                 3.3076
 Frc consts  --      0.0254                 0.0284                 0.1264
 IR Inten    --      0.5215                 0.2167                 2.8156

                      7                      8                      9
                      A                      A                      A
 Frequencies --    295.7601               308.4124               400.0230
 Red. masses --      2.8063                 3.4449                 4.2270
 Frc consts  --      0.1446                 0.1931                 0.3985
 IR Inten    --      2.0994                 2.3255                 6.8005

                     10                     11                     12
                      A                      A                      A
 Frequencies --    479.6584               536.3882               595.2099
 Red. masses --      3.6926                 3.8516                 3.7661
 Frc consts  --      0.5005                 0.6529                 0.7861
 IR Inten    --      3.1225                 1.1733                 4.1449

                     13                     14                     15
                      A                      A                      A
 Frequencies --    686.9889               749.7814               776.8450
 Red. masses --      3.9296                 4.4023                 2.1258
 Frc consts  --      1.0927                 1.4582                 0.7559
 IR Inten    --      2.2321                 3.2626                 6.3609

                     16                     17                     18
                      A                      A                      A
 Frequencies --    834.0633               901.7242               988.1811
 Red. masses --      2.0604                 1.6475                 2.7351
 Frc consts  --      0.8445                 0.7893                 1.5736
 IR Inten    --     10.6861                21.2576                30.1872

                     19                     20                     21
                      A                      A                      A
 Frequencies --    998.5231              1012.4024              1053.6059
 Red. masses --      1.4660                 2.1716                 1.7079
 Frc consts  --      0.8612                 1.3114                 1.1171
 IR Inten    --      0.2863                11.3628                 5.3002

                     22                     23                     24
                      A                      A                      A
 Frequencies --   1079.8388              1112.6139              1145.6672
 Red. masses --      1.8169                 1.8668                 1.5565
 Frc consts  --      1.2483                 1.3616                 1.2037
 IR Inten    --      3.7883                 1.1664                10.7762

                     25                     26                     27
                      A                      A                      A
 Frequencies --   1151.1045              1174.0588              1181.8883
 Red. masses --      4.7533                 2.2589                 1.3644
 Frc consts  --      3.7109                 1.8345                 1.1229
 IR Inten    --    142.1666                39.7573                 4.3678

                     28                     29                     30
                      A                      A                      A
 Frequencies --   1214.5172              1251.4937              1286.2870
 Red. masses --      1.4423                 1.7305                 1.3577
 Frc consts  --      1.2535                 1.5969                 1.3235
 IR Inten    --     27.0298                31.2213                 4.6435

                     31                     32                     33
                      A                      A                      A
 Frequencies --   1339.8818              1347.3030              1379.8167
 Red. masses --      2.0302                 1.5286                 1.4440
 Frc consts  --      2.1475                 1.6348                 1.6198
 IR Inten    --      6.6107                14.6514                48.5193

                     34                     35                     36
                      A                      A                      A
 Frequencies --   1408.3606              1478.2174              1489.3298
 Red. masses --      1.2178                 1.1174                 1.0698
 Frc consts  --      1.4231                 1.4386                 1.3981
 IR Inten    --     10.2958                 2.9711                 4.7603

                     37                     38                     39
                      A                      A                      A
 Frequencies --   1494.8141              1501.4417              1508.9989
 Red. masses --      1.0456                 1.0597                 1.0544
 Frc consts  --      1.3766                 1.4075                 1.4147
 IR Inten    --      5.0667                 4.7870                 8.8015

                     40                     41                     42
                      A                      A                      A
 Frequencies --   1657.5303              1815.0195              2934.5997
 Red. masses --      6.7703                12.3350                 1.0804
 Frc consts  --     10.9593                23.9415                 5.4820
 IR Inten    --      8.9474               248.1570                31.7112

                     43                     44                     45
                      A                      A                      A
 Frequencies --   2978.8633              3030.0314              3032.6677
 Red. masses --      1.0380                 1.0996                 1.0812
 Frc consts  --      5.4267                 5.9480                 5.8588
 IR Inten    --     51.0325                41.9020                 7.4195

                     46                     47                     48
                      A                      A                      A
 Frequencies --   3039.4583              3105.9141              3117.1488
 Red. masses --      1.0385                 1.0999                 1.0967
 Frc consts  --      5.6528                 6.2518                 6.2785
 IR Inten    --     26.6607                27.3376                30.1619

                     49                     50                     51
                      A                      A                      A
 Frequencies --   3124.9707              3199.6391              3228.2527
 Red. masses --      1.1017                 1.0876                 1.1043
 Frc consts  --      6.3387                 6.5605                 6.7805
 IR Inten    --      8.7823                 3.6477                 6.3917

 - Thermochemistry -
 -------------------
 Temperature   298.150 Kelvin.  Pressure   1.00000 Atm.
 Atom     1 has atomic number  6 and mass  12.00000

 Molecular mass:   126.06808 amu.
 Principal axes and moments of inertia in atomic units:
                           1         2         3
     Eigenvalues --   647.693641407.795901897.27778
           X            0.99949  -0.03159   0.00367
           Y            0.03157   0.99949   0.00532
           Z           -0.00384  -0.00520   0.99998
 This molecule is an asymmetric top.
 Rotational symmetry number  1.
 Warning -- assumption of classical behavior for rotation
           may cause significant error
 Rotational temperatures (Kelvin)      0.13373     0.06152     0.04565
 Rotational constants (GHZ):           2.78641     1.28196     0.95123
 Zero-point vibrational energy     415222.8 (Joules/Mol)
                                   99.24064 (Kcal/Mol)
 Warning -- explicit consideration of  12 degrees of freedom as
           vibrations may cause significant error
 Vibrational temperatures:     76.96   139.04   265.91   281.66   298.06
          (Kelvin)            366.41   425.53   443.74   575.54   690.12
                              771.74   856.37   988.42  1078.77  1117.71
                             1200.03  1297.38  1421.77  1436.65  1456.62
                             1515.90  1553.65  1600.80  1648.36  1656.18
                             1689.21  1700.47  1747.42  1800.62  1850.68
                             1927.79  1938.47  1985.25  2026.31  2126.82
                             2142.81  2150.70  2160.24  2171.11  2384.81
                             2611.40  4222.23  4285.91  4359.53  4363.33
                             4373.10  4468.71  4484.88  4496.13  4603.56
                             4644.73

 Zero-point correction=                           0.158150 (Hartree/Particle)
 Thermal correction to Energy=                    0.167272
 Thermal correction to Enthalpy=                  0.168216
 Thermal correction to Gibbs Free Energy=         0.123869
 Sum of electronic and zero-point Energies=           -423.052400
 Sum of electronic and thermal Energies=              -423.043278
 Sum of electronic and thermal Enthalpies=            -423.042334
 Sum of electronic and thermal Free Energies=         -423.086681

                     E (Thermal)             CV                S
                      KCal/Mol        Cal/Mol-Kelvin    Cal/Mol-Kelvin
 Total                  104.965             33.262             93.337
 Electronic               0.000              0.000              0.000
 Translational            0.889              2.981             40.409
 Rotational               0.889              2.981             28.938
 Vibrational            103.187             27.300             23.990
 Vibration     1          0.596              1.976              4.684
 Vibration     2          0.603              1.952              3.521
 Vibration     3          0.631              1.861              2.279
 Vibration     4          0.636              1.846              2.173
 Vibration     5          0.641              1.830              2.069
 Vibration     6          0.665              1.755              1.698
 Vibration     7          0.690              1.682              1.441
 Vibration     8          0.698              1.658              1.371
 Vibration     9          0.766              1.470              0.963
 Vibration    10          0.836              1.295              0.711
 Vibration    11          0.891              1.170              0.573
 Vibration    12          0.953              1.042              0.458

 Optimization completed.
    -- Stationary point found.
 Normal termination of Gaussian 09 at Tue Jan 28 14:52:46 2020.
