 Gaussian 09, Revision D.01,
 Gaussian 09:  ES64L-G09RevD.01 24-Apr-2013

 -----------------------------
 # b3lyp 6-31G(2df,p) opt Freq
 -----------------------------

 -----
 titel
 -----
 Symbolic Z-matrix:
 Charge =  0 Multiplicity = 1

 SCF Done:  E(RB3LYP) =  -423.201681926     A.U. after   14 cycles
 Optimization completed.
    -- Stationary point found.
 Normal termination of Gaussian 09 at Tue Jan 28 00:05:16 2020.

 ----------------------------------------------------------------------
 #N Geom=AllCheck Guess=TCheck SCRF=Check GenChk RB3LYP/6-31G(2df,p) Fr
 eq
 ----------------------------------------------------------------------

 Structure from the checkpoint file:  "/scratch/puck/g09_3d718b1a-e11d-4034-be29-5621cbd0faa2/Gau-84038.chk"
 -----
 titel
 -----
 Charge =  0 Multiplicity = 1

                         Standard orientation:
 ---------------------------------------------------------------------
 Center     Atomic      Atomic             Coordinates (Angstroms)
 Number     Number       Type             X           Y           Z
 ---------------------------------------------------------------------
      1          6           0        2.812902    0.521807   -0.417154
      2          6           0        1.381102    0.037438   -0.419331
      3          6           0        0.807444   -0.699304    0.744079
      4          6           0       -0.244268   -1.758507    0.476186
      5          8           0       -1.048282   -1.408275   -0.638550
      6          6           0       -1.814776   -0.239472   -0.419780
      7          6           0       -1.025350    0.980315    0.068396
      8          8           0       -1.572111    2.057839    0.159045
      9          6           0        0.374658    0.743071    0.499549
     10          1           0        3.137260    0.798737    0.591268
     11          1           0        3.488139   -0.259867   -0.782135
     12          1           0        2.936034    1.398657   -1.061071
     13          1           0        0.992409   -0.258842   -1.388425
     14          1           0        1.444315   -0.876261    1.606604
     15          1           0        0.221073   -2.715811    0.220004
     16          1           0       -0.870637   -1.914331    1.370900
     17          1           0       -2.304691    0.006036   -1.365614
     18          1           0       -2.608373   -0.418432    0.326399
     19          1           0        0.777339    1.531519    1.126435
 ---------------------------------------------------------------------

 SCF Done:  E(RB3LYP) =  -423.201681926     A.U. after    1 cycles

 The electronic state is 1-A.
 Alpha  occ. eigenvalues --  -19.15393 -19.12163 -10.26557 -10.24222 -10.23650
 Alpha  occ. eigenvalues --  -10.20900 -10.20719 -10.20094 -10.18948  -1.05114
 Alpha  occ. eigenvalues --   -1.03059  -0.88090  -0.75516  -0.73295  -0.66974
 Alpha  occ. eigenvalues --   -0.63908  -0.58201  -0.53577  -0.50792  -0.49541
 Alpha  occ. eigenvalues --   -0.47249  -0.44862  -0.43286  -0.41928  -0.41129
 Alpha  occ. eigenvalues --   -0.40791  -0.39538  -0.37341  -0.36921  -0.33384
 Alpha  occ. eigenvalues --   -0.29527  -0.29047  -0.28221  -0.23033
 Alpha virt. eigenvalues --   -0.01482   0.08382   0.09945   0.10687   0.11991
 Alpha virt. eigenvalues --    0.13105   0.14311   0.15513   0.16051   0.16205
 Alpha virt. eigenvalues --    0.17117   0.18325   0.18818   0.19739   0.20515

 Mulliken charges:
               1
     1  C   -0.418967
     2  C   -0.015368
     3  C   -0.065131
     4  C   -0.114121
     5  O   -0.243439
     6  C   -0.184360
     7  C    0.358098
     8  O   -0.326787
     9  C   -0.148693
    10  H    0.118851
    11  H    0.124464
    12  H    0.129444
    13  H    0.112572
    14  H    0.094323
    15  H    0.116979
    16  H    0.095797
    17  H    0.141230
    18  H    0.121704
    19  H    0.103403
 Sum of Mulliken charges =   0.00000

 Dipole moment (field-independent basis, Debye):
    X=              2.0656    Y=             -2.0533    Z=              0.7070  Tot=              2.9971
 Quadrupole moment (field-independent basis, Debye-Ang):
   XX=            -52.3445   YY=            -59.8993   ZZ=            -51.5819
   XY=              3.8206   XZ=              0.3480   YZ=             -2.6891

  Exact polarizability:  88.918  -3.814  78.284  -0.311  -1.752  63.105
 Approx polarizability: 117.190 -13.579 120.122  -1.068   0.087  99.467

                      1                      2                      3
                      A                      A                      A
 Frequencies --     92.2546               160.3883               207.6912
 Red. masses --      3.2683                 2.5298                 1.7665
 Frc consts  --      0.0164                 0.0383                 0.0449
 IR Inten    --      4.0432                 0.1210                 1.7065

                      4                      5                      6
                      A                      A                      A
 Frequencies --    220.4327               271.6218               345.5115
 Red. masses --      1.6472                 2.6358                 2.0984
 Frc consts  --      0.0472                 0.1146                 0.1476
 IR Inten    --      0.7011                 5.5306                 4.3400

                      7                      8                      9
                      A                      A                      A
 Frequencies --    368.8526               436.2645               457.1777
 Red. masses --      3.1480                 4.3759                 5.2759
 Frc consts  --      0.2523                 0.4907                 0.6497
 IR Inten    --      2.6993                 7.5481                16.3861

                     10                     11                     12
                      A                      A                      A
 Frequencies --    523.0765               598.8565               664.8246
 Red. masses --      4.2945                 3.9588                 3.8798
 Frc consts  --      0.6923                 0.8365                 1.0104
 IR Inten    --      1.4427                 2.1422                 6.0631

                     13                     14                     15
                      A                      A                      A
 Frequencies --    765.6225               804.1559               834.8055
 Red. masses --      3.6939                 2.3079                 2.5244
 Frc consts  --      1.2757                 0.8793                 1.0365
 IR Inten    --      3.3356                 8.7336                 3.8203

                     16                     17                     18
                      A                      A                      A
 Frequencies --    920.2161               939.1827               973.0069
 Red. masses --      1.7122                 2.2050                 1.7436
 Frc consts  --      0.8543                 1.1459                 0.9726
 IR Inten    --     23.4094                16.3313                 8.8529

                     19                     20                     21
                      A                      A                      A
 Frequencies --   1013.7125              1035.0967              1055.6438
 Red. masses --      2.1681                 1.8195                 2.0643
 Frc consts  --      1.3127                 1.1486                 1.3553
 IR Inten    --      4.4031                 9.9200                 7.8417

                     22                     23                     24
                      A                      A                      A
 Frequencies --   1101.0195              1110.7679              1123.9777
 Red. masses --      1.2645                 1.7089                 2.3319
 Frc consts  --      0.9031                 1.2423                 1.7357
 IR Inten    --      4.4647                10.5050                27.4899

                     25                     26                     27
                      A                      A                      A
 Frequencies --   1144.4093              1152.9113              1210.1307
 Red. masses --      2.0322                 2.4482                 1.7627
 Frc consts  --      1.5681                 1.9173                 1.5209
 IR Inten    --     42.4758                14.6194                 1.5338

                     28                     29                     30
                      A                      A                      A
 Frequencies --   1246.0464              1265.5442              1302.7827
 Red. masses --      1.1983                 2.1160                 1.4382
 Frc consts  --      1.0961                 1.9967                 1.4382
 IR Inten    --      6.0016                88.8840                 7.0389

                     31                     32                     33
                      A                      A                      A
 Frequencies --   1314.2559              1343.2092              1358.8111
 Red. masses --      1.1989                 1.8101                 1.3368
 Frc consts  --      1.2201                 1.9242                 1.4542
 IR Inten    --      4.5356                29.8955                 2.3309

                     34                     35                     36
                      A                      A                      A
 Frequencies --   1401.0170              1418.8359              1452.5525
 Red. masses --      1.4108                 1.2544                 1.2351
 Frc consts  --      1.6315                 1.4878                 1.5354
 IR Inten    --     13.5924                 3.2937                 8.5146

                     37                     38                     39
                      A                      A                      A
 Frequencies --   1462.8256              1491.0531              1499.2656
 Red. masses --      1.8119                 1.0522                 1.0864
 Frc consts  --      2.2843                 1.3782                 1.4388
 IR Inten    --      2.2966                 1.8456                 2.5806

                     40                     41                     42
                      A                      A                      A
 Frequencies --   1502.8710              1797.8034              2962.5239
 Red. masses --      1.1078                12.0255                 1.0707
 Frc consts  --      1.4742                22.9001                 5.5363
 IR Inten    --      4.5384               222.7955                32.4011

                     43                     44                     45
                      A                      A                      A
 Frequencies --   2967.2364              3030.7773              3073.2843
 Red. masses --      1.0705                 1.0351                 1.0921
 Frc consts  --      5.5530                 5.6022                 6.0773
 IR Inten    --     69.4337                30.0407                29.5462

                     46                     47                     48
                      A                      A                      A
 Frequencies --   3095.8552              3101.4818              3101.7336
 Red. masses --      1.1010                 1.0985                 1.0928
 Frc consts  --      6.2173                 6.2259                 6.1942
 IR Inten    --     19.3926                 6.8908                20.3202

                     49                     50                     51
                      A                      A                      A
 Frequencies --   3148.0165              3167.1277              3174.7694
 Red. masses --      1.0890                 1.0894                 1.0874
 Frc consts  --      6.3584                 6.4383                 6.4575
 IR Inten    --     11.3211                 3.0350                 9.9614

 - Thermochemistry -
 -------------------
 Temperature   298.150 Kelvin.  Pressure   1.00000 Atm.
 Atom     1 has atomic number  6 and mass  12.00000

 Molecular mass:   126.06808 amu.
 Principal axes and moments of inertia in atomic units:
                           1         2         3
     Eigenvalues --   780.943501151.440831665.13505
           X            0.99752   0.07027  -0.00466
           Y           -0.07036   0.99722  -0.02434
           Z            0.00293   0.02460   0.99969
 This molecule is an asymmetric top.
 Rotational symmetry number  1.
 Warning -- assumption of classical behavior for rotation
           may cause significant error
 Rotational temperatures (Kelvin)      0.11091     0.07522     0.05202
 Rotational constants (GHZ):           2.31098     1.56738     1.08384
 Zero-point vibrational energy     419956.8 (Joules/Mol)
                                  100.37208 (Kcal/Mol)
 Warning -- explicit consideration of  11 degrees of freedom as
           vibrations may cause significant error
 Vibrational temperatures:    132.73   230.76   298.82   317.15   390.80
          (Kelvin)            497.11   530.70   627.69   657.78   752.59
                              861.62   956.53  1101.56  1157.00  1201.10
                             1323.98  1351.27  1399.94  1458.50  1489.27
                             1518.83  1584.12  1598.15  1617.15  1646.55
                             1658.78  1741.11  1792.78  1820.83  1874.41
                             1890.92  1932.58  1955.02  2015.75  2041.39
                             2089.90  2104.68  2145.29  2157.11  2162.29
                             2586.63  4262.41  4269.19  4360.61  4421.77
                             4454.24  4462.33  4462.70  4529.29  4556.78
                             4567.78

 Zero-point correction=                           0.159953 (Hartree/Particle)
 Thermal correction to Energy=                    0.168139
 Thermal correction to Enthalpy=                  0.169083
 Thermal correction to Gibbs Free Energy=         0.127244
 Sum of electronic and zero-point Energies=           -423.041729
 Sum of electronic and thermal Energies=              -423.033543
 Sum of electronic and thermal Enthalpies=            -423.032599
 Sum of electronic and thermal Free Energies=         -423.074438

                     E (Thermal)             CV                S
                      KCal/Mol        Cal/Mol-Kelvin    Cal/Mol-Kelvin
 Total                  105.509             31.463             88.058
 Electronic               0.000              0.000              0.000
 Translational            0.889              2.981             40.409
 Rotational               0.889              2.981             28.795
 Vibrational            103.731             25.501             18.854
 Vibration     1          0.602              1.955              3.612
 Vibration     2          0.622              1.891              2.545
 Vibration     3          0.641              1.829              2.064
 Vibration     4          0.647              1.810              1.956
 Vibration     5          0.675              1.726              1.586
 Vibration     6          0.724              1.584              1.187
 Vibration     7          0.741              1.536              1.085
 Vibration     8          0.797              1.391              0.838
 Vibration     9          0.815              1.345              0.774
 Vibration    10          0.878              1.199              0.603
 Vibration    11          0.957              1.034              0.452

 Optimization completed.
    -- Stationary point found.
 Normal termination of Gaussian 09 at Tue Jan 28 00:51:40 2020.
