 Gaussian 09, Revision D.01,
 Gaussian 09:  ES64L-G09RevD.01 24-Apr-2013

 -----------------------------
 # b3lyp 6-31G(2df,p) opt Freq
 -----------------------------

 -----
 titel
 -----
 Symbolic Z-matrix:
 Charge =  0 Multiplicity = 1

 SCF Done:  E(RB3LYP) =  -423.164696611     A.U. after   13 cycles
 Optimization completed.
    -- Stationary point found.
 Normal termination of Gaussian 09 at Tue Jan 28 00:02:22 2020.

 ----------------------------------------------------------------------
 #N Geom=AllCheck Guess=TCheck SCRF=Check GenChk RB3LYP/6-31G(2df,p) Fr
 eq
 ----------------------------------------------------------------------

 Structure from the checkpoint file:  "/scratch/puck/g09_e09b6784-2e6a-4e83-82ac-8c7fb7646b34/Gau-31933.chk"
 -----
 titel
 -----
 Charge =  0 Multiplicity = 1

                         Standard orientation:
 ---------------------------------------------------------------------
 Center     Atomic      Atomic             Coordinates (Angstroms)
 Number     Number       Type             X           Y           Z
 ---------------------------------------------------------------------
      1          8           0        2.875159   -0.305242    0.313949
      2          6           0        1.508663   -0.036972    0.442471
      3          6           0        0.780746    0.636691   -0.693255
      4          6           0       -0.396628    1.579809   -0.504028
      5          6           0       -1.346224    1.171870    0.633107
      6          6           0       -1.677833   -0.306734    0.628827
      7          8           0       -1.898846   -0.930243   -0.637767
      8          6           0       -0.718968   -1.292760    0.109047
      9          6           0        0.593846   -0.846622   -0.440490
     10          1           0        3.351619    0.526150    0.410266
     11          1           0        1.173937    0.151214    1.462901
     12          1           0        1.421511    0.871204   -1.539095
     13          1           0       -0.039654    2.601937   -0.328903
     14          1           0       -0.964228    1.600847   -1.440675
     15          1           0       -0.908517    1.412924    1.611005
     16          1           0       -2.272326    1.754671    0.564080
     17          1           0       -2.370981   -0.628139    1.408382
     18          1           0       -0.753739   -2.306448    0.508607
     19          1           0        1.090260   -1.532172   -1.120091
 ---------------------------------------------------------------------

 SCF Done:  E(RB3LYP) =  -423.164696611     A.U. after    1 cycles

 The electronic state is 1-A.
 Alpha  occ. eigenvalues --  -19.14397 -19.14132 -10.23609 -10.23290 -10.23238
 Alpha  occ. eigenvalues --  -10.19064 -10.18942 -10.18849 -10.18718  -1.06169
 Alpha  occ. eigenvalues --   -1.02882  -0.86027  -0.77496  -0.69784  -0.65817
 Alpha  occ. eigenvalues --   -0.60534  -0.58711  -0.53905  -0.52387  -0.49648
 Alpha  occ. eigenvalues --   -0.47740  -0.44522  -0.43867  -0.40392  -0.40049
 Alpha  occ. eigenvalues --   -0.39521  -0.37560  -0.35741  -0.33943  -0.31552
 Alpha  occ. eigenvalues --   -0.29448  -0.27508  -0.25839  -0.25094
 Alpha virt. eigenvalues --    0.07952   0.09007   0.09515   0.10988   0.12208
 Alpha virt. eigenvalues --    0.12995   0.13739   0.15024   0.16399   0.16809
 Alpha virt. eigenvalues --    0.18350   0.19581   0.20186   0.20947   0.24029

 Mulliken charges:
               1
     1  O   -0.428166
     2  C    0.073606
     3  C   -0.079465
     4  C   -0.228368
     5  C   -0.255860
     6  C    0.067950
     7  O   -0.264556
     8  C    0.030283
     9  C   -0.075148
    10  H    0.286052
    11  H    0.083421
    12  H    0.088557
    13  H    0.093771
    14  H    0.120819
    15  H    0.105219
    16  H    0.107300
    17  H    0.084936
    18  H    0.091645
    19  H    0.098006
 Sum of Mulliken charges =   0.00000

 Dipole moment (field-independent basis, Debye):
    X=              0.7738    Y=              1.9249    Z=              1.3672  Tot=              2.4846
 Quadrupole moment (field-independent basis, Debye-Ang):
   XX=            -55.2607   YY=            -51.2556   ZZ=            -52.5986
   XY=              2.6499   XZ=             -3.3466   YZ=             -0.4644

  Exact polarizability:  82.413  -1.323  75.365  -3.121   0.097  64.169
 Approx polarizability: 113.190  -2.379 109.740   1.297   2.733 102.210

                      1                      2                      3
                      A                      A                      A
 Frequencies --    158.7683               184.1310               255.0495
 Red. masses --      3.6286                 2.9890                 2.0497
 Frc consts  --      0.0539                 0.0597                 0.0786
 IR Inten    --      0.9558                 5.6217                27.9547

                      4                      5                      6
                      A                      A                      A
 Frequencies --    285.3860               306.7471               361.6832
 Red. masses --      2.5569                 1.4683                 2.6872
 Frc consts  --      0.1227                 0.0814                 0.2071
 IR Inten    --      5.4782                68.1259                 3.0045

                      7                      8                      9
                      A                      A                      A
 Frequencies --    380.3721               409.7588               563.5568
 Red. masses --      5.8185                 3.5717                 4.5094
 Frc consts  --      0.4960                 0.3533                 0.8438
 IR Inten    --      2.5007                12.3709                 0.7992

                     10                     11                     12
                      A                      A                      A
 Frequencies --    609.5335               674.4117               774.1253
 Red. masses --      4.0373                 1.9293                 3.5320
 Frc consts  --      0.8838                 0.5170                 1.2471
 IR Inten    --     13.7782                 2.3173                13.2822

                     13                     14                     15
                      A                      A                      A
 Frequencies --    781.6911               829.6289               883.5806
 Red. masses --      4.2529                 2.8158                 2.8621
 Frc consts  --      1.5311                 1.1419                 1.3165
 IR Inten    --      2.7043                14.1143                 8.6344

                     16                     17                     18
                      A                      A                      A
 Frequencies --    908.1384               930.1992               950.2814
 Red. masses --      1.7842                 2.5503                 3.2098
 Frc consts  --      0.8670                 1.3001                 1.7078
 IR Inten    --     13.2494                20.6914                 6.6021

                     19                     20                     21
                      A                      A                      A
 Frequencies --    993.3288              1029.0613              1062.7195
 Red. masses --      2.7242                 1.5713                 1.3836
 Frc consts  --      1.5837                 0.9804                 0.9206
 IR Inten    --      8.7088                 2.6645                13.9437

                     22                     23                     24
                      A                      A                      A
 Frequencies --   1084.2404              1086.1422              1100.9851
 Red. masses --      1.3435                 1.3054                 1.4509
 Frc consts  --      0.9306                 0.9073                 1.0362
 IR Inten    --      5.4120                 1.5387                 7.1898

                     25                     26                     27
                      A                      A                      A
 Frequencies --   1105.8970              1162.2457              1166.4905
 Red. masses --      2.2776                 1.5224                 2.5166
 Frc consts  --      1.6412                 1.2116                 2.0175
 IR Inten    --      8.7215                10.7133                57.2209

                     28                     29                     30
                      A                      A                      A
 Frequencies --   1201.2032              1229.7078              1263.5139
 Red. masses --      1.5434                 1.2780                 1.5206
 Frc consts  --      1.3121                 1.1387                 1.4303
 IR Inten    --      3.3945                 3.7880                 7.0544

                     31                     32                     33
                      A                      A                      A
 Frequencies --   1289.6312              1299.3938              1338.5434
 Red. masses --      1.2473                 1.1921                 1.4739
 Frc consts  --      1.2222                 1.1859                 1.5559
 IR Inten    --      2.6782                51.5530                 3.9513

                     34                     35                     36
                      A                      A                      A
 Frequencies --   1345.4940              1377.6767              1384.4544
 Red. masses --      1.3167                 1.5357                 1.5925
 Frc consts  --      1.4045                 1.7173                 1.7984
 IR Inten    --      3.2580                 1.2604                 3.5804

                     37                     38                     39
                      A                      A                      A
 Frequencies --   1397.7122              1471.5839              1477.8194
 Red. masses --      1.4651                 1.9912                 1.7759
 Frc consts  --      1.6863                 2.5406                 2.2852
 IR Inten    --     11.9984                24.0548                12.4923

                     40                     41                     42
                      A                      A                      A
 Frequencies --   1492.6051              1496.4012              3020.7973
 Red. masses --      1.2112                 1.5431                 1.0624
 Frc consts  --      1.5898                 2.0358                 5.7118
 IR Inten    --      2.3451                 2.8514                15.0421

                     43                     44                     45
                      A                      A                      A
 Frequencies --   3031.0989              3055.4502              3073.3583
 Red. masses --      1.0624                 1.0985                 1.1010
 Frc consts  --      5.7507                 6.0421                 6.1271
 IR Inten    --     40.1354                25.4744                30.7819

                     46                     47                     48
                      A                      A                      A
 Frequencies --   3089.2291              3096.3771              3108.8531
 Red. masses --      1.0860                 1.0873                 1.0895
 Frc consts  --      6.1064                 6.1420                 6.2040
 IR Inten    --     33.2221                27.0929                52.2496

                     49                     50                     51
                      A                      A                      A
 Frequencies --   3143.3299              3163.3016              3803.1325
 Red. masses --      1.0874                 1.0891                 1.0662
 Frc consts  --      6.3303                 6.4207                 9.0859
 IR Inten    --     14.2758                13.5516                20.1240

 - Thermochemistry -
 -------------------
 Temperature   298.150 Kelvin.  Pressure   1.00000 Atm.
 Atom     1 has atomic number  8 and mass  15.99491

 Molecular mass:   126.06808 amu.
 Principal axes and moments of inertia in atomic units:
                           1         2         3
     Eigenvalues --   587.399191307.616521577.09481
           X            0.99976  -0.01111  -0.01914
           Y            0.01085   0.99985  -0.01371
           Z            0.01929   0.01350   0.99972
 This molecule is an asymmetric top.
 Rotational symmetry number  1.
 Warning -- assumption of classical behavior for rotation
           may cause significant error
 Rotational temperatures (Kelvin)      0.14745     0.06624     0.05492
 Rotational constants (GHZ):           3.07243     1.38018     1.14435
 Zero-point vibrational energy     422813.0 (Joules/Mol)
                                  101.05474 (Kcal/Mol)
 Warning -- explicit consideration of  10 degrees of freedom as
           vibrations may cause significant error
 Vibrational temperatures:    228.43   264.92   366.96   410.61   441.34
          (Kelvin)            520.38   547.27   589.55   810.83   876.98
                              970.33  1113.79  1124.68  1193.65  1271.27
                             1306.61  1338.35  1367.24  1429.18  1480.59
                             1529.01  1559.98  1562.71  1584.07  1591.14
                             1672.21  1678.32  1728.26  1769.27  1817.91
                             1855.49  1869.54  1925.86  1935.86  1982.17
                             1991.92  2010.99  2117.28  2126.25  2147.52
                             2152.98  4346.25  4361.07  4396.11  4421.87
                             4444.71  4454.99  4472.94  4522.54  4551.28
                             5471.85

 Zero-point correction=                           0.161041 (Hartree/Particle)
 Thermal correction to Energy=                    0.168669
 Thermal correction to Enthalpy=                  0.169613
 Thermal correction to Gibbs Free Energy=         0.129289
 Sum of electronic and zero-point Energies=           -423.003656
 Sum of electronic and thermal Energies=              -422.996028
 Sum of electronic and thermal Enthalpies=            -422.995084
 Sum of electronic and thermal Free Energies=         -423.035408

                     E (Thermal)             CV                S
                      KCal/Mol        Cal/Mol-Kelvin    Cal/Mol-Kelvin
 Total                  105.841             30.640             84.868
 Electronic               0.000              0.000              0.000
 Translational            0.889              2.981             40.409
 Rotational               0.889              2.981             28.584
 Vibrational            104.064             24.678             15.876
 Vibration     1          0.621              1.893              2.564
 Vibration     2          0.631              1.861              2.286
 Vibration     3          0.665              1.754              1.695
 Vibration     4          0.683              1.701              1.501
 Vibration     5          0.697              1.661              1.380
 Vibration     6          0.736              1.551              1.115
 Vibration     7          0.750              1.512              1.038
 Vibration     8          0.774              1.449              0.927
 Vibration     9          0.919              1.110              0.517
 Vibration    10          0.969              1.012              0.434

 Optimization completed.
    -- Stationary point found.
 Normal termination of Gaussian 09 at Tue Jan 28 00:50:18 2020.
