 Gaussian 09, Revision D.01,
 Gaussian 09:  ES64L-G09RevD.01 24-Apr-2013

 -----------------------------
 # b3lyp 6-31G(2df,p) opt Freq
 -----------------------------

 -----
 titel
 -----
 Symbolic Z-matrix:
 Charge =  0 Multiplicity = 1

 SCF Done:  E(RB3LYP) =  -423.224097067     A.U. after   14 cycles
 Optimization completed.
    -- Stationary point found.
 Normal termination of Gaussian 09 at Mon Jan 27 23:59:20 2020.

 ----------------------------------------------------------------------
 #N Geom=AllCheck Guess=TCheck SCRF=Check GenChk RB3LYP/6-31G(2df,p) Fr
 eq
 ----------------------------------------------------------------------

 Structure from the checkpoint file:  "/scratch/puck/g09_4826882a-5023-4e91-8192-7d779d3728c3/Gau-163934.chk"
 -----
 titel
 -----
 Charge =  0 Multiplicity = 1

                         Standard orientation:
 ---------------------------------------------------------------------
 Center     Atomic      Atomic             Coordinates (Angstroms)
 Number     Number       Type             X           Y           Z
 ---------------------------------------------------------------------
      1          6           0       -2.237338   -0.971415    0.061190
      2          6           0       -0.912023   -0.485878   -0.537634
      3          6           0        0.330831   -1.205792    0.030773
      4          6           0        1.594062   -0.834990   -0.779847
      5          6           0        1.861331    0.619496   -0.286479
      6          6           0        0.704111    0.804011    0.729563
      7          8           0        0.538860   -0.509394    1.277650
      8          6           0       -0.587963    0.955132   -0.084552
      9          8           0       -1.214373    1.954161   -0.315992
     10          1           0       -2.173016   -1.008911    1.152449
     11          1           0       -3.047559   -0.289815   -0.211740
     12          1           0       -2.487404   -1.971888   -0.305084
     13          1           0       -0.963776   -0.514701   -1.631141
     14          1           0        0.194857   -2.268404    0.233280
     15          1           0        2.422602   -1.498421   -0.524325
     16          1           0        1.430178   -0.898666   -1.858371
     17          1           0        2.821470    0.699886    0.227044
     18          1           0        1.838828    1.363971   -1.086025
     19          1           0        0.849856    1.545425    1.512561
 ---------------------------------------------------------------------

 SCF Done:  E(RB3LYP) =  -423.224097067     A.U. after    1 cycles

 The electronic state is 1-A.
 Alpha  occ. eigenvalues --  -19.15017 -19.13620 -10.26679 -10.24029 -10.23831
 Alpha  occ. eigenvalues --  -10.19750 -10.19736 -10.19420 -10.18346  -1.06222
 Alpha  occ. eigenvalues --   -1.03996  -0.80743  -0.77886  -0.73875  -0.67636
 Alpha  occ. eigenvalues --   -0.60006  -0.58282  -0.54537  -0.51060  -0.48462
 Alpha  occ. eigenvalues --   -0.46968  -0.43260  -0.42990  -0.40687  -0.40230
 Alpha  occ. eigenvalues --   -0.39412  -0.37658  -0.36684  -0.35915  -0.35364
 Alpha  occ. eigenvalues --   -0.33614  -0.32384  -0.28465  -0.23060
 Alpha virt. eigenvalues --   -0.01884   0.07750   0.10543   0.11602   0.12855
 Alpha virt. eigenvalues --    0.13855   0.14036   0.15143   0.15681   0.16840
 Alpha virt. eigenvalues --    0.17770   0.18556   0.18773   0.20366   0.20949

 Mulliken charges:
               1
     1  C   -0.415302
     2  C   -0.094596
     3  C    0.065571
     4  C   -0.231929
     5  C   -0.236892
     6  C   -0.037197
     7  O   -0.265617
     8  C    0.421693
     9  O   -0.330075
    10  H    0.135428
    11  H    0.137132
    12  H    0.116207
    13  H    0.095840
    14  H    0.083565
    15  H    0.111949
    16  H    0.106543
    17  H    0.117793
    18  H    0.120287
    19  H    0.099599
 Sum of Mulliken charges =   0.00000

 Dipole moment (field-independent basis, Debye):
    X=              1.4450    Y=             -1.8733    Z=             -0.9622  Tot=              2.5540
 Quadrupole moment (field-independent basis, Debye-Ang):
   XX=            -52.5052   YY=            -56.1313   ZZ=            -54.0291
   XY=              4.7077   XZ=             -1.0695   YZ=              2.9710

  Exact polarizability:  81.370   1.010  76.838   0.725   1.870  63.175
 Approx polarizability: 107.594  -4.420 117.531   3.527  -0.805 101.277

                      1                      2                      3
                      A                      A                      A
 Frequencies --     92.4674               202.5833               229.6452
 Red. masses --      3.8218                 3.3102                 2.0648
 Frc consts  --      0.0193                 0.0800                 0.0642
 IR Inten    --      2.7934                 3.5581                 0.2397

                      4                      5                      6
                      A                      A                      A
 Frequencies --    230.9655               238.3416               393.9794
 Red. masses --      1.1242                 2.3477                 3.1778
 Frc consts  --      0.0353                 0.0786                 0.2906
 IR Inten    --      0.4663                 0.9963                 3.6878

                      7                      8                      9
                      A                      A                      A
 Frequencies --    432.9599               527.3057               604.1881
 Red. masses --      5.0766                 4.8725                 4.4518
 Frc consts  --      0.5607                 0.7982                 0.9575
 IR Inten    --      4.0094                 9.2791                 8.4884

                     10                     11                     12
                      A                      A                      A
 Frequencies --    672.7262               752.6919               778.7175
 Red. masses --      3.8066                 3.1465                 2.9747
 Frc consts  --      1.0150                 1.0503                 1.0628
 IR Inten    --      1.1678                 4.3795                 9.1874

                     13                     14                     15
                      A                      A                      A
 Frequencies --    799.2449               827.3214               869.3658
 Red. masses --      5.0238                 1.7500                 1.9475
 Frc consts  --      1.8908                 0.7057                 0.8672
 IR Inten    --      0.3529                 6.7322                16.1896

                     16                     17                     18
                      A                      A                      A
 Frequencies --    898.8888               929.7438               946.4775
 Red. masses --      2.6157                 2.7388                 4.0582
 Frc consts  --      1.2452                 1.3949                 2.1419
 IR Inten    --     11.8066                 4.9834                15.3078

                     19                     20                     21
                      A                      A                      A
 Frequencies --    981.9778              1003.5772              1018.1534
 Red. masses --      2.3653                 2.3362                 1.5689
 Frc consts  --      1.3438                 1.3863                 0.9583
 IR Inten    --      3.7314                21.5234                 4.7786

                     22                     23                     24
                      A                      A                      A
 Frequencies --   1041.2429              1070.0692              1102.0186
 Red. masses --      2.5807                 1.3609                 2.3111
 Frc consts  --      1.6485                 0.9181                 1.6536
 IR Inten    --     11.6182                 6.9405                21.5400

                     25                     26                     27
                      A                      A                      A
 Frequencies --   1127.7455              1175.5145              1219.4035
 Red. masses --      2.0310                 1.4881                 1.4579
 Frc consts  --      1.5219                 1.2116                 1.2772
 IR Inten    --      9.7890                 8.8776                 5.5384

                     28                     29                     30
                      A                      A                      A
 Frequencies --   1225.5027              1254.4921              1260.2302
 Red. masses --      1.3145                 1.6385                 1.3425
 Frc consts  --      1.1631                 1.5192                 1.2562
 IR Inten    --      2.6391                 2.3875                 2.6677

                     31                     32                     33
                      A                      A                      A
 Frequencies --   1285.2607              1306.7731              1313.9971
 Red. masses --      1.4675                 1.4200                 1.4509
 Frc consts  --      1.4283                 1.4287                 1.4760
 IR Inten    --      6.6168                 2.5984                 0.2829

                     34                     35                     36
                      A                      A                      A
 Frequencies --   1346.8571              1354.3995              1400.9916
 Red. masses --      1.5804                 1.5301                 1.2182
 Frc consts  --      1.6891                 1.6537                 1.4087
 IR Inten    --      7.7143                 1.5157                 3.0308

                     37                     38                     39
                      A                      A                      A
 Frequencies --   1484.1044              1494.2877              1502.7660
 Red. masses --      1.0794                 1.0459                 1.0938
 Frc consts  --      1.4007                 1.3759                 1.4553
 IR Inten    --      0.9500                 5.8792                 5.0980

                     40                     41                     42
                      A                      A                      A
 Frequencies --   1505.0144              1862.7135              3040.3151
 Red. masses --      1.0547                12.4766                 1.0342
 Frc consts  --      1.4076                25.5057                 5.6326
 IR Inten    --      2.7723               201.4456                24.4282

                     43                     44                     45
                      A                      A                      A
 Frequencies --   3055.7715              3067.8195              3076.1470
 Red. masses --      1.0828                 1.0593                 1.0605
 Frc consts  --      5.9572                 5.8742                 5.9127
 IR Inten    --      7.0461                19.5941                28.6093

                     46                     47                     48
                      A                      A                      A
 Frequencies --   3108.5701              3112.9608              3118.2137
 Red. masses --      1.1060                 1.1019                 1.0918
 Frc consts  --      6.2968                 6.2914                 6.2545
 IR Inten    --      1.8617                14.5879                27.6790

                     49                     50                     51
                      A                      A                      A
 Frequencies --   3123.4447              3127.8669              3149.5705
 Red. masses --      1.1023                 1.1057                 1.0906
 Frc consts  --      6.3361                 6.3737                 6.3743
 IR Inten    --      8.5799                37.4000                13.5862

 - Thermochemistry -
 -------------------
 Temperature   298.150 Kelvin.  Pressure   1.00000 Atm.
 Atom     1 has atomic number  6 and mass  12.00000

 Molecular mass:   126.06808 amu.
 Principal axes and moments of inertia in atomic units:
                           1         2         3
     Eigenvalues --   725.049831005.527581321.52952
           X            0.99327   0.11427  -0.01899
           Y           -0.11355   0.99290   0.03550
           Z            0.02291  -0.03311   0.99919
 This molecule is an asymmetric top.
 Rotational symmetry number  1.
 Warning -- assumption of classical behavior for rotation
           may cause significant error
 Rotational temperatures (Kelvin)      0.11946     0.08614     0.06554
 Rotational constants (GHZ):           2.48913     1.79482     1.36565
 Zero-point vibrational energy     423151.4 (Joules/Mol)
                                  101.13561 (Kcal/Mol)
 Warning -- explicit consideration of   9 degrees of freedom as
           vibrations may cause significant error
 Vibrational temperatures:    133.04   291.47   330.41   332.31   342.92
          (Kelvin)            566.85   622.93   758.67   869.29   967.90
                             1082.95  1120.40  1149.93  1190.33  1250.82
                             1293.30  1337.69  1361.77  1412.85  1443.92
                             1464.89  1498.11  1539.59  1585.56  1622.57
                             1691.30  1754.45  1763.22  1804.93  1813.19
                             1849.20  1880.15  1890.55  1937.82  1948.68
                             2015.71  2135.29  2149.94  2162.14  2165.38
                             2680.03  4374.33  4396.57  4413.90  4425.88
                             4472.53  4478.85  4486.41  4493.93  4500.30
                             4531.52

 Zero-point correction=                           0.161170 (Hartree/Particle)
 Thermal correction to Energy=                    0.168829
 Thermal correction to Enthalpy=                  0.169774
 Thermal correction to Gibbs Free Energy=         0.129105
 Sum of electronic and zero-point Energies=           -423.062927
 Sum of electronic and thermal Energies=              -423.055268
 Sum of electronic and thermal Enthalpies=            -423.054323
 Sum of electronic and thermal Free Energies=         -423.094992

                     E (Thermal)             CV                S
                      KCal/Mol        Cal/Mol-Kelvin    Cal/Mol-Kelvin
 Total                  105.942             30.092             85.594
 Electronic               0.000              0.000              0.000
 Translational            0.889              2.981             40.409
 Rotational               0.889              2.981             28.357
 Vibrational            104.165             24.130             16.829
 Vibration     1          0.602              1.955              3.607
 Vibration     2          0.639              1.836              2.110
 Vibration     3          0.652              1.796              1.882
 Vibration     4          0.653              1.794              1.871
 Vibration     5          0.656              1.782              1.815
 Vibration     6          0.761              1.483              0.985
 Vibration     7          0.794              1.398              0.849
 Vibration     8          0.882              1.190              0.593
 Vibration     9          0.963              1.023              0.443

 Optimization completed.
    -- Stationary point found.
 Normal termination of Gaussian 09 at Tue Jan 28 00:35:48 2020.
