 Gaussian 09, Revision D.01,
 Gaussian 09:  ES64L-G09RevD.01 24-Apr-2013

 -----------------------------
 # b3lyp 6-31G(2df,p) opt Freq
 -----------------------------

 -----
 titel
 -----
 Symbolic Z-matrix:
 Charge =  0 Multiplicity = 1

 SCF Done:  E(RB3LYP) =  -423.189521036     A.U. after   15 cycles
 SCF Done:  E(RB3LYP) =  -423.189521152     A.U. after    7 cycles
 SCF Done:  E(RB3LYP) =  -423.189521144     A.U. after    7 cycles
 SCF Done:  E(RB3LYP) =  -423.189520995     A.U. after    7 cycles
 Optimization completed.
    -- Stationary point found.
 Normal termination of Gaussian 09 at Mon Jan 27 14:26:40 2020.

 ----------------------------------------------------------------------
 #N Geom=AllCheck Guess=TCheck SCRF=Check GenChk RB3LYP/6-31G(2df,p) Fr
 eq
 ----------------------------------------------------------------------

 Structure from the checkpoint file:  "/scratch/puck/g09_bc45bf68-ebac-480f-93ad-4c8c70e9d7c2/Gau-170945.chk"
 -----
 titel
 -----
 Charge =  0 Multiplicity = 1

                         Standard orientation:
 ---------------------------------------------------------------------
 Center     Atomic      Atomic             Coordinates (Angstroms)
 Number     Number       Type             X           Y           Z
 ---------------------------------------------------------------------
      1          6           0       -2.617916    1.263911   -0.000016
      2          6           0       -1.625460    0.123027   -0.000023
      3          8           0       -1.920039   -1.046592    0.000012
      4          8           0       -0.369113    0.614629   -0.000062
      5          6           0        0.793514   -0.281913    0.000001
      6          6           0        0.814655   -1.137881   -1.277369
      7          6           0        0.814605   -1.137767    1.277447
      8          6           0        1.938396    0.635554   -0.000012
      9          6           0        2.905328    1.347641   -0.000056
     10          1           0       -3.630339    0.861897   -0.000454
     11          1           0       -2.464188    1.893703    0.880583
     12          1           0       -2.463598    1.894317   -0.880064
     13          1           0        1.753194   -1.696516   -1.319939
     14          1           0       -0.022959   -1.834811   -1.278165
     15          1           0        0.758090   -0.495454   -2.159513
     16          1           0       -0.023020   -1.834684    1.278277
     17          1           0        1.753133   -1.696414    1.320094
     18          1           0        0.758025   -0.495261    2.159533
     19          1           0        3.756150    1.983492    0.000215
 ---------------------------------------------------------------------

 SCF Done:  E(RB3LYP) =  -423.189520995     A.U. after    1 cycles

 The electronic state is 1-A.
 Alpha  occ. eigenvalues --  -19.17944 -19.12499 -10.30930 -10.27783 -10.19306
 Alpha  occ. eigenvalues --  -10.18568 -10.18159 -10.18158 -10.18135  -1.09651
 Alpha  occ. eigenvalues --   -1.01465  -0.82472  -0.74608  -0.73285  -0.69961
 Alpha  occ. eigenvalues --   -0.64988  -0.56579  -0.51742  -0.49460  -0.48146
 Alpha  occ. eigenvalues --   -0.47443  -0.44427  -0.43344  -0.42207  -0.40514
 Alpha  occ. eigenvalues --   -0.40133  -0.38100  -0.37527  -0.35670  -0.34250
 Alpha  occ. eigenvalues --   -0.30442  -0.28292  -0.27109  -0.26536
 Alpha virt. eigenvalues --    0.01210   0.03322   0.05394   0.09616   0.11849
 Alpha virt. eigenvalues --    0.12372   0.12634   0.15597   0.16033   0.16599
 Alpha virt. eigenvalues --    0.17322   0.18812   0.19448   0.20909   0.21266

 Mulliken charges:
               1
     1  C   -0.470885
     2  C    0.441566
     3  O   -0.359209
     4  O   -0.289810
     5  C    0.175435
     6  C   -0.421692
     7  C   -0.421692
     8  C    0.343303
     9  C   -0.465958
    10  H    0.146344
    11  H    0.150853
    12  H    0.150847
    13  H    0.127778
    14  H    0.154160
    15  H    0.128423
    16  H    0.154163
    17  H    0.127778
    18  H    0.128420
    19  H    0.200176
 Sum of Mulliken charges =   0.00000

 Dipole moment (field-independent basis, Debye):
    X=              0.8188    Y=              1.1423    Z=              0.0004  Tot=              1.4055
 Quadrupole moment (field-independent basis, Debye-Ang):
   XX=            -49.5309   YY=            -52.9650   ZZ=            -52.1782
   XY=             -3.7331   XZ=              0.0010   YZ=              0.0008

  Exact polarizability:  96.977   8.227  77.069  -0.001   0.000  61.233
 Approx polarizability: 132.198  24.385 120.789  -0.002  -0.002  86.217

                      1                      2                      3
                      A                      A                      A
 Frequencies --     53.9212                92.2902               109.7077
 Red. masses --      1.1917                 3.3119                 3.3661
 Frc consts  --      0.0020                 0.0166                 0.0239
 IR Inten    --      1.9111                 2.2407                 0.6316

                      4                      5                      6
                      A                      A                      A
 Frequencies --    128.2820               186.8389               234.2187
 Red. masses --      3.8294                 2.1089                 5.1253
 Frc consts  --      0.0371                 0.0434                 0.1657
 IR Inten    --      0.7721                 0.4637                 7.8383

                      7                      8                      9
                      A                      A                      A
 Frequencies --    244.1623               257.3319               309.7170
 Red. masses --      1.2544                 1.0240                 2.5672
 Frc consts  --      0.0441                 0.0400                 0.1451
 IR Inten    --      0.3687                 0.0946                 1.8157

                     10                     11                     12
                      A                      A                      A
 Frequencies --    383.4977               392.3206               392.3533
 Red. masses --      2.7549                 3.9626                 3.5919
 Frc consts  --      0.2387                 0.3593                 0.3258
 IR Inten    --      0.3357                 2.8322                 1.2940

                     13                     14                     15
                      A                      A                      A
 Frequencies --    552.8247               559.2446               610.7692
 Red. masses --      4.4965                 4.4133                 2.7854
 Frc consts  --      0.8097                 0.8132                 0.6122
 IR Inten    --      7.5673                 2.3645                 6.8033

                     16                     17                     18
                      A                      A                      A
 Frequencies --    620.3349               625.1933               673.6273
 Red. masses --      4.4275                 1.2188                 1.2657
 Frc consts  --      1.0038                 0.2807                 0.3384
 IR Inten    --      3.3532                45.9607                34.1766

                     19                     20                     21
                      A                      A                      A
 Frequencies --    746.1225               836.8658               937.2491
 Red. masses --      4.2249                 3.1901                 1.5356
 Frc consts  --      1.3858                 1.3163                 0.7948
 IR Inten    --      5.5029                19.4456                 0.0088

                     22                     23                     24
                      A                      A                      A
 Frequencies --    949.3083               964.7302              1028.6819
 Red. masses --      3.6390                 2.4665                 1.2899
 Frc consts  --      1.9322                 1.3525                 0.8042
 IR Inten    --     11.5346                 8.8821                 0.1854

                     25                     26                     27
                      A                      A                      A
 Frequencies --   1032.2157              1062.9752              1169.0662
 Red. masses --      1.8062                 1.8170                 2.0770
 Frc consts  --      1.1338                 1.2096                 1.6725
 IR Inten    --     81.4481                 6.1440               190.4688

                     28                     29                     30
                      A                      A                      A
 Frequencies --   1192.8898              1259.9645              1281.8060
 Red. masses --      3.5248                 3.3899                 3.4789
 Frc consts  --      2.9552                 3.1707                 3.3677
 IR Inten    --     18.2340               306.5062                77.7816

                     31                     32                     33
                      A                      A                      A
 Frequencies --   1389.7097              1391.4533              1409.8787
 Red. masses --      1.2304                 1.3446                 1.2277
 Frc consts  --      1.4000                 1.5338                 1.4378
 IR Inten    --     10.8454                38.8967                26.9999

                     34                     35                     36
                      A                      A                      A
 Frequencies --   1468.6430              1473.7782              1474.8159
 Red. masses --      1.0508                 1.0466                 1.0465
 Frc consts  --      1.3354                 1.3393                 1.3411
 IR Inten    --     12.9074                 0.0005                 6.9546

                     37                     38                     39
                      A                      A                      A
 Frequencies --   1492.4115              1494.0560              1512.8682
 Red. masses --      1.0610                 1.0472                 1.0509
 Frc consts  --      1.3923                 1.3772                 1.4171
 IR Inten    --      9.8451                 0.0731                 5.9014

                     40                     41                     42
                      A                      A                      A
 Frequencies --   1812.1534              2243.1679              3056.4477
 Red. masses --     10.9205                 5.8866                 1.0351
 Frc consts  --     21.1291                17.4517                 5.6971
 IR Inten    --    223.5503                 1.6791                15.4294

                     43                     44                     45
                      A                      A                      A
 Frequencies --   3058.3094              3060.0270              3124.3393
 Red. masses --      1.0358                 1.0357                 1.0994
 Frc consts  --      5.7082                 5.7140                 6.3227
 IR Inten    --      2.1980                 6.3242                 3.9033

                     46                     47                     48
                      A                      A                      A
 Frequencies --   3127.8182              3130.9286              3163.1489
 Red. masses --      1.1022                 1.1021                 1.1019
 Frc consts  --      6.3530                 6.3653                 6.4956
 IR Inten    --      8.9177                22.4070                 0.7042

                     49                     50                     51
                      A                      A                      A
 Frequencies --   3165.9029              3168.9667              3501.0841
 Red. masses --      1.1014                 1.1033                 1.1636
 Frc consts  --      6.5040                 6.5280                 8.4036
 IR Inten    --      8.6688                 8.0449                64.1990

 - Thermochemistry -
 -------------------
 Temperature   298.150 Kelvin.  Pressure   1.00000 Atm.
 Atom     1 has atomic number  6 and mass  12.00000

 Molecular mass:   126.06808 amu.
 Principal axes and moments of inertia in atomic units:
                           1         2         3
     Eigenvalues --   653.574471605.113061852.08570
           X            0.99906  -0.04331   0.00000
           Y            0.04331   0.99906   0.00001
           Z            0.00000  -0.00001   1.00000
 This molecule is an asymmetric top.
 Rotational symmetry number  1.
 Warning -- assumption of classical behavior for rotation
           may cause significant error
 Rotational temperatures (Kelvin)      0.13252     0.05396     0.04677
 Rotational constants (GHZ):           2.76134     1.12437     0.97444
 Zero-point vibrational energy     404388.1 (Joules/Mol)
                                   96.65109 (Kcal/Mol)
 Warning -- explicit consideration of  16 degrees of freedom as
           vibrations may cause significant error
 Vibrational temperatures:     77.58   132.78   157.84   184.57   268.82
          (Kelvin)            336.99   351.29   370.24   445.61   551.77
                              564.46   564.51   795.39   804.63   878.76
                              892.52   899.51   969.20  1073.50  1204.06
                             1348.49  1365.84  1388.03  1480.04  1485.13
                             1529.38  1682.02  1716.30  1812.81  1844.23
                             1999.48  2001.99  2028.50  2113.05  2120.44
                             2121.93  2147.24  2149.61  2176.68  2607.28
                             3227.41  4397.54  4400.22  4402.69  4495.22
                             4500.23  4504.70  4551.06  4555.02  4559.43
                             5037.27

 Zero-point correction=                           0.154023 (Hartree/Particle)
 Thermal correction to Energy=                    0.164714
 Thermal correction to Enthalpy=                  0.165658
 Thermal correction to Gibbs Free Energy=         0.118204
 Sum of electronic and zero-point Energies=           -423.035498
 Sum of electronic and thermal Energies=              -423.024807
 Sum of electronic and thermal Enthalpies=            -423.023863
 Sum of electronic and thermal Free Energies=         -423.071317

                     E (Thermal)             CV                S
                      KCal/Mol        Cal/Mol-Kelvin    Cal/Mol-Kelvin
 Total                  103.359             38.400             99.875
 Electronic               0.000              0.000              0.000
 Translational            0.889              2.981             40.409
 Rotational               0.889              2.981             29.054
 Vibrational            101.582             32.439             30.413
 Vibration     1          0.596              1.976              4.668
 Vibration     2          0.602              1.955              3.611
 Vibration     3          0.606              1.941              3.274
 Vibration     4          0.611              1.925              2.972
 Vibration     5          0.632              1.858              2.259
 Vibration     6          0.654              1.789              1.846
 Vibration     7          0.659              1.772              1.772
 Vibration     8          0.667              1.750              1.680
 Vibration     9          0.699              1.655              1.364
 Vibration    10          0.753              1.505              1.025
 Vibration    11          0.760              1.487              0.991
 Vibration    12          0.760              1.487              0.991
 Vibration    13          0.908              1.134              0.538
 Vibration    14          0.915              1.120              0.525
 Vibration    15          0.970              1.009              0.432
 Vibration    16          0.980              0.989              0.416

 Optimization completed.
    -- Stationary point found.
 Normal termination of Gaussian 09 at Mon Jan 27 15:07:42 2020.
