 Gaussian 09, Revision D.01,
 Gaussian 09:  ES64L-G09RevD.01 24-Apr-2013

 -----------------------------
 # b3lyp 6-31G(2df,p) opt Freq
 -----------------------------

 -----
 titel
 -----
 Symbolic Z-matrix:
 Charge =  0 Multiplicity = 1

 SCF Done:  E(RB3LYP) =  -423.152864544     A.U. after   12 cycles
 Optimization completed.
    -- Stationary point found.
 Normal termination of Gaussian 09 at Mon Jan 27 22:51:51 2020.

 ----------------------------------------------------------------------
 #N Geom=AllCheck Guess=TCheck SCRF=Check GenChk RB3LYP/6-31G(2df,p) Fr
 eq
 ----------------------------------------------------------------------

 Structure from the checkpoint file:  "/scratch/puck/g09_7f6876d0-78cb-4724-827c-007eff056520/Gau-191475.chk"
 -----
 titel
 -----
 Charge =  0 Multiplicity = 1

                         Standard orientation:
 ---------------------------------------------------------------------
 Center     Atomic      Atomic             Coordinates (Angstroms)
 Number     Number       Type             X           Y           Z
 ---------------------------------------------------------------------
      1          8           0        2.452885   -0.384454    0.422709
      2          6           0        1.403460   -0.294615   -0.514845
      3          6           0        0.152569   -1.199513   -0.362271
      4          6           0       -0.250860   -0.424929    0.932766
      5          6           0       -1.774059   -0.321144    1.005987
      6          6           0       -2.100495   -0.080627   -0.495263
      7          6           0       -0.686321   -0.088478   -1.078040
      8          6           0        0.264332    0.649209   -0.098896
      9          8           0        0.292249    2.023334    0.046193
     10          1           0        3.040352   -1.097733    0.156060
     11          1           0        1.785095   -0.171617   -1.537632
     12          1           0        0.078562   -2.272713   -0.530314
     13          1           0        0.318839   -0.596847    1.844126
     14          1           0       -2.236147   -1.231649    1.400333
     15          1           0       -2.091754    0.511384    1.641520
     16          1           0       -2.725239   -0.869604   -0.925422
     17          1           0       -2.605732    0.873747   -0.670627
     18          1           0       -0.557509    0.065351   -2.151294
     19          1           0        0.980696    2.239229    0.685415
 ---------------------------------------------------------------------

 SCF Done:  E(RB3LYP) =  -423.152864544     A.U. after    1 cycles

 The electronic state is 1-A.
 Alpha  occ. eigenvalues --  -19.14189 -19.13907 -10.23527 -10.22928 -10.19015
 Alpha  occ. eigenvalues --  -10.18713 -10.18099 -10.17304 -10.17186  -1.03394
 Alpha  occ. eigenvalues --   -1.01743  -0.91055  -0.76240  -0.68819  -0.62871
 Alpha  occ. eigenvalues --   -0.62040  -0.57139  -0.53187  -0.51620  -0.49227
 Alpha  occ. eigenvalues --   -0.47921  -0.44847  -0.42317  -0.39826  -0.37224
 Alpha  occ. eigenvalues --   -0.35724  -0.34330  -0.33301  -0.32436  -0.31846
 Alpha  occ. eigenvalues --   -0.31412  -0.28250  -0.26086  -0.25106
 Alpha virt. eigenvalues --    0.07423   0.09315   0.11262   0.13284   0.13578
 Alpha virt. eigenvalues --    0.14792   0.14944   0.16393   0.16704   0.17654
 Alpha virt. eigenvalues --    0.18546   0.19292   0.20423   0.21802   0.22920

 Mulliken charges:
               1
     1  O   -0.451211
     2  C    0.054383
     3  C   -0.128526
     4  C   -0.073899
     5  C   -0.244724
     6  C   -0.241003
     7  C   -0.050029
     8  C    0.386589
     9  O   -0.486047
    10  H    0.284866
    11  H    0.062056
    12  H    0.069579
    13  H    0.072053
    14  H    0.093113
    15  H    0.101333
    16  H    0.093653
    17  H    0.106758
    18  H    0.061573
    19  H    0.289483
 Sum of Mulliken charges =   0.00000

 Dipole moment (field-independent basis, Debye):
    X=              0.8697    Y=             -1.4917    Z=             -0.1585  Tot=              1.7340
 Quadrupole moment (field-independent basis, Debye-Ang):
   XX=            -50.1055   YY=            -52.4042   ZZ=            -52.4134
   XY=             -1.2812   XZ=             -1.0157   YZ=              2.6373

  Exact polarizability:  84.056  -0.627  69.555  -0.336   0.807  70.226
 Approx polarizability: 112.179  -0.772 108.986   2.054   1.468 107.005

                      1                      2                      3
                      A                      A                      A
 Frequencies --    198.0751               198.6831               225.1511
 Red. masses --      2.6962                 2.0968                 2.4490
 Frc consts  --      0.0623                 0.0488                 0.0731
 IR Inten    --     17.5852                 1.2648                 7.2972

                      4                      5                      6
                      A                      A                      A
 Frequencies --    242.9194               268.9058               304.7725
 Red. masses --      3.2514                 1.3490                 1.2774
 Frc consts  --      0.1130                 0.0575                 0.0699
 IR Inten    --     12.6128                84.8800                80.0997

                      7                      8                      9
                      A                      A                      A
 Frequencies --    396.9867               510.4470               529.1583
 Red. masses --      3.2705                 2.6420                 5.7299
 Frc consts  --      0.3037                 0.4056                 0.9453
 IR Inten    --     17.2762                 4.9358                 6.0183

                     10                     11                     12
                      A                      A                      A
 Frequencies --    651.7483               712.2438               739.3281
 Red. masses --      4.1253                 4.2244                 4.3943
 Frc consts  --      1.0324                 1.2626                 1.4152
 IR Inten    --      6.4363                 3.2478                 3.4396

                     13                     14                     15
                      A                      A                      A
 Frequencies --    764.9982               821.5202               842.7783
 Red. masses --      3.4786                 1.7717                 1.8981
 Frc consts  --      1.1994                 0.7045                 0.7943
 IR Inten    --      3.4134                 4.4903                 8.1931

                     16                     17                     18
                      A                      A                      A
 Frequencies --    904.8204               927.8078               942.5757
 Red. masses --      2.6370                 3.1832                 2.2105
 Frc consts  --      1.2720                 1.6145                 1.1571
 IR Inten    --     17.3933                 3.6358                 1.6725

                     19                     20                     21
                      A                      A                      A
 Frequencies --    963.7014               990.0890              1005.5124
 Red. masses --      1.5265                 1.8750                 2.5645
 Frc consts  --      0.8353                 1.0829                 1.5277
 IR Inten    --      0.6761                 6.1742                 0.9557

                     22                     23                     24
                      A                      A                      A
 Frequencies --   1033.4123              1035.0155              1098.1859
 Red. masses --      1.7778                 1.7423                 1.4263
 Frc consts  --      1.1186                 1.0997                 1.0135
 IR Inten    --      2.7165                 6.2247                25.6853

                     25                     26                     27
                      A                      A                      A
 Frequencies --   1108.8865              1112.2999              1162.3556
 Red. masses --      1.3858                 2.6987                 1.4873
 Frc consts  --      1.0040                 1.9672                 1.1839
 IR Inten    --      3.9109                60.2399                 2.2752

                     28                     29                     30
                      A                      A                      A
 Frequencies --   1171.1968              1189.6012              1245.6198
 Red. masses --      1.7792                 1.5120                 1.6815
 Frc consts  --      1.4379                 1.2606                 1.5372
 IR Inten    --     71.7630                17.3332                 0.9632

                     31                     32                     33
                      A                      A                      A
 Frequencies --   1249.5774              1253.2729              1273.6969
 Red. masses --      1.6955                 1.2095                 2.0934
 Frc consts  --      1.5599                 1.1193                 2.0009
 IR Inten    --     10.6293                 3.2522               121.7466

                     34                     35                     36
                      A                      A                      A
 Frequencies --   1282.2726              1311.0733              1314.2107
 Red. masses --      1.7290                 1.4955                 1.5866
 Frc consts  --      1.6749                 1.5146                 1.6146
 IR Inten    --     37.6278                86.9217                 7.7647

                     37                     38                     39
                      A                      A                      A
 Frequencies --   1343.2326              1398.5477              1462.3691
 Red. masses --      1.5881                 1.7261                 1.9184
 Frc consts  --      1.6882                 1.9892                 2.4172
 IR Inten    --      5.6034                 5.6726                39.2934

                     40                     41                     42
                      A                      A                      A
 Frequencies --   1487.0952              1509.1422              3012.1168
 Red. masses --      1.0807                 1.1069                 1.0846
 Frc consts  --      1.4081                 1.4854                 5.7977
 IR Inten    --      0.2506                 1.8794                64.7217

                     43                     44                     45
                      A                      A                      A
 Frequencies --   3044.1087              3054.1530              3078.1337
 Red. masses --      1.0586                 1.0602                 1.1057
 Frc consts  --      5.7796                 5.8266                 6.1727
 IR Inten    --     31.1739                56.8671                 0.9070

                     46                     47                     48
                      A                      A                      A
 Frequencies --   3097.7862              3098.8124              3128.0381
 Red. masses --      1.1016                 1.0908                 1.0903
 Frc consts  --      6.2285                 6.1712                 6.2853
 IR Inten    --     38.1952                51.1708                38.5167

                     49                     50                     51
                      A                      A                      A
 Frequencies --   3140.3028              3803.0427              3826.4556
 Red. masses --      1.0909                 1.0656                 1.0663
 Frc consts  --      6.3383                 9.0808                 9.1987
 IR Inten    --     22.4173                34.5877                29.4441

 - Thermochemistry -
 -------------------
 Temperature   298.150 Kelvin.  Pressure   1.00000 Atm.
 Atom     1 has atomic number  8 and mass  15.99491

 Molecular mass:   126.06808 amu.
 Principal axes and moments of inertia in atomic units:
                           1         2         3
     Eigenvalues --   622.818911148.211891310.63765
           X            0.99994   0.00031  -0.01102
           Y           -0.00009   0.99980   0.02021
           Z            0.01103  -0.02021   0.99974
 This molecule is an asymmetric top.
 Rotational symmetry number  1.
 Warning -- assumption of classical behavior for rotation
           may cause significant error
 Rotational temperatures (Kelvin)      0.13907     0.07543     0.06609
 Rotational constants (GHZ):           2.89770     1.57178     1.37699
 Zero-point vibrational energy     421481.7 (Joules/Mol)
                                  100.73654 (Kcal/Mol)
 Warning -- explicit consideration of   9 degrees of freedom as
           vibrations may cause significant error
 Vibrational temperatures:    284.99   285.86   323.94   349.51   386.89
          (Kelvin)            438.50   571.17   734.42   761.34   937.72
                             1024.76  1063.73  1100.66  1181.98  1212.57
                             1301.83  1334.91  1356.15  1386.55  1424.52
                             1446.71  1486.85  1489.15  1580.04  1595.44
                             1600.35  1672.37  1685.09  1711.57  1792.17
                             1797.86  1803.18  1832.56  1844.90  1886.34
                             1890.85  1932.61  2012.20  2104.02  2139.60
                             2171.32  4333.76  4379.79  4394.24  4428.74
                             4457.02  4458.49  4500.54  4518.19  5471.72
                             5505.41

 Zero-point correction=                           0.160534 (Hartree/Particle)
 Thermal correction to Energy=                    0.168264
 Thermal correction to Enthalpy=                  0.169208
 Thermal correction to Gibbs Free Energy=         0.128869
 Sum of electronic and zero-point Energies=           -422.992331
 Sum of electronic and thermal Energies=              -422.984601
 Sum of electronic and thermal Enthalpies=            -422.983657
 Sum of electronic and thermal Free Energies=         -423.023996

                     E (Thermal)             CV                S
                      KCal/Mol        Cal/Mol-Kelvin    Cal/Mol-Kelvin
 Total                  105.587             31.253             84.900
 Electronic               0.000              0.000              0.000
 Translational            0.889              2.981             40.409
 Rotational               0.889              2.981             28.329
 Vibrational            103.809             25.291             16.162
 Vibration     1          0.637              1.843              2.151
 Vibration     2          0.637              1.842              2.145
 Vibration     3          0.650              1.803              1.917
 Vibration     4          0.659              1.774              1.781
 Vibration     5          0.673              1.730              1.603
 Vibration     6          0.696              1.665              1.391
 Vibration     7          0.763              1.477              0.974
 Vibration     8          0.866              1.227              0.633
 Vibration     9          0.884              1.185              0.589

 Normal termination of Gaussian 09 at Mon Jan 27 23:38:09 2020.
