 Gaussian 09, Revision D.01,
 Gaussian 09:  ES64L-G09RevD.01 24-Apr-2013

 -----------------------------
 # b3lyp 6-31G(2df,p) opt Freq
 -----------------------------

 -----
 titel
 -----
 Symbolic Z-matrix:
 Charge =  0 Multiplicity = 1

 SCF Done:  E(RB3LYP) =  -423.153505959     A.U. after   14 cycles
 Optimization completed.
    -- Stationary point found.
 Normal termination of Gaussian 09 at Tue Jan 28 08:13:01 2020.

 ----------------------------------------------------------------------
 #N Geom=AllCheck Guess=TCheck SCRF=Check GenChk RB3LYP/6-31G(2df,p) Fr
 eq
 ----------------------------------------------------------------------

 Structure from the checkpoint file:  "/scratch/puck/g09_671bffa7-6218-45f1-bb6d-146e31166224/Gau-14233.chk"
 -----
 titel
 -----
 Charge =  0 Multiplicity = 1

                         Standard orientation:
 ---------------------------------------------------------------------
 Center     Atomic      Atomic             Coordinates (Angstroms)
 Number     Number       Type             X           Y           Z
 ---------------------------------------------------------------------
      1          6           0       -2.277789   -1.625668   -0.146002
      2          6           0       -1.359783   -0.510729    0.324177
      3          6           0       -1.675408    0.857495   -0.291777
      4          6           0       -0.572552    1.847666    0.086628
      5          8           0        0.707347    1.322202   -0.248538
      6          6           0        0.918037    0.077756    0.376697
      7          8           0       -0.023399   -0.888890   -0.025301
      8          6           0        2.256896   -0.398682    0.037397
      9          6           0        3.366012   -0.788530   -0.200195
     10          1           0       -2.220933   -1.732648   -1.233332
     11          1           0       -1.986394   -2.576417    0.308081
     12          1           0       -3.314257   -1.408760    0.129809
     13          1           0       -1.418120   -0.423531    1.424304
     14          1           0       -1.718004    0.757350   -1.381913
     15          1           0       -2.648810    1.219770    0.057713
     16          1           0       -0.666280    2.792511   -0.453807
     17          1           0       -0.613471    2.066668    1.167482
     18          1           0        0.836837    0.216354    1.474479
     19          1           0        4.345370   -1.133635   -0.423650
 ---------------------------------------------------------------------

 SCF Done:  E(RB3LYP) =  -423.153505959     A.U. after    1 cycles

 The electronic state is 1-A.
 Alpha  occ. eigenvalues --  -19.14845 -19.14673 -10.30024 -10.24075 -10.23573
 Alpha  occ. eigenvalues --  -10.18762 -10.18347 -10.18052 -10.17932  -1.07895
 Alpha  occ. eigenvalues --   -1.00914  -0.81424  -0.75284  -0.72947  -0.68334
 Alpha  occ. eigenvalues --   -0.63753  -0.58426  -0.54455  -0.50874  -0.50102
 Alpha  occ. eigenvalues --   -0.49010  -0.46286  -0.45129  -0.42217  -0.39744
 Alpha  occ. eigenvalues --   -0.38837  -0.37107  -0.35523  -0.33701  -0.32086
 Alpha  occ. eigenvalues --   -0.28039  -0.27973  -0.26932  -0.26338
 Alpha virt. eigenvalues --    0.03726   0.04136   0.09333   0.10930   0.11648
 Alpha virt. eigenvalues --    0.12491   0.14043   0.14829   0.15575   0.16907
 Alpha virt. eigenvalues --    0.17533   0.17863   0.18527   0.20515   0.22659

 Mulliken charges:
               1
     1  C   -0.405446
     2  C    0.146096
     3  C   -0.205662
     4  C   -0.089331
     5  O   -0.245709
     6  C    0.025369
     7  O   -0.263408
     8  C    0.293948
     9  C   -0.390495
    10  H    0.129529
    11  H    0.128152
    12  H    0.115203
    13  H    0.065936
    14  H    0.114215
    15  H    0.098449
    16  H    0.115741
    17  H    0.090784
    18  H    0.078439
    19  H    0.198190
 Sum of Mulliken charges =   0.00000

 Dipole moment (field-independent basis, Debye):
    X=             -1.6666    Y=              0.4290    Z=              0.9816  Tot=              1.9812
 Quadrupole moment (field-independent basis, Debye-Ang):
   XX=            -46.1796   YY=            -53.6379   ZZ=            -53.0878
   XY=             -3.4661   XZ=             -0.3968   YZ=              0.6123

  Exact polarizability: 102.134  -7.479  72.921  -3.209   1.387  60.373
 Approx polarizability: 137.995 -14.819 100.274  -9.363   2.944  94.201

                      1                      2                      3
                      A                      A                      A
 Frequencies --    115.5971               138.2018               159.0510
 Red. masses --      3.4658                 3.7116                 3.4835
 Frc consts  --      0.0273                 0.0418                 0.0519
 IR Inten    --      2.8931                 1.5031                 1.6832

                      4                      5                      6
                      A                      A                      A
 Frequencies --    219.0047               269.5571               303.5976
 Red. masses --      1.0937                 2.4572                 2.6854
 Frc consts  --      0.0309                 0.1052                 0.1458
 IR Inten    --      0.2708                 0.9087                 1.1118

                      7                      8                      9
                      A                      A                      A
 Frequencies --    338.6186               430.4995               447.6534
 Red. masses --      3.2095                 4.0893                 4.5156
 Frc consts  --      0.2168                 0.4465                 0.5332
 IR Inten    --      0.4944                 1.1113                 2.5658

                     10                     11                     12
                      A                      A                      A
 Frequencies --    477.6207               533.5781               570.8994
 Red. masses --      3.5393                 3.8108                 3.1888
 Frc consts  --      0.4757                 0.6392                 0.6123
 IR Inten    --      0.8920                 1.6579                 0.5313

                     13                     14                     15
                      A                      A                      A
 Frequencies --    647.7626               671.2838               673.4945
 Red. masses --      1.3081                 3.1453                 1.3166
 Frc consts  --      0.3234                 0.8351                 0.3519
 IR Inten    --     28.3042                13.6135                32.1487

                     16                     17                     18
                      A                      A                      A
 Frequencies --    825.6215               897.6990               914.4446
 Red. masses --      2.2805                 2.4866                 2.5405
 Frc consts  --      0.9159                 1.1806                 1.2516
 IR Inten    --      1.9061                 7.2289                 8.4369

                     19                     20                     21
                      A                      A                      A
 Frequencies --    950.4453               971.2783              1005.0571
 Red. masses --      2.7458                 1.4499                 1.7814
 Frc consts  --      1.4614                 0.8059                 1.0602
 IR Inten    --     27.6481                 4.4207                 6.7725

                     22                     23                     24
                      A                      A                      A
 Frequencies --   1019.2505              1052.6816              1097.1805
 Red. masses --      4.9096                 6.3922                 2.5295
 Frc consts  --      3.0051                 4.1734                 1.7941
 IR Inten    --    103.2371                50.9232                32.5885

                     25                     26                     27
                      A                      A                      A
 Frequencies --   1142.8814              1174.1031              1187.5280
 Red. masses --      3.7150                 2.1317                 2.5024
 Frc consts  --      2.8590                 1.7314                 2.0792
 IR Inten    --    197.6815                37.9740                72.5222

                     28                     29                     30
                      A                      A                      A
 Frequencies --   1244.3357              1271.2582              1337.2894
 Red. masses --      1.3221                 1.2221                 1.2674
 Frc consts  --      1.2061                 1.1637                 1.3354
 IR Inten    --      7.1116                13.7019                 5.5021

                     31                     32                     33
                      A                      A                      A
 Frequencies --   1347.3462              1386.6982              1398.6849
 Red. masses --      1.1375                 1.3458                 1.3773
 Frc consts  --      1.2166                 1.5247                 1.5875
 IR Inten    --     37.6584                66.3764                16.6749

                     34                     35                     36
                      A                      A                      A
 Frequencies --   1405.5143              1410.1497              1424.1813
 Red. masses --      1.2884                 1.2843                 1.5998
 Frc consts  --      1.4996                 1.5047                 1.9118
 IR Inten    --     33.3034                 3.8697                32.2595

                     37                     38                     39
                      A                      A                      A
 Frequencies --   1467.8399              1483.2111              1498.6043
 Red. masses --      1.1042                 1.0488                 1.0626
 Frc consts  --      1.4017                 1.3594                 1.4061
 IR Inten    --      2.6225                 4.1218                 4.9616

                     40                     41                     42
                      A                      A                      A
 Frequencies --   1501.3581              2259.4509              2889.3994
 Red. masses --      1.0900                 5.8655                 1.0784
 Frc consts  --      1.4476                17.6425                 5.3045
 IR Inten    --      1.6791                14.4945                45.6273

                     43                     44                     45
                      A                      A                      A
 Frequencies --   2939.8740              2964.4772              3038.9896
 Red. masses --      1.0812                 1.0715                 1.0538
 Frc consts  --      5.5058                 5.5478                 5.7339
 IR Inten    --     34.5124                70.1578                 9.6840

                     46                     47                     48
                      A                      A                      A
 Frequencies --   3044.4766              3089.1098              3100.5016
 Red. masses --      1.0398                 1.1027                 1.0939
 Frc consts  --      5.6784                 6.1999                 6.1958
 IR Inten    --     26.7409                24.0929                30.5389

                     49                     50                     51
                      A                      A                      A
 Frequencies --   3117.9978              3123.5674              3504.8950
 Red. masses --      1.1017                 1.1021                 1.1655
 Frc consts  --      6.3105                 6.3355                 8.4355
 IR Inten    --     25.4507                18.7807                58.7009

 - Thermochemistry -
 -------------------
 Temperature   298.150 Kelvin.  Pressure   1.00000 Atm.
 Atom     1 has atomic number  6 and mass  12.00000

 Molecular mass:   126.06808 amu.
 Principal axes and moments of inertia in atomic units:
                           1         2         3
     Eigenvalues --   633.965381444.946221969.11916
           X            0.99997   0.00805   0.00217
           Y           -0.00807   0.99991   0.01032
           Z           -0.00208  -0.01033   0.99994
 This molecule is an asymmetric top.
 Rotational symmetry number  1.
 Warning -- assumption of classical behavior for rotation
           may cause significant error
 Rotational temperatures (Kelvin)      0.13662     0.05994     0.04399
 Rotational constants (GHZ):           2.84675     1.24900     0.91652
 Zero-point vibrational energy     415605.4 (Joules/Mol)
                                   99.33208 (Kcal/Mol)
 Warning -- explicit consideration of  12 degrees of freedom as
           vibrations may cause significant error
 Vibrational temperatures:    166.32   198.84   228.84   315.10   387.83
          (Kelvin)            436.81   487.20   619.39   644.07   687.19
                              767.70   821.40   931.98   965.83   969.01
                             1187.88  1291.59  1315.68  1367.48  1397.45
                             1446.05  1466.47  1514.57  1578.60  1644.35
                             1689.27  1708.59  1790.32  1829.05  1924.06
                             1938.53  1995.15  2012.39  2022.22  2028.89
                             2049.08  2111.89  2134.01  2156.15  2160.12
                             3250.84  4157.20  4229.82  4265.22  4372.42
                             4380.32  4444.53  4460.92  4486.10  4494.11
                             5042.76

 Zero-point correction=                           0.158296 (Hartree/Particle)
 Thermal correction to Energy=                    0.167004
 Thermal correction to Enthalpy=                  0.167948
 Thermal correction to Gibbs Free Energy=         0.125170
 Sum of electronic and zero-point Energies=           -422.995210
 Sum of electronic and thermal Energies=              -422.986502
 Sum of electronic and thermal Enthalpies=            -422.985558
 Sum of electronic and thermal Free Energies=         -423.028336

                     E (Thermal)             CV                S
                      KCal/Mol        Cal/Mol-Kelvin    Cal/Mol-Kelvin
 Total                  104.796             33.440             90.034
 Electronic               0.000              0.000              0.000
 Translational            0.889              2.981             40.409
 Rotational               0.889              2.981             28.980
 Vibrational            103.019             27.478             20.645
 Vibration     1          0.608              1.936              3.173
 Vibration     2          0.614              1.915              2.829
 Vibration     3          0.621              1.892              2.561
 Vibration     4          0.647              1.812              1.967
 Vibration     5          0.674              1.729              1.599
 Vibration     6          0.695              1.667              1.397
 Vibration     7          0.719              1.598              1.219
 Vibration     8          0.792              1.404              0.857
 Vibration     9          0.807              1.366              0.803
 Vibration    10          0.834              1.300              0.717
 Vibration    11          0.889              1.176              0.579
 Vibration    12          0.927              1.094              0.503

 Optimization completed.
    -- Stationary point found.
 Normal termination of Gaussian 09 at Tue Jan 28 08:52:22 2020.
