 Gaussian 09, Revision D.01,
 Gaussian 09:  ES64L-G09RevD.01 24-Apr-2013

 -----------------------------
 # b3lyp 6-31G(2df,p) opt Freq
 -----------------------------

 -----
 titel
 -----
 Symbolic Z-matrix:
 Charge =  0 Multiplicity = 1

 SCF Done:  E(RB3LYP) =  -423.194298561     A.U. after   14 cycles
 Optimization completed.
    -- Stationary point found.
 Normal termination of Gaussian 09 at Tue Jan 28 02:54:27 2020.

 ----------------------------------------------------------------------
 #N Geom=AllCheck Guess=TCheck SCRF=Check GenChk RB3LYP/6-31G(2df,p) Fr
 eq
 ----------------------------------------------------------------------

 Structure from the checkpoint file:  "/scratch/puck/g09_b17f4619-b1a4-4ca0-98eb-0fe1c664ac4e/Gau-29313.chk"
 -----
 titel
 -----
 Charge =  0 Multiplicity = 1

                         Standard orientation:
 ---------------------------------------------------------------------
 Center     Atomic      Atomic             Coordinates (Angstroms)
 Number     Number       Type             X           Y           Z
 ---------------------------------------------------------------------
      1          8           0        2.573269   -0.087780    0.906383
      2          6           0        1.904955   -0.009820   -0.346651
      3          6           0        0.973459    1.247266   -0.428261
      4          6           0       -0.378481    0.666126   -0.144615
      5          6           0       -0.379887   -0.663001   -0.143198
      6          6           0       -1.760053   -1.177079    0.111721
      7          8           0       -2.558116    0.005250    0.260799
      8          6           0       -1.757160    1.184957    0.111296
      9          6           0        0.969456   -1.252473   -0.421003
     10          1           0        3.148416    0.680006    0.985105
     11          1           0        2.638461   -0.010948   -1.164795
     12          1           0        1.293164    2.004942    0.298781
     13          1           0        1.018036    1.721561   -1.418431
     14          1           0       -2.155465   -1.787308   -0.716269
     15          1           0       -1.831234   -1.788266    1.025339
     16          1           0       -2.151428    1.796434   -0.716464
     17          1           0       -1.826621    1.796662    1.025002
     18          1           0        1.297962   -1.994119    0.314815
     19          1           0        1.013733   -1.734573   -1.406271
 ---------------------------------------------------------------------

 SCF Done:  E(RB3LYP) =  -423.194298561     A.U. after    1 cycles

 The electronic state is 1-A.
 Alpha  occ. eigenvalues --  -19.13656 -19.12699 -10.23885 -10.22686 -10.22636
 Alpha  occ. eigenvalues --  -10.19132 -10.18782 -10.17727 -10.17635  -1.02226
 Alpha  occ. eigenvalues --   -1.01912  -0.84092  -0.74195  -0.72448  -0.69535
 Alpha  occ. eigenvalues --   -0.60607  -0.58195  -0.52545  -0.50916  -0.49288
 Alpha  occ. eigenvalues --   -0.47199  -0.43516  -0.41606  -0.40938  -0.40472
 Alpha  occ. eigenvalues --   -0.39210  -0.37308  -0.35827  -0.35514  -0.32712
 Alpha  occ. eigenvalues --   -0.30842  -0.26581  -0.25592  -0.22082
 Alpha virt. eigenvalues --    0.02942   0.07369   0.10602   0.11729   0.12137
 Alpha virt. eigenvalues --    0.13363   0.13534   0.14789   0.16348   0.17590
 Alpha virt. eigenvalues --    0.18410   0.18636   0.19016   0.19603   0.22976

 Mulliken charges:
               1
     1  O   -0.434452
     2  C    0.129694
     3  C   -0.377571
     4  C    0.246698
     5  C    0.244859
     6  C   -0.188633
     7  O   -0.274650
     8  C   -0.186816
     9  C   -0.350231
    10  H    0.280779
    11  H    0.064012
    12  H    0.099461
    13  H    0.105492
    14  H    0.101481
    15  H    0.105492
    16  H    0.100655
    17  H    0.103067
    18  H    0.124780
    19  H    0.105882
 Sum of Mulliken charges =   0.00000

 Dipole moment (field-independent basis, Debye):
    X=              2.0128    Y=              1.0061    Z=             -1.1584  Tot=              2.5309
 Quadrupole moment (field-independent basis, Debye-Ang):
   XX=            -56.8598   YY=            -48.7436   ZZ=            -53.4535
   XY=              3.9306   XZ=             -0.5593   YZ=              1.3410

  Exact polarizability:  83.567   1.411  88.287  -1.450   0.546  61.335
 Approx polarizability: 107.149   1.882 139.929  -0.933   0.134  94.574

                      1                      2                      3
                      A                      A                      A
 Frequencies --     64.1952               134.5995               189.1005
 Red. masses --      4.0548                 2.7251                 2.3481
 Frc consts  --      0.0098                 0.0291                 0.0495
 IR Inten    --      0.1905                 6.1197                 0.7375

                      4                      5                      6
                      A                      A                      A
 Frequencies --    206.0084               303.2494               338.2517
 Red. masses --      2.7015                 1.1103                 3.2508
 Frc consts  --      0.0676                 0.0602                 0.2191
 IR Inten    --      2.0330               104.8866                 7.7792

                      7                      8                      9
                      A                      A                      A
 Frequencies --    395.8433               460.3586               484.2668
 Red. masses --      2.8474                 2.9113                 2.2035
 Frc consts  --      0.2629                 0.3635                 0.3045
 IR Inten    --      5.8211                 6.2253                 0.1098

                     10                     11                     12
                      A                      A                      A
 Frequencies --    580.7533               682.1617               770.3943
 Red. masses --      4.1529                 5.2246                 5.4103
 Frc consts  --      0.8253                 1.4324                 1.8919
 IR Inten    --      6.5711                 0.9670                 2.7539

                     13                     14                     15
                      A                      A                      A
 Frequencies --    823.6388               867.9168               902.0766
 Red. masses --      2.6950                 3.5121                 1.8104
 Frc consts  --      1.0772                 1.5588                 0.8680
 IR Inten    --      5.5672                11.3260                 1.3369

                     16                     17                     18
                      A                      A                      A
 Frequencies --    913.4670               931.5409               990.3523
 Red. masses --      4.8205                 1.9730                 2.1121
 Frc consts  --      2.3699                 1.0088                 1.2205
 IR Inten    --      8.2634                16.6244                34.6283

                     19                     20                     21
                      A                      A                      A
 Frequencies --   1000.0762              1031.2639              1060.0974
 Red. masses --      2.1511                 4.5912                 1.5838
 Frc consts  --      1.2676                 2.8769                 1.0487
 IR Inten    --     18.7078                23.5135                 2.3981

                     22                     23                     24
                      A                      A                      A
 Frequencies --   1071.9489              1082.9036              1163.2927
 Red. masses --      4.4768                 1.9611                 1.1937
 Frc consts  --      3.0309                 1.3550                 0.9518
 IR Inten    --     59.9242                10.8601                 0.6231

                     25                     26                     27
                      A                      A                      A
 Frequencies --   1170.2902              1207.7859              1213.6670
 Red. masses --      1.2026                 1.3261                 1.8732
 Frc consts  --      0.9704                 1.1398                 1.6257
 IR Inten    --      2.8974                 4.9935                14.3643

                     28                     29                     30
                      A                      A                      A
 Frequencies --   1218.7129              1229.4858              1251.1861
 Red. masses --      1.0911                 1.4413                 1.3762
 Frc consts  --      0.9548                 1.2837                 1.2694
 IR Inten    --      2.3843                 1.2631                40.0869

                     31                     32                     33
                      A                      A                      A
 Frequencies --   1303.1328              1330.0301              1342.8135
 Red. masses --      1.5647                 1.7798                 1.3852
 Frc consts  --      1.5655                 1.8550                 1.4716
 IR Inten    --     34.2959                 1.2896                20.7473

                     34                     35                     36
                      A                      A                      A
 Frequencies --   1399.0567              1405.0247              1422.0784
 Red. masses --      1.7289                 2.3277                 1.5387
 Frc consts  --      1.9938                 2.7074                 1.8334
 IR Inten    --     14.8250                 2.4481                 4.2358

                     37                     38                     39
                      A                      A                      A
 Frequencies --   1471.8028              1479.5436              1517.3848
 Red. masses --      1.0931                 1.1112                 1.0825
 Frc consts  --      1.3951                 1.4331                 1.4685
 IR Inten    --      1.4934                 1.4900                 3.1302

                     40                     41                     42
                      A                      A                      A
 Frequencies --   1527.9333              1741.7345              2965.0999
 Red. masses --      1.0879                 8.2222                 1.0553
 Frc consts  --      1.4964                14.6960                 5.4665
 IR Inten    --      0.0447                 1.7564               146.3111

                     43                     44                     45
                      A                      A                      A
 Frequencies --   2972.4363              2982.2447              2986.5771
 Red. masses --      1.0579                 1.1042                 1.1053
 Frc consts  --      5.5072                 5.7861                 5.8087
 IR Inten    --     30.6765                17.9460                80.5982

                     46                     47                     48
                      A                      A                      A
 Frequencies --   2993.7293              3011.7394              3026.3191
 Red. masses --      1.0806                 1.0639                 1.0678
 Frc consts  --      5.7059                 5.6856                 5.7620
 IR Inten    --     29.7940                74.1794                55.2956

                     49                     50                     51
                      A                      A                      A
 Frequencies --   3042.8354              3073.4374              3815.5545
 Red. masses --      1.1006                 1.0959                 1.0661
 Frc consts  --      6.0038                 6.0990                 9.1442
 IR Inten    --     31.4083                14.1878                17.9346

 - Thermochemistry -
 -------------------
 Temperature   298.150 Kelvin.  Pressure   1.00000 Atm.
 Atom     1 has atomic number  8 and mass  15.99491

 Molecular mass:   126.06808 amu.
 Principal axes and moments of inertia in atomic units:
                           1         2         3
     Eigenvalues --   498.603431512.188451793.29522
           X            0.99994   0.00743  -0.00744
           Y           -0.00737   0.99994   0.00790
           Z            0.00750  -0.00784   0.99994
 This molecule is an asymmetric top.
 Rotational symmetry number  1.
 Warning -- assumption of classical behavior for rotation
           may cause significant error
 Rotational temperatures (Kelvin)      0.17371     0.05728     0.04830
 Rotational constants (GHZ):           3.61959     1.19346     1.00638
 Zero-point vibrational energy     421979.1 (Joules/Mol)
                                  100.85542 (Kcal/Mol)
 Warning -- explicit consideration of  10 degrees of freedom as
           vibrations may cause significant error
 Vibrational temperatures:     92.36   193.66   272.07   296.40   436.31
          (Kelvin)            486.67   569.53   662.35   696.75   835.57
                              981.48  1108.42  1185.03  1248.74  1297.89
                             1314.27  1340.28  1424.89  1438.88  1483.76
                             1525.24  1542.29  1558.05  1673.72  1683.78
                             1737.73  1746.19  1753.45  1768.95  1800.18
                             1874.92  1913.61  1932.01  2012.93  2021.51
                             2046.05  2117.59  2128.73  2183.18  2198.35
                             2505.96  4266.11  4276.67  4290.78  4297.01
                             4307.30  4333.22  4354.19  4377.96  4421.99
                             5489.73

 Zero-point correction=                           0.160723 (Hartree/Particle)
 Thermal correction to Energy=                    0.168800
 Thermal correction to Enthalpy=                  0.169744
 Thermal correction to Gibbs Free Energy=         0.127737
 Sum of electronic and zero-point Energies=           -423.033575
 Sum of electronic and thermal Energies=              -423.025499
 Sum of electronic and thermal Enthalpies=            -423.024555
 Sum of electronic and thermal Free Energies=         -423.066562

                     E (Thermal)             CV                S
                      KCal/Mol        Cal/Mol-Kelvin    Cal/Mol-Kelvin
 Total                  105.923             30.621             88.411
 Electronic               0.000              0.000              0.000
 Translational            0.889              2.981             40.409
 Rotational               0.889              2.981             28.693
 Vibrational            104.146             24.659             19.309
 Vibration     1          0.597              1.971              4.324
 Vibration     2          0.613              1.919              2.879
 Vibration     3          0.633              1.855              2.237
 Vibration     4          0.640              1.831              2.079
 Vibration     5          0.695              1.668              1.399
 Vibration     6          0.719              1.599              1.220
 Vibration     7          0.763              1.479              0.978
 Vibration     8          0.818              1.338              0.765
 Vibration     9          0.840              1.285              0.699
 Vibration    10          0.937              1.073              0.484

 Normal termination of Gaussian 09 at Tue Jan 28 03:40:37 2020.
