 Gaussian 09, Revision D.01,
 Gaussian 09:  ES64L-G09RevD.01 24-Apr-2013

 -----------------------------
 # b3lyp 6-31G(2df,p) opt Freq
 -----------------------------

 -----
 titel
 -----
 Symbolic Z-matrix:
 Charge =  0 Multiplicity = 1

 SCF Done:  E(RB3LYP) =  -423.155478105     A.U. after   13 cycles
 Optimization completed.
    -- Stationary point found.
 Normal termination of Gaussian 09 at Mon Jan 27 18:04:45 2020.

 ----------------------------------------------------------------------
 #N Geom=AllCheck Guess=TCheck SCRF=Check GenChk RB3LYP/6-31G(2df,p) Fr
 eq
 ----------------------------------------------------------------------

 Structure from the checkpoint file:  "/scratch/puck/g09_fd5aa8b0-ae98-4421-9ee7-0deb20f5b0ec/Gau-170365.chk"
 -----
 titel
 -----
 Charge =  0 Multiplicity = 1

                         Standard orientation:
 ---------------------------------------------------------------------
 Center     Atomic      Atomic             Coordinates (Angstroms)
 Number     Number       Type             X           Y           Z
 ---------------------------------------------------------------------
      1          6           0       -2.658579   -0.505147    0.065717
      2          6           0       -1.193326   -0.178940    0.088664
      3          6           0       -0.153782   -0.822399    1.014099
      4          6           0        0.948572   -0.467628   -0.037676
      5          8           0        1.855162   -1.457771   -0.425432
      6          6           0        1.541609    0.913262    0.281081
      7          8           0        0.406215    1.779707    0.310874
      8          6           0       -0.620018    1.131117   -0.420371
      9          6           0       -0.168645   -0.134493   -1.059779
     10          1           0       -2.824310   -1.583706   -0.038297
     11          1           0       -3.149290   -0.179525    0.990698
     12          1           0       -3.163991   -0.009468   -0.770055
     13          1           0       -0.044479   -0.416668    2.026771
     14          1           0       -0.287514   -1.907259    1.056224
     15          1           0        2.410766   -1.673339    0.331717
     16          1           0        2.038238    0.957459    1.257660
     17          1           0        2.253938    1.216715   -0.501024
     18          1           0       -1.286642    1.821618   -0.923928
     19          1           0       -0.212713   -0.415948   -2.103714
 ---------------------------------------------------------------------

 SCF Done:  E(RB3LYP) =  -423.155478105     A.U. after    1 cycles

 The electronic state is 1-A.
 Alpha  occ. eigenvalues --  -19.14755 -19.13719 -10.24298 -10.23043 -10.22198
 Alpha  occ. eigenvalues --  -10.19810 -10.18421 -10.18137 -10.18050  -1.04609
 Alpha  occ. eigenvalues --   -1.02600  -0.88346  -0.75008  -0.71983  -0.68043
 Alpha  occ. eigenvalues --   -0.60881  -0.57743  -0.53480  -0.52304  -0.47655
 Alpha  occ. eigenvalues --   -0.45475  -0.45342  -0.42873  -0.41329  -0.40477
 Alpha  occ. eigenvalues --   -0.39758  -0.38257  -0.35757  -0.33762  -0.32716
 Alpha  occ. eigenvalues --   -0.30851  -0.26979  -0.25216  -0.22745
 Alpha virt. eigenvalues --    0.06656   0.09898   0.10368   0.12162   0.12940
 Alpha virt. eigenvalues --    0.14168   0.14477   0.15572   0.15895   0.16203
 Alpha virt. eigenvalues --    0.18379   0.18565   0.19208   0.20138   0.23986

 Mulliken charges:
               1
     1  C   -0.504435
     2  C    0.303015
     3  C   -0.346158
     4  C    0.371804
     5  O   -0.493082
     6  C   -0.128826
     7  O   -0.267576
     8  C    0.066548
     9  C   -0.219734
    10  H    0.119390
    11  H    0.123528
    12  H    0.118564
    13  H    0.089575
    14  H    0.102656
    15  H    0.280852
    16  H    0.095961
    17  H    0.095479
    18  H    0.099426
    19  H    0.093012
 Sum of Mulliken charges =   0.00000

 Dipole moment (field-independent basis, Debye):
    X=             -0.0755    Y=             -1.0263    Z=              0.6107  Tot=              1.1966
 Quadrupole moment (field-independent basis, Debye-Ang):
   XX=            -48.6218   YY=            -57.0155   ZZ=            -52.2805
   XY=             -1.2172   XZ=              4.1903   YZ=             -3.8915

  Exact polarizability:  86.216   0.923  69.673   1.629  -2.713  67.862
 Approx polarizability: 113.726  -1.629 105.659   0.136  -0.704 105.962

                      1                      2                      3
                      A                      A                      A
 Frequencies --    184.1460               199.7531               230.7262
 Red. masses --      2.8805                 1.0487                 1.1646
 Frc consts  --      0.0575                 0.0247                 0.0365
 IR Inten    --      0.8976                 1.1711                72.1676

                      4                      5                      6
                      A                      A                      A
 Frequencies --    250.3163               276.6199               319.1086
 Red. masses --      2.8790                 2.3069                 2.8601
 Frc consts  --      0.1063                 0.1040                 0.1716
 IR Inten    --      2.9112                20.8582                 3.7500

                      7                      8                      9
                      A                      A                      A
 Frequencies --    384.9678               431.2113               475.9405
 Red. masses --      3.9524                 2.2394                 3.2616
 Frc consts  --      0.3451                 0.2453                 0.4353
 IR Inten    --     12.3725                 5.9013                 1.7275

                     10                     11                     12
                      A                      A                      A
 Frequencies --    555.3107               600.2630               709.4612
 Red. masses --      3.3702                 4.1242                 2.8540
 Frc consts  --      0.6123                 0.8755                 0.8464
 IR Inten    --      1.6978                 2.8474                 0.5450

                     13                     14                     15
                      A                      A                      A
 Frequencies --    715.9633               784.8050               841.7082
 Red. masses --      5.1117                 2.8195                 3.4147
 Frc consts  --      1.5438                 1.0232                 1.4254
 IR Inten    --      5.9392                 3.5024                 9.9348

                     16                     17                     18
                      A                      A                      A
 Frequencies --    883.5577               905.8759               932.8986
 Red. masses --      1.4842                 2.0241                 1.9833
 Frc consts  --      0.6827                 0.9786                 1.0170
 IR Inten    --     12.5097                 3.8577                 6.4692

                     19                     20                     21
                      A                      A                      A
 Frequencies --    978.5136               990.3811              1006.2150
 Red. masses --      2.0438                 2.5095                 1.5419
 Frc consts  --      1.1530                 1.4502                 0.9198
 IR Inten    --      6.6369                10.9397                 8.2007

                     22                     23                     24
                      A                      A                      A
 Frequencies --   1029.9174              1074.5794              1082.4009
 Red. masses --      1.4865                 2.3796                 1.9247
 Frc consts  --      0.9290                 1.6189                 1.3286
 IR Inten    --     20.0254                28.3619                74.6439

                     25                     26                     27
                      A                      A                      A
 Frequencies --   1100.2027              1140.5546              1154.3357
 Red. masses --      2.9243                 2.4403                 1.8716
 Frc consts  --      2.0855                 1.8704                 1.4694
 IR Inten    --     53.3907                 7.1788                 6.0675

                     28                     29                     30
                      A                      A                      A
 Frequencies --   1189.1686              1201.2957              1240.4094
 Red. masses --      1.6180                 1.2254                 1.6926
 Frc consts  --      1.3481                 1.0419                 1.5344
 IR Inten    --     16.7683                 3.7939                 7.9605

                     31                     32                     33
                      A                      A                      A
 Frequencies --   1260.4269              1284.2765              1304.7456
 Red. masses --      2.5421                 1.5308                 3.4678
 Frc consts  --      2.3795                 1.4876                 3.4782
 IR Inten    --     85.0269                 2.9043                21.4257

                     34                     35                     36
                      A                      A                      A
 Frequencies --   1346.3357              1391.6641              1413.3349
 Red. masses --      1.5307                 2.0331                 1.2691
 Frc consts  --      1.6347                 2.3199                 1.4936
 IR Inten    --     22.1144                10.8319                 2.6331

                     37                     38                     39
                      A                      A                      A
 Frequencies --   1430.7236              1483.7983              1489.4629
 Red. masses --      2.2276                 1.0785                 1.1389
 Frc consts  --      2.6865                 1.3991                 1.4886
 IR Inten    --      6.7210                 2.5586                 4.3937

                     40                     41                     42
                      A                      A                      A
 Frequencies --   1500.0432              1513.6623              2990.0905
 Red. masses --      1.1096                 1.0984                 1.0632
 Frc consts  --      1.4711                 1.4828                 5.6006
 IR Inten    --      4.8466                 1.5283                77.1500

                     43                     44                     45
                      A                      A                      A
 Frequencies --   3020.0265              3029.2908              3058.2749
 Red. masses --      1.0359                 1.0588                 1.1001
 Frc consts  --      5.5667                 5.7248                 6.0624
 IR Inten    --     36.6210                39.4300                39.5163

                     46                     47                     48
                      A                      A                      A
 Frequencies --   3080.9042              3092.6523              3096.5480
 Red. masses --      1.1009                 1.1004                 1.1049
 Frc consts  --      6.1569                 6.2008                 6.2421
 IR Inten    --     21.4836                20.5849                23.6712

                     49                     50                     51
                      A                      A                      A
 Frequencies --   3183.9807              3201.8103              3801.5759
 Red. masses --      1.0902                 1.0966                 1.0659
 Frc consts  --      6.5119                 6.6233                 9.0760
 IR Inten    --     13.9444                 8.7074                21.5453

 - Thermochemistry -
 -------------------
 Temperature   298.150 Kelvin.  Pressure   1.00000 Atm.
 Atom     1 has atomic number  6 and mass  12.00000

 Molecular mass:   126.06808 amu.
 Principal axes and moments of inertia in atomic units:
                           1         2         3
     Eigenvalues --   667.616411059.571371388.49098
           X            0.99919   0.03811   0.01322
           Y           -0.03756   0.99850  -0.03982
           Z           -0.01472   0.03929   0.99912
 This molecule is an asymmetric top.
 Rotational symmetry number  1.
 Warning -- assumption of classical behavior for rotation
           may cause significant error
 Rotational temperatures (Kelvin)      0.12974     0.08174     0.06238
 Rotational constants (GHZ):           2.70326     1.70327     1.29979
 Zero-point vibrational energy     417761.3 (Joules/Mol)
                                   99.84735 (Kcal/Mol)
 Warning -- explicit consideration of  11 degrees of freedom as
           vibrations may cause significant error
 Vibrational temperatures:    264.94   287.40   331.96   360.15   397.99
          (Kelvin)            459.13   553.88   620.42   684.77   798.97
                              863.64  1020.76  1030.11  1129.16  1211.03
                             1271.24  1303.35  1342.23  1407.86  1424.94
                             1447.72  1481.82  1546.08  1557.33  1582.94
                             1641.00  1660.83  1710.95  1728.39  1784.67
                             1813.47  1847.79  1877.24  1937.07  2002.29
                             2033.47  2058.49  2134.85  2143.00  2158.22
                             2177.82  4302.07  4345.14  4358.47  4400.17
                             4432.73  4449.63  4455.24  4581.03  4606.69
                             5469.61

 Zero-point correction=                           0.159117 (Hartree/Particle)
 Thermal correction to Energy=                    0.167063
 Thermal correction to Enthalpy=                  0.168007
 Thermal correction to Gibbs Free Energy=         0.127314
 Sum of electronic and zero-point Energies=           -422.996361
 Sum of electronic and thermal Energies=              -422.988415
 Sum of electronic and thermal Enthalpies=            -422.987471
 Sum of electronic and thermal Free Energies=         -423.028164

                     E (Thermal)             CV                S
                      KCal/Mol        Cal/Mol-Kelvin    Cal/Mol-Kelvin
 Total                  104.833             31.953             85.645
 Electronic               0.000              0.000              0.000
 Translational            0.889              2.981             40.409
 Rotational               0.889              2.981             28.376
 Vibrational            103.056             25.991             16.860
 Vibration     1          0.631              1.861              2.286
 Vibration     2          0.638              1.840              2.135
 Vibration     3          0.652              1.794              1.873
 Vibration     4          0.663              1.762              1.728
 Vibration     5          0.678              1.717              1.554
 Vibration     6          0.705              1.637              1.315
 Vibration     7          0.754              1.502              1.020
 Vibration     8          0.792              1.402              0.855
 Vibration     9          0.833              1.303              0.721
 Vibration    10          0.911              1.128              0.533
 Vibration    11          0.958              1.031              0.449

 Normal termination of Gaussian 09 at Mon Jan 27 18:49:38 2020.
