 Gaussian 09, Revision D.01,
 Gaussian 09:  ES64L-G09RevD.01 24-Apr-2013

 -----------------------------
 # b3lyp 6-31G(2df,p) opt Freq
 -----------------------------

 -----
 titel
 -----
 Symbolic Z-matrix:
 Charge =  0 Multiplicity = 1

 SCF Done:  E(RB3LYP) =  -423.139616994     A.U. after   14 cycles
 Optimization completed.
    -- Stationary point found.
 Normal termination of Gaussian 09 at Tue Jan 28 01:56:37 2020.

 ----------------------------------------------------------------------
 #N Geom=AllCheck Guess=TCheck SCRF=Check GenChk RB3LYP/6-31G(2df,p) Fr
 eq
 ----------------------------------------------------------------------

 Structure from the checkpoint file:  "/scratch/puck/g09_62ffe241-dcf6-484b-bdd1-526c59aa1647/Gau-193616.chk"
 -----
 titel
 -----
 Charge =  0 Multiplicity = 1

                         Standard orientation:
 ---------------------------------------------------------------------
 Center     Atomic      Atomic             Coordinates (Angstroms)
 Number     Number       Type             X           Y           Z
 ---------------------------------------------------------------------
      1          8           0       -2.439018   -0.974353    0.127555
      2          6           0       -1.697155    0.138413    0.538299
      3          6           0       -1.433055    1.272388   -0.429813
      4          6           0       -0.343894    0.296568   -0.071716
      5          6           0        0.277629   -0.713211   -1.057858
      6          6           0        1.718905   -0.622742   -0.506792
      7          6           0        1.543030   -0.716415    1.026011
      8          6           0        0.912927    0.660869    0.717654
      9          8           0        1.899698    0.824174   -0.352102
     10          1           0       -3.364694   -0.714069    0.077232
     11          1           0       -1.813302    0.397060    1.592536
     12          1           0       -1.868430    1.182181   -1.420355
     13          1           0       -1.384345    2.286046   -0.042930
     14          1           0       -0.160159   -1.711553   -0.983453
     15          1           0        0.227271   -0.376551   -2.095983
     16          1           0        2.523356   -1.115750   -1.052125
     17          1           0        0.917521   -1.507207    1.447867
     18          1           0        2.493394   -0.622269    1.552033
     19          1           0        0.873625    1.488325    1.426841
 ---------------------------------------------------------------------

 SCF Done:  E(RB3LYP) =  -423.139616994     A.U. after    1 cycles

 The electronic state is 1-A.
 Alpha  occ. eigenvalues --  -19.14450 -19.12591 -10.23485 -10.23397 -10.23348
 Alpha  occ. eigenvalues --  -10.19265 -10.18347 -10.18118 -10.17871  -1.04189
 Alpha  occ. eigenvalues --   -1.02817  -0.85224  -0.76544  -0.70753  -0.66705
 Alpha  occ. eigenvalues --   -0.60676  -0.55852  -0.53812  -0.51793  -0.50591
 Alpha  occ. eigenvalues --   -0.47250  -0.44001  -0.43160  -0.41132  -0.40392
 Alpha  occ. eigenvalues --   -0.37514  -0.35883  -0.34155  -0.33249  -0.31609
 Alpha  occ. eigenvalues --   -0.31118  -0.27165  -0.25700  -0.24028
 Alpha virt. eigenvalues --    0.07664   0.09574   0.10726   0.11539   0.11941
 Alpha virt. eigenvalues --    0.12902   0.14598   0.15099   0.15988   0.17317
 Alpha virt. eigenvalues --    0.17672   0.18884   0.18924   0.21847   0.22981

 Mulliken charges:
               1
     1  O   -0.420278
     2  C    0.017727
     3  C   -0.406589
     4  C    0.399335
     5  C   -0.305019
     6  C    0.074346
     7  C   -0.231771
     8  C   -0.014532
     9  O   -0.297064
    10  H    0.288797
    11  H    0.080814
    12  H    0.113887
    13  H    0.110141
    14  H    0.118435
    15  H    0.107857
    16  H    0.079266
    17  H    0.102223
    18  H    0.108227
    19  H    0.074199
 Sum of Mulliken charges =   0.00000

 Dipole moment (field-independent basis, Debye):
    X=             -1.6540    Y=             -0.2112    Z=              0.7905  Tot=              1.8453
 Quadrupole moment (field-independent basis, Debye-Ang):
   XX=            -49.5753   YY=            -54.7541   ZZ=            -51.3228
   XY=             -5.2261   XZ=              0.9790   YZ=              2.1735

  Exact polarizability:  84.324  -4.042  70.759   0.946   1.672  69.628
 Approx polarizability: 112.970  -0.532 109.237  -1.892   1.154 103.860

                      1                      2                      3
                      A                      A                      A
 Frequencies --    113.7336               165.3495               232.5400
 Red. masses --      3.8029                 4.0670                 3.0131
 Frc consts  --      0.0290                 0.0655                 0.0960
 IR Inten    --      2.6119                 1.8708                 2.7928

                      4                      5                      6
                      A                      A                      A
 Frequencies --    284.2671               354.8546               412.2080
 Red. masses --      1.2423                 2.3602                 2.3948
 Frc consts  --      0.0591                 0.1751                 0.2397
 IR Inten    --     87.9009                14.6432                 3.6129

                      7                      8                      9
                      A                      A                      A
 Frequencies --    459.7168               475.4079               561.1554
 Red. masses --      2.4750                 2.5199                 3.2260
 Frc consts  --      0.3082                 0.3356                 0.5985
 IR Inten    --      4.0306                 2.8691                 2.3244

                     10                     11                     12
                      A                      A                      A
 Frequencies --    601.2091               763.2197               817.2034
 Red. masses --      3.7307                 3.2947                 2.2040
 Frc consts  --      0.7945                 1.1307                 0.8672
 IR Inten    --     18.8201                 3.2106                10.6748

                     13                     14                     15
                      A                      A                      A
 Frequencies --    826.7077               835.7505               871.5079
 Red. masses --      2.5355                 2.3601                 2.6328
 Frc consts  --      1.0210                 0.9713                 1.1782
 IR Inten    --      0.9452                12.6401                18.6191

                     16                     17                     18
                      A                      A                      A
 Frequencies --    884.5775               917.5479               935.9120
 Red. masses --      2.9127                 2.9906                 2.0623
 Frc consts  --      1.3428                 1.4834                 1.0643
 IR Inten    --     13.8808                22.0574                 6.2492

                     19                     20                     21
                      A                      A                      A
 Frequencies --    954.4037               998.4996              1005.3129
 Red. masses --      2.0556                 1.8770                 1.8512
 Frc consts  --      1.1032                 1.1026                 1.1023
 IR Inten    --     16.7469                14.1769                 6.7650

                     22                     23                     24
                      A                      A                      A
 Frequencies --   1028.8049              1046.0652              1068.0302
 Red. masses --      1.3941                 1.9440                 2.1055
 Frc consts  --      0.8694                 1.2533                 1.4150
 IR Inten    --      2.7531                 1.1683                 0.8127

                     25                     26                     27
                      A                      A                      A
 Frequencies --   1092.8452              1101.5858              1155.5175
 Red. masses --      1.4500                 1.4471                 1.4857
 Frc consts  --      1.0203                 1.0346                 1.1688
 IR Inten    --     10.5110                15.8773                17.4902

                     28                     29                     30
                      A                      A                      A
 Frequencies --   1174.8057              1196.4082              1217.2342
 Red. masses --      2.1863                 1.5369                 2.2714
 Frc consts  --      1.7779                 1.2961                 1.9828
 IR Inten    --     27.5017                 6.8778                13.1292

                     31                     32                     33
                      A                      A                      A
 Frequencies --   1225.2850              1250.8587              1268.1317
 Red. masses --      1.4097                 1.4676                 1.5219
 Frc consts  --      1.2470                 1.3530                 1.4420
 IR Inten    --      5.1714                 9.9108                21.2234

                     34                     35                     36
                      A                      A                      A
 Frequencies --   1294.5380              1308.8448              1312.1251
 Red. masses --      1.3223                 1.5799                 1.6021
 Frc consts  --      1.3056                 1.5947                 1.6251
 IR Inten    --     20.7875                38.6907                 1.5232

                     37                     38                     39
                      A                      A                      A
 Frequencies --   1365.5877              1430.6487              1479.8210
 Red. masses --      1.6650                 1.3127                 1.1239
 Frc consts  --      1.8294                 1.5830                 1.4501
 IR Inten    --      0.8222                 7.8964                 3.0533

                     40                     41                     42
                      A                      A                      A
 Frequencies --   1493.3895              1497.4739              3066.5730
 Red. masses --      1.2397                 1.7976                 1.0585
 Frc consts  --      1.6290                 2.3750                 5.8646
 IR Inten    --      0.9956                13.4486                27.3278

                     43                     44                     45
                      A                      A                      A
 Frequencies --   3068.8359              3078.3720              3116.4160
 Red. masses --      1.0585                 1.0866                 1.0738
 Frc consts  --      5.8734                 6.0668                 6.1445
 IR Inten    --     16.9272                35.0946                18.9817

                     46                     47                     48
                      A                      A                      A
 Frequencies --   3117.8489              3118.7401              3125.1932
 Red. masses --      1.0754                 1.1017                 1.0932
 Frc consts  --      6.1592                 6.3138                 6.2910
 IR Inten    --     46.2830                16.7794                32.8072

                     49                     50                     51
                      A                      A                      A
 Frequencies --   3146.0153              3206.1182              3805.3196
 Red. masses --      1.1074                 1.1166                 1.0663
 Frc consts  --      6.4577                 6.7627                 9.0971
 IR Inten    --     26.3102                 8.8415                21.5136

 - Thermochemistry -
 -------------------
 Temperature   298.150 Kelvin.  Pressure   1.00000 Atm.
 Atom     1 has atomic number  8 and mass  15.99491

 Molecular mass:   126.06808 amu.
 Principal axes and moments of inertia in atomic units:
                           1         2         3
     Eigenvalues --   522.301141372.018701459.20476
           X            0.99938  -0.03369   0.00982
           Y            0.03311   0.99800   0.05392
           Z           -0.01162  -0.05356   0.99850
 This molecule is an asymmetric top.
 Rotational symmetry number  1.
 Warning -- assumption of classical behavior for rotation
           may cause significant error
 Rotational temperatures (Kelvin)      0.16583     0.06313     0.05936
 Rotational constants (GHZ):           3.45537     1.31539     1.23680
 Zero-point vibrational energy     420658.0 (Joules/Mol)
                                  100.53966 (Kcal/Mol)
 Warning -- explicit consideration of  10 degrees of freedom as
           vibrations may cause significant error
 Vibrational temperatures:    163.64   237.90   334.57   409.00   510.56
          (Kelvin)            593.07   661.43   684.01   807.38   865.00
                             1098.10  1175.77  1189.45  1202.46  1253.90
                             1272.71  1320.15  1346.57  1373.17  1436.62
                             1446.42  1480.22  1505.05  1536.66  1572.36
                             1584.93  1662.53  1690.28  1721.36  1751.33
                             1762.91  1799.70  1824.56  1862.55  1883.13
                             1887.85  1964.77  2058.38  2129.13  2148.65
                             2154.53  4412.11  4415.36  4429.09  4483.82
                             4485.88  4487.17  4496.45  4526.41  4612.88
                             5475.00

 Zero-point correction=                           0.160220 (Hartree/Particle)
 Thermal correction to Energy=                    0.167778
 Thermal correction to Enthalpy=                  0.168722
 Thermal correction to Gibbs Free Energy=         0.128397
 Sum of electronic and zero-point Energies=           -422.979397
 Sum of electronic and thermal Energies=              -422.971839
 Sum of electronic and thermal Enthalpies=            -422.970895
 Sum of electronic and thermal Free Energies=         -423.011220

                     E (Thermal)             CV                S
                      KCal/Mol        Cal/Mol-Kelvin    Cal/Mol-Kelvin
 Total                  105.282             30.605             84.871
 Electronic               0.000              0.000              0.000
 Translational            0.889              2.981             40.409
 Rotational               0.889              2.981             28.438
 Vibrational            103.505             24.643             16.025
 Vibration     1          0.607              1.938              3.204
 Vibration     2          0.624              1.885              2.488
 Vibration     3          0.653              1.791              1.859
 Vibration     4          0.683              1.703              1.508
 Vibration     5          0.731              1.565              1.145
 Vibration     6          0.776              1.444              0.919
 Vibration     7          0.818              1.339              0.767
 Vibration     8          0.832              1.305              0.723
 Vibration     9          0.917              1.115              0.522
 Vibration    10          0.959              1.029              0.448

 Optimization completed.
    -- Stationary point found.
 Normal termination of Gaussian 09 at Tue Jan 28 02:44:57 2020.
