 Gaussian 09, Revision D.01,
 Gaussian 09:  ES64L-G09RevD.01 24-Apr-2013

 -----------------------------
 # b3lyp 6-31G(2df,p) opt Freq
 -----------------------------

 -----
 titel
 -----
 Symbolic Z-matrix:
 Charge =  0 Multiplicity = 1

 SCF Done:  E(RB3LYP) =  -423.163187810     A.U. after   14 cycles
 Optimization completed.
    -- Stationary point found.
 Normal termination of Gaussian 09 at Tue Jan 28 08:13:54 2020.

 ----------------------------------------------------------------------
 #N Geom=AllCheck Guess=TCheck SCRF=Check GenChk RB3LYP/6-31G(2df,p) Fr
 eq
 ----------------------------------------------------------------------

 Structure from the checkpoint file:  "/scratch/puck/g09_9326c0b7-50bb-44d0-84ff-ae86a5f7d6cb/Gau-92073.chk"
 -----
 titel
 -----
 Charge =  0 Multiplicity = 1

                         Standard orientation:
 ---------------------------------------------------------------------
 Center     Atomic      Atomic             Coordinates (Angstroms)
 Number     Number       Type             X           Y           Z
 ---------------------------------------------------------------------
      1          6           0        2.929782   -0.685427    0.032520
      2          8           0        1.532998   -0.663415   -0.290209
      3          6           0        0.925341    0.532501   -0.132485
      4          8           0        1.498913    1.523039    0.247713
      5          6           0       -0.532616    0.495071   -0.523624
      6          6           0       -1.618749    0.640698    0.592304
      7          6           0       -2.627462    0.067552   -0.444825
      8          6           0       -1.355765   -0.825337   -0.562887
      9          6           0       -1.318515   -0.833312    0.995820
     10          1           0        3.088187   -0.418072    1.080389
     11          1           0        3.262298   -1.706208   -0.156285
     12          1           0        3.480879    0.020132   -0.594273
     13          1           0       -0.671659    1.171525   -1.373637
     14          1           0       -1.752872    1.499157    1.250095
     15          1           0       -3.519382   -0.413376   -0.035685
     16          1           0       -2.869316    0.701898   -1.302039
     17          1           0       -1.198238   -1.670102   -1.232878
     18          1           0       -2.129876   -1.369036    1.495340
     19          1           0       -0.357412   -1.043379    1.468000
 ---------------------------------------------------------------------

 SCF Done:  E(RB3LYP) =  -423.163187810     A.U. after    1 cycles

 The electronic state is 1-A.
 Alpha  occ. eigenvalues --  -19.18197 -19.12034 -10.29910 -10.23584 -10.20834
 Alpha  occ. eigenvalues --  -10.20597 -10.20281 -10.19123 -10.18933  -1.09799
 Alpha  occ. eigenvalues --   -1.00872  -0.91764  -0.74242  -0.68126  -0.66826
 Alpha  occ. eigenvalues --   -0.62871  -0.57690  -0.54351  -0.50012  -0.48953
 Alpha  occ. eigenvalues --   -0.48330  -0.46588  -0.44861  -0.42609  -0.38645
 Alpha  occ. eigenvalues --   -0.37400  -0.35365  -0.33735  -0.33157  -0.32492
 Alpha  occ. eigenvalues --   -0.31955  -0.30817  -0.29735  -0.26243
 Alpha virt. eigenvalues --    0.01313   0.09667   0.11317   0.12131   0.13442
 Alpha virt. eigenvalues --    0.14229   0.14571   0.14781   0.15204   0.15934
 Alpha virt. eigenvalues --    0.16349   0.16662   0.17155   0.19460   0.21226

 Mulliken charges:
               1
     1  C   -0.240955
     2  O   -0.224986
     3  C    0.391121
     4  O   -0.369534
     5  C   -0.072600
     6  C   -0.037789
     7  C   -0.227649
     8  C   -0.048911
     9  C   -0.220836
    10  H    0.139992
    11  H    0.131772
    12  H    0.141024
    13  H    0.096170
    14  H    0.084479
    15  H    0.093733
    16  H    0.091933
    17  H    0.078313
    18  H    0.091306
    19  H    0.103419
 Sum of Mulliken charges =   0.00000

 Dipole moment (field-independent basis, Debye):
    X=             -0.4009    Y=             -1.6891    Z=             -0.3603  Tot=              1.7730
 Quadrupole moment (field-independent basis, Debye-Ang):
   XX=            -48.2112   YY=            -56.8554   ZZ=            -52.0902
   XY=             -4.5981   XZ=             -0.4529   YZ=             -1.6612

  Exact polarizability:  92.175  -1.598  72.450   1.423  -0.947  65.336
 Approx polarizability: 115.158   1.186 116.965   2.258   2.598 100.763

                      1                      2                      3
                      A                      A                      A
 Frequencies --     24.1283               115.6218               129.9899
 Red. masses --      4.1878                 1.2827                 2.1473
 Frc consts  --      0.0014                 0.0101                 0.0214
 IR Inten    --      1.5837                 0.4989                 0.2620

                      4                      5                      6
                      A                      A                      A
 Frequencies --    142.0898               248.4368               310.7262
 Red. masses --      3.6003                 4.3293                 3.9366
 Frc consts  --      0.0428                 0.1574                 0.2239
 IR Inten    --      0.8853                 4.8605                13.4980

                      7                      8                      9
                      A                      A                      A
 Frequencies --    391.9129               460.6722               565.6119
 Red. masses --      3.5261                 5.0559                 1.9596
 Frc consts  --      0.3191                 0.6322                 0.3694
 IR Inten    --      0.1858                 5.4100                 0.1683

                     10                     11                     12
                      A                      A                      A
 Frequencies --    651.6456               779.4879               791.9755
 Red. masses --      4.2919                 2.7615                 4.5509
 Frc consts  --      1.0738                 0.9886                 1.6818
 IR Inten    --      6.7821                 0.1084                 7.6270

                     13                     14                     15
                      A                      A                      A
 Frequencies --    808.8894               873.5525               901.8520
 Red. masses --      2.9995                 2.9107                 2.3381
 Frc consts  --      1.1563                 1.3087                 1.1204
 IR Inten    --      3.9054                10.2548                 1.3192

                     16                     17                     18
                      A                      A                      A
 Frequencies --    902.2120               907.9750               952.6794
 Red. masses --      2.0793                 2.8735                 2.6771
 Frc consts  --      0.9972                 1.3957                 1.4316
 IR Inten    --      0.2032                 0.2025                 3.5471

                     19                     20                     21
                      A                      A                      A
 Frequencies --   1009.1625              1023.8088              1028.6589
 Red. masses --      1.0576                 1.1538                 1.6511
 Frc consts  --      0.6346                 0.7126                 1.0294
 IR Inten    --      1.1739                 0.2672                 7.5141

                     22                     23                     24
                      A                      A                      A
 Frequencies --   1065.5485              1090.6450              1116.8640
 Red. masses --      3.1225                 1.4461                 2.0730
 Frc consts  --      2.0888                 1.0135                 1.5235
 IR Inten    --     57.1524                 2.1978                 1.8819

                     25                     26                     27
                      A                      A                      A
 Frequencies --   1128.0498              1136.1822              1178.3677
 Red. masses --      2.3918                 1.4147                 1.2867
 Frc consts  --      1.7932                 1.0760                 1.0527
 IR Inten    --     10.8536                 6.5918                 1.3459

                     28                     29                     30
                      A                      A                      A
 Frequencies --   1187.7801              1208.5713              1210.0729
 Red. masses --      1.4118                 1.4453                 1.4949
 Frc consts  --      1.1735                 1.2438                 1.2897
 IR Inten    --      1.8862                 1.0808                 5.4886

                     31                     32                     33
                      A                      A                      A
 Frequencies --   1240.1292              1243.3562              1265.8599
 Red. masses --      1.6593                 1.6723                 1.7741
 Frc consts  --      1.5036                 1.5232                 1.6749
 IR Inten    --     14.6628                 2.8152                 2.2605

                     34                     35                     36
                      A                      A                      A
 Frequencies --   1271.6474              1374.5418              1471.0602
 Red. masses --      4.4178                 1.5312                 1.1963
 Frc consts  --      4.2091                 1.7045                 1.5252
 IR Inten    --    329.2455                 5.6626                10.3343

                     37                     38                     39
                      A                      A                      A
 Frequencies --   1481.1015              1496.9292              1503.0975
 Red. masses --      1.0478                 1.0567                 1.0982
 Frc consts  --      1.3542                 1.3951                 1.4619
 IR Inten    --      6.0281                 7.1586                 0.8165

                     40                     41                     42
                      A                      A                      A
 Frequencies --   1543.2085              1812.9080              3051.4040
 Red. masses --      1.1353                11.8438                 1.0528
 Frc consts  --      1.5929                22.9348                 5.7758
 IR Inten    --      1.4670               212.4720                66.0753

                     43                     44                     45
                      A                      A                      A
 Frequencies --   3051.8884              3056.9536              3063.4383
 Red. masses --      1.0333                 1.0792                 1.0566
 Frc consts  --      5.6702                 5.9417                 5.8424
 IR Inten    --      9.5367                42.1217                24.2808

                     46                     47                     48
                      A                      A                      A
 Frequencies --   3116.8487              3118.4858              3120.7847
 Red. masses --      1.0901                 1.1103                 1.0956
 Frc consts  --      6.2392                 6.3616                 6.2867
 IR Inten    --     87.7120                31.0455                 9.3612

                     49                     50                     51
                      A                      A                      A
 Frequencies --   3126.2145              3130.7471              3158.5191
 Red. masses --      1.1054                 1.1088                 1.1060
 Frc consts  --      6.3654                 6.4033                 6.5010
 IR Inten    --     18.6921                37.3361                15.1833

 - Thermochemistry -
 -------------------
 Temperature   298.150 Kelvin.  Pressure   1.00000 Atm.
 Atom     1 has atomic number  6 and mass  12.00000

 Molecular mass:   126.06808 amu.
 Principal axes and moments of inertia in atomic units:
                           1         2         3
     Eigenvalues --   469.554461611.234211790.02203
           X            0.99986  -0.01657   0.00365
           Y            0.01673   0.99875  -0.04719
           Z           -0.00286   0.04725   0.99888
 This molecule is an asymmetric top.
 Rotational symmetry number  1.
 Warning -- assumption of classical behavior for rotation
           may cause significant error
 Rotational temperatures (Kelvin)      0.18446     0.05376     0.04839
 Rotational constants (GHZ):           3.84352     1.12010     1.00822
 Zero-point vibrational energy     418946.0 (Joules/Mol)
                                  100.13049 (Kcal/Mol)
 Warning -- explicit consideration of   9 degrees of freedom as
           vibrations may cause significant error
 Vibrational temperatures:     34.72   166.35   187.03   204.44   357.44
          (Kelvin)            447.07   563.87   662.80   813.79   937.57
                             1121.51  1139.47  1163.81  1256.85  1297.56
                             1298.08  1306.37  1370.69  1451.96  1473.03
                             1480.01  1533.08  1569.19  1606.92  1623.01
                             1634.71  1695.41  1708.95  1738.86  1741.02
                             1784.27  1788.91  1821.29  1829.61  1977.66
                             2116.52  2130.97  2153.74  2162.62  2220.33
                             2608.37  4390.28  4390.98  4398.27  4407.60
                             4484.44  4486.80  4490.11  4497.92  4504.44
                             4544.40

 Zero-point correction=                           0.159568 (Hartree/Particle)
 Thermal correction to Energy=                    0.167998
 Thermal correction to Enthalpy=                  0.168942
 Thermal correction to Gibbs Free Energy=         0.125105
 Sum of electronic and zero-point Energies=           -423.003620
 Sum of electronic and thermal Energies=              -422.995190
 Sum of electronic and thermal Enthalpies=            -422.994246
 Sum of electronic and thermal Free Energies=         -423.038082

                     E (Thermal)             CV                S
                      KCal/Mol        Cal/Mol-Kelvin    Cal/Mol-Kelvin
 Total                  105.420             30.902             92.262
 Electronic               0.000              0.000              0.000
 Translational            0.889              2.981             40.409
 Rotational               0.889              2.981             28.695
 Vibrational            103.643             24.940             23.159
 Vibration     1          0.593              1.985              6.262
 Vibration     2          0.608              1.936              3.172
 Vibration     3          0.612              1.923              2.946
 Vibration     4          0.616              1.911              2.776
 Vibration     5          0.662              1.765              1.742
 Vibration     6          0.700              1.653              1.358
 Vibration     7          0.759              1.487              0.993
 Vibration     8          0.818              1.337              0.764
 Vibration     9          0.921              1.106              0.513

 Optimization completed.
    -- Stationary point found.
 Normal termination of Gaussian 09 at Tue Jan 28 08:55:20 2020.
