 Gaussian 09, Revision D.01,
 Gaussian 09:  ES64L-G09RevD.01 24-Apr-2013

 -----------------------------
 # b3lyp 6-31G(2df,p) opt Freq
 -----------------------------

 -----
 titel
 -----
 Symbolic Z-matrix:
 Charge =  0 Multiplicity = 1

 SCF Done:  E(RB3LYP) =  -423.211669130     A.U. after   14 cycles
 Optimization completed.
    -- Stationary point found.
 Normal termination of Gaussian 09 at Mon Jan 27 23:55:24 2020.

 ----------------------------------------------------------------------
 #N Geom=AllCheck Guess=TCheck SCRF=Check GenChk RB3LYP/6-31G(2df,p) Fr
 eq
 ----------------------------------------------------------------------

 Structure from the checkpoint file:  "/scratch/puck/g09_391368cf-1567-4663-9c8e-cdcdd2c88659/Gau-89761.chk"
 -----
 titel
 -----
 Charge =  0 Multiplicity = 1

                         Standard orientation:
 ---------------------------------------------------------------------
 Center     Atomic      Atomic             Coordinates (Angstroms)
 Number     Number       Type             X           Y           Z
 ---------------------------------------------------------------------
      1          6           0        2.628542   -0.112677   -0.528152
      2          6           0        1.155233   -0.455155   -0.557782
      3          6           0        0.471936   -0.931090    0.696900
      4          6           0       -0.805672   -1.753478    0.511910
      5          6           0       -1.714125   -0.913441   -0.420927
      6          6           0       -1.202225    0.515819   -0.263412
      7          8           0       -1.830595    1.546743   -0.366624
      8          6           0        0.212488    0.482669    0.192202
      9          8           0        0.691902    1.645345    0.764731
     10          1           0        2.910004    0.340999    0.424885
     11          1           0        3.236085   -1.011468   -0.677888
     12          1           0        2.879962    0.601778   -1.318270
     13          1           0        0.806702   -0.870706   -1.501684
     14          1           0        1.081066   -1.083541    1.581371
     15          1           0       -0.598541   -2.749120    0.105857
     16          1           0       -1.297496   -1.891967    1.480222
     17          1           0       -1.621055   -1.213882   -1.471397
     18          1           0       -2.774777   -0.964579   -0.169050
     19          1           0        0.010530    2.309897    0.576667
 ---------------------------------------------------------------------

 SCF Done:  E(RB3LYP) =  -423.211669130     A.U. after    1 cycles

 The electronic state is 1-A.
 Alpha  occ. eigenvalues --  -19.14569 -19.13698 -10.26969 -10.24277 -10.20289
 Alpha  occ. eigenvalues --  -10.20126 -10.20028 -10.19861 -10.18157  -1.05663
 Alpha  occ. eigenvalues --   -1.02442  -0.88754  -0.78208  -0.71051  -0.68788
 Alpha  occ. eigenvalues --   -0.60752  -0.57575  -0.55983  -0.49167  -0.47685
 Alpha  occ. eigenvalues --   -0.46669  -0.45855  -0.42892  -0.41269  -0.39976
 Alpha  occ. eigenvalues --   -0.38934  -0.38344  -0.37369  -0.35995  -0.34626
 Alpha  occ. eigenvalues --   -0.34227  -0.29743  -0.25012  -0.23996
 Alpha virt. eigenvalues --   -0.01985   0.08142   0.09281   0.10834   0.12583
 Alpha virt. eigenvalues --    0.13061   0.14569   0.15494   0.16314   0.17476
 Alpha virt. eigenvalues --    0.17801   0.18859   0.20377   0.21774   0.23295

 Mulliken charges:
               1
     1  C   -0.415184
     2  C   -0.085968
     3  C   -0.126751
     4  C   -0.233568
     5  C   -0.344381
     6  C    0.347478
     7  O   -0.355611
     8  C    0.344190
     9  O   -0.480681
    10  H    0.137824
    11  H    0.117440
    12  H    0.125581
    13  H    0.083521
    14  H    0.100752
    15  H    0.106857
    16  H    0.115185
    17  H    0.134469
    18  H    0.133729
    19  H    0.295120
 Sum of Mulliken charges =   0.00000

 Dipole moment (field-independent basis, Debye):
    X=              0.5068    Y=             -2.5661    Z=             -0.2954  Tot=              2.6323
 Quadrupole moment (field-independent basis, Debye-Ang):
   XX=            -55.3794   YY=            -54.3137   ZZ=            -52.2313
   XY=              2.9553   XZ=             -1.7686   YZ=              0.1930

  Exact polarizability:  87.335  -1.980  79.871  -0.091  -0.485  62.453
 Approx polarizability: 118.886 -11.271 123.386   1.854  -0.085  97.756

                      1                      2                      3
                      A                      A                      A
 Frequencies --    101.2646               166.7437               177.3697
 Red. masses --      6.1578                 1.2861                 1.6375
 Frc consts  --      0.0372                 0.0211                 0.0304
 IR Inten    --      0.6724                 1.1478                 1.2862

                      4                      5                      6
                      A                      A                      A
 Frequencies --    220.5151               253.9564               296.3508
 Red. masses --      2.5904                 2.4807                 5.6409
 Frc consts  --      0.0742                 0.0943                 0.2919
 IR Inten    --      0.9602                 1.5054                18.1318

                      7                      8                      9
                      A                      A                      A
 Frequencies --    339.6606               366.5898               457.1825
 Red. masses --      3.1582                 1.1459                 3.3042
 Frc consts  --      0.2147                 0.0907                 0.4069
 IR Inten    --      2.4256                56.3117                 2.6253

                     10                     11                     12
                      A                      A                      A
 Frequencies --    504.7548               549.2982               629.5079
 Red. masses --      3.3534                 3.8861                 2.9460
 Frc consts  --      0.5034                 0.6908                 0.6878
 IR Inten    --      7.3898                 6.8016                 5.2175

                     13                     14                     15
                      A                      A                      A
 Frequencies --    670.0901               692.5608               792.2783
 Red. masses --      3.9687                 4.1881                 2.3759
 Frc consts  --      1.0499                 1.1835                 0.8787
 IR Inten    --      7.5841                 7.9341                 4.1002

                     16                     17                     18
                      A                      A                      A
 Frequencies --    834.4089               876.5314               923.4855
 Red. masses --      2.1393                 2.7677                 2.1198
 Frc consts  --      0.8776                 1.2529                 1.0651
 IR Inten    --     10.1127                 3.9242                11.9202

                     19                     20                     21
                      A                      A                      A
 Frequencies --    963.3921              1001.4243              1025.7207
 Red. masses --      1.6775                 1.5428                 2.1278
 Frc consts  --      0.9173                 0.9116                 1.3190
 IR Inten    --      2.9162                 2.9164                 3.0930

                     22                     23                     24
                      A                      A                      A
 Frequencies --   1039.6288              1063.0979              1086.5174
 Red. masses --      1.3775                 2.1953                 2.3644
 Frc consts  --      0.8772                 1.4618                 1.6445
 IR Inten    --      1.1189                 8.1434                70.0446

                     25                     26                     27
                      A                      A                      A
 Frequencies --   1134.4768              1140.5616              1180.4994
 Red. masses --      1.6180                 2.2431                 1.4872
 Frc consts  --      1.2269                 1.7193                 1.2211
 IR Inten    --     23.1649                 5.4122                20.0740

                     28                     29                     30
                      A                      A                      A
 Frequencies --   1201.7424              1237.0344              1266.6065
 Red. masses --      1.5611                 1.5473                 1.3704
 Frc consts  --      1.3283                 1.3950                 1.2954
 IR Inten    --     53.8308                43.4369                 5.6555

                     31                     32                     33
                      A                      A                      A
 Frequencies --   1306.1445              1331.0289              1365.4510
 Red. masses --      1.5508                 1.5898                 1.7296
 Frc consts  --      1.5588                 1.6594                 1.9000
 IR Inten    --      1.6169                 8.0639                13.1127

                     34                     35                     36
                      A                      A                      A
 Frequencies --   1390.7886              1420.3566              1459.9406
 Red. masses --      2.0398                 1.3159                 1.0967
 Frc consts  --      2.3246                 1.5641                 1.3772
 IR Inten    --     85.5117                 3.9820                 6.5490

                     37                     38                     39
                      A                      A                      A
 Frequencies --   1461.7213              1490.0737              1498.8215
 Red. masses --      2.1212                 1.0544                 1.0749
 Frc consts  --      2.6703                 1.3794                 1.4227
 IR Inten    --     12.3658                 4.0822                 1.0379

                     40                     41                     42
                      A                      A                      A
 Frequencies --   1504.8382              1809.1224              3038.8742
 Red. masses --      1.1451                12.2668                 1.0371
 Frc consts  --      1.5278                23.6548                 5.6429
 IR Inten    --      5.3182               263.8576                34.1885

                     43                     44                     45
                      A                      A                      A
 Frequencies --   3042.5869              3046.9654              3082.5136
 Red. masses --      1.0601                 1.0681                 1.1036
 Frc consts  --      5.7820                 5.8427                 6.1783
 IR Inten    --     38.1656                 8.1252                19.9047

                     46                     47                     48
                      A                      A                      A
 Frequencies --   3100.0376              3110.3285              3120.7461
 Red. masses --      1.1013                 1.0888                 1.0957
 Frc consts  --      6.2357                 6.2059                 6.2869
 IR Inten    --     20.3370                 5.6229                 9.7025

                     49                     50                     51
                      A                      A                      A
 Frequencies --   3131.1208              3174.4331              3703.3045
 Red. masses --      1.0984                 1.0903                 1.0650
 Frc consts  --      6.3444                 6.4735                 8.6056
 IR Inten    --     22.1828                 9.0593                59.1965

 - Thermochemistry -
 -------------------
 Temperature   298.150 Kelvin.  Pressure   1.00000 Atm.
 Atom     1 has atomic number  6 and mass  12.00000

 Molecular mass:   126.06808 amu.
 Principal axes and moments of inertia in atomic units:
                           1         2         3
     Eigenvalues --   757.545001102.234971553.70178
           X            0.99791   0.06278  -0.01524
           Y           -0.06281   0.99802  -0.00171
           Z            0.01510   0.00267   0.99988
 This molecule is an asymmetric top.
 Rotational symmetry number  1.
 Warning -- assumption of classical behavior for rotation
           may cause significant error
 Rotational temperatures (Kelvin)      0.11433     0.07858     0.05575
 Rotational constants (GHZ):           2.38236     1.63735     1.16158
 Zero-point vibrational energy     417391.7 (Joules/Mol)
                                   99.75902 (Kcal/Mol)
 Warning -- explicit consideration of  11 degrees of freedom as
           vibrations may cause significant error
 Vibrational temperatures:    145.70   239.91   255.20   317.27   365.39
          (Kelvin)            426.38   488.70   527.44   657.78   726.23
                              790.32   905.72   964.11   996.44  1139.91
                             1200.53  1261.13  1328.69  1386.10  1440.82
                             1475.78  1495.79  1529.56  1563.25  1632.26
                             1641.01  1698.47  1729.04  1779.81  1822.36
                             1879.25  1915.05  1964.58  2001.03  2043.57
                             2100.53  2103.09  2143.88  2156.47  2165.12
                             2602.92  4372.26  4377.60  4383.90  4435.04
                             4460.26  4475.06  4490.05  4504.98  4567.30
                             5328.22

 Zero-point correction=                           0.158976 (Hartree/Particle)
 Thermal correction to Energy=                    0.167592
 Thermal correction to Enthalpy=                  0.168536
 Thermal correction to Gibbs Free Energy=         0.126078
 Sum of electronic and zero-point Energies=           -423.052693
 Sum of electronic and thermal Energies=              -423.044078
 Sum of electronic and thermal Enthalpies=            -423.043133
 Sum of electronic and thermal Free Energies=         -423.085591

                     E (Thermal)             CV                S
                      KCal/Mol        Cal/Mol-Kelvin    Cal/Mol-Kelvin
 Total                  105.165             33.117             89.360
 Electronic               0.000              0.000              0.000
 Translational            0.889              2.981             40.409
 Rotational               0.889              2.981             28.652
 Vibrational            103.388             27.155             20.299
 Vibration     1          0.604              1.948              3.430
 Vibration     2          0.624              1.883              2.472
 Vibration     3          0.628              1.870              2.356
 Vibration     4          0.647              1.810              1.955
 Vibration     5          0.665              1.756              1.703
 Vibration     6          0.690              1.681              1.437
 Vibration     7          0.720              1.596              1.214
 Vibration     8          0.739              1.541              1.094
 Vibration     9          0.815              1.345              0.774
 Vibration    10          0.860              1.239              0.646
 Vibration    11          0.905              1.141              0.546

 Optimization completed.
    -- Stationary point found.
 Normal termination of Gaussian 09 at Tue Jan 28 00:38:58 2020.
