 Gaussian 09, Revision D.01,
 Gaussian 09:  ES64L-G09RevD.01 24-Apr-2013

 -----------------------------
 # b3lyp 6-31G(2df,p) opt Freq
 -----------------------------

 -----
 titel
 -----
 Symbolic Z-matrix:
 Charge =  0 Multiplicity = 1

 SCF Done:  E(RB3LYP) =  -423.119676158     A.U. after   14 cycles
 Optimization completed.
    -- Stationary point found.
 Normal termination of Gaussian 09 at Tue Jan 28 09:45:44 2020.

 ----------------------------------------------------------------------
 #N Geom=AllCheck Guess=TCheck SCRF=Check GenChk RB3LYP/6-31G(2df,p) Fr
 eq
 ----------------------------------------------------------------------

 Structure from the checkpoint file:  "/scratch/puck/g09_bb9a5994-c636-4026-9085-c9469ac06cda/Gau-106518.chk"
 -----
 titel
 -----
 Charge =  0 Multiplicity = 1

                         Standard orientation:
 ---------------------------------------------------------------------
 Center     Atomic      Atomic             Coordinates (Angstroms)
 Number     Number       Type             X           Y           Z
 ---------------------------------------------------------------------
      1          8           0       -2.674721    0.881045   -0.218730
      2          6           0       -2.099489   -0.237435    0.439754
      3          6           0       -0.622754   -0.311407    0.215930
      4          8           0       -0.207987   -0.703178   -1.110023
      5          6           0        0.308748   -1.439563    0.007001
      6          6           0        1.489794   -0.638337    0.605706
      7          6           0        2.330116    0.220151   -0.385494
      8          6           0        1.350912    1.419706   -0.176852
      9          6           0        0.510027    0.564175    0.814260
     10          1           0       -2.465314    0.789805   -1.155085
     11          1           0       -2.313947   -0.105908    1.505434
     12          1           0       -2.558249   -1.183661    0.114399
     13          1           0        0.144801   -2.512548   -0.006286
     14          1           0        1.991576   -1.118858    1.445645
     15          1           0        3.343607    0.415181   -0.027485
     16          1           0        2.382460   -0.169285   -1.403483
     17          1           0        1.816062    2.286807    0.297450
     18          1           0        0.816594    1.749027   -1.069314
     19          1           0        0.299944    0.962768    1.806915
 ---------------------------------------------------------------------

 SCF Done:  E(RB3LYP) =  -423.119676158     A.U. after    1 cycles

 The electronic state is 1-A.
 Alpha  occ. eigenvalues --  -19.15502 -19.13656 -10.23858 -10.23804 -10.23387
 Alpha  occ. eigenvalues --  -10.19008 -10.18817 -10.17826 -10.17749  -1.08007
 Alpha  occ. eigenvalues --   -1.01677  -0.84521  -0.73678  -0.70675  -0.66456
 Alpha  occ. eigenvalues --   -0.60170  -0.57880  -0.53115  -0.52228  -0.48852
 Alpha  occ. eigenvalues --   -0.47640  -0.45957  -0.43652  -0.40266  -0.40196
 Alpha  occ. eigenvalues --   -0.37844  -0.36654  -0.34105  -0.31604  -0.31470
 Alpha  occ. eigenvalues --   -0.30782  -0.27930  -0.25896  -0.25381
 Alpha virt. eigenvalues --    0.05952   0.08365   0.08718   0.11390   0.12539
 Alpha virt. eigenvalues --    0.13460   0.13530   0.14223   0.15240   0.17063
 Alpha virt. eigenvalues --    0.17631   0.18410   0.19542   0.21244   0.22428

 Mulliken charges:
               1
     1  O   -0.413936
     2  C   -0.184382
     3  C    0.388262
     4  O   -0.287725
     5  C   -0.066094
     6  C   -0.053905
     7  C   -0.224209
     8  C   -0.224816
     9  C   -0.094857
    10  H    0.293486
    11  H    0.113106
    12  H    0.096626
    13  H    0.100408
    14  H    0.072441
    15  H    0.097360
    16  H    0.109689
    17  H    0.097676
    18  H    0.107356
    19  H    0.073514
 Sum of Mulliken charges =   0.00000

 Dipole moment (field-independent basis, Debye):
    X=              0.9675    Y=             -1.0864    Z=              0.9488  Tot=              1.7369
 Quadrupole moment (field-independent basis, Debye-Ang):
   XX=            -55.5837   YY=            -52.3705   ZZ=            -51.8649
   XY=              2.7896   XZ=              1.8459   YZ=             -1.6759

  Exact polarizability:  83.719   0.359  74.047  -0.541  -0.254  65.321
 Approx polarizability: 109.254  -5.191 110.185   0.590   1.113 106.342

                      1                      2                      3
                      A                      A                      A
 Frequencies --     72.2006               109.1681               191.4853
 Red. masses --      3.4892                 4.4125                 2.1003
 Frc consts  --      0.0107                 0.0310                 0.0454
 IR Inten    --      4.0105                 0.1359                 1.0324

                      4                      5                      6
                      A                      A                      A
 Frequencies --    256.5105               323.2194               347.6844
 Red. masses --      2.5660                 2.5118                 3.1484
 Frc consts  --      0.0995                 0.1546                 0.2242
 IR Inten    --      2.9391                26.6469                 3.9439

                      7                      8                      9
                      A                      A                      A
 Frequencies --    411.8564               467.2180               591.0074
 Red. masses --      1.3439                 2.9971                 4.0030
 Frc consts  --      0.1343                 0.3855                 0.8238
 IR Inten    --    102.5559                 1.0112                13.2333

                     10                     11                     12
                      A                      A                      A
 Frequencies --    684.5960               702.6295               731.0210
 Red. masses --      3.3156                 4.0245                 1.4238
 Frc consts  --      0.9155                 1.1706                 0.4483
 IR Inten    --     14.6689                 1.4067                 4.2559

                     13                     14                     15
                      A                      A                      A
 Frequencies --    793.4028               807.0238               862.7729
 Red. masses --      2.8487                 3.1311                 1.7932
 Frc consts  --      1.0566                 1.2015                 0.7865
 IR Inten    --      5.5325                 1.6835                 3.8841

                     16                     17                     18
                      A                      A                      A
 Frequencies --    876.8477               931.3190               946.6631
 Red. masses --      2.7148                 2.8324                 1.5635
 Frc consts  --      1.2298                 1.4475                 0.8255
 IR Inten    --      0.0836                15.5585                13.4602

                     19                     20                     21
                      A                      A                      A
 Frequencies --    954.0361               968.1469              1005.8028
 Red. masses --      2.5691                 2.4908                 2.3760
 Frc consts  --      1.3777                 1.3755                 1.4162
 IR Inten    --      2.3035                 8.5913                 1.8581

                     22                     23                     24
                      A                      A                      A
 Frequencies --   1021.2671              1054.0905              1078.6473
 Red. masses --      1.7734                 2.2492                 3.2221
 Frc consts  --      1.0898                 1.4724                 2.2087
 IR Inten    --     35.1151                35.9465                29.6558

                     25                     26                     27
                      A                      A                      A
 Frequencies --   1107.4425              1140.3422              1149.3609
 Red. masses --      1.9759                 1.6633                 1.7387
 Frc consts  --      1.4277                 1.2743                 1.3533
 IR Inten    --      1.5503                 5.8577                 5.1530

                     28                     29                     30
                      A                      A                      A
 Frequencies --   1199.5418              1226.9569              1242.4696
 Red. masses --      1.2981                 1.3256                 1.3134
 Frc consts  --      1.1005                 1.1757                 1.1946
 IR Inten    --      0.7629                 2.7650                 7.4545

                     31                     32                     33
                      A                      A                      A
 Frequencies --   1243.2167              1255.6609              1278.1670
 Red. masses --      1.4134                 1.4327                 1.5133
 Frc consts  --      1.2871                 1.3309                 1.4567
 IR Inten    --      4.3352                10.2774                 3.0318

                     34                     35                     36
                      A                      A                      A
 Frequencies --   1287.8587              1313.6055              1368.1683
 Red. masses --      1.6017                 1.8848                 1.2982
 Frc consts  --      1.5652                 1.9162                 1.4317
 IR Inten    --      3.5598                 7.0704                 1.0926

                     37                     38                     39
                      A                      A                      A
 Frequencies --   1417.8469              1456.8051              1463.6337
 Red. masses --      1.3172                 2.9435                 1.0846
 Frc consts  --      1.5601                 3.6806                 1.3690
 IR Inten    --     41.9485                18.8196                 1.2174

                     40                     41                     42
                      A                      A                      A
 Frequencies --   1485.0760              1487.7824              2990.9465
 Red. masses --      1.1886                 1.1067                 1.0683
 Frc consts  --      1.5444                 1.4433                 5.6309
 IR Inten    --      2.2827                 1.2316                50.1469

                     43                     44                     45
                      A                      A                      A
 Frequencies --   3066.6630              3073.1119              3077.8582
 Red. masses --      1.0594                 1.0605                 1.0941
 Frc consts  --      5.8699                 5.9008                 6.1065
 IR Inten    --     30.0938                44.8527                20.5055

                     46                     47                     48
                      A                      A                      A
 Frequencies --   3106.1298              3116.2346              3119.1656
 Red. masses --      1.0893                 1.0907                 1.1043
 Frc consts  --      6.1921                 6.2406                 6.3300
 IR Inten    --     23.9362                18.7391                 0.4285

                     49                     50                     51
                      A                      A                      A
 Frequencies --   3135.9527              3166.0335              3804.6218
 Red. masses --      1.1064                 1.0940                 1.0660
 Frc consts  --      6.4108                 6.4611                 9.0913
 IR Inten    --     43.0506                26.7619                20.7794

 - Thermochemistry -
 -------------------
 Temperature   298.150 Kelvin.  Pressure   1.00000 Atm.
 Atom     1 has atomic number  8 and mass  15.99491

 Molecular mass:   126.06808 amu.
 Principal axes and moments of inertia in atomic units:
                           1         2         3
     Eigenvalues --   534.410111370.962781548.03791
           X            0.99971   0.02352  -0.00511
           Y           -0.02371   0.99888  -0.04085
           Z            0.00414   0.04096   0.99915
 This molecule is an asymmetric top.
 Rotational symmetry number  1.
 Warning -- assumption of classical behavior for rotation
           may cause significant error
 Rotational temperatures (Kelvin)      0.16207     0.06318     0.05595
 Rotational constants (GHZ):           3.37707     1.31640     1.16582
 Zero-point vibrational energy     418509.2 (Joules/Mol)
                                  100.02609 (Kcal/Mol)
 Warning -- explicit consideration of   9 degrees of freedom as
           vibrations may cause significant error
 Vibrational temperatures:    103.88   157.07   275.50   369.06   465.04
          (Kelvin)            500.24   592.57   672.22   850.33   984.98
                             1010.93  1051.77  1141.53  1161.13  1241.34
                             1261.59  1339.96  1362.04  1372.64  1392.95
                             1447.12  1469.37  1516.60  1551.93  1593.36
                             1640.70  1653.67  1725.87  1765.32  1787.63
                             1788.71  1806.61  1838.99  1852.94  1889.98
                             1968.49  2039.96  2096.02  2105.84  2136.69
                             2140.58  4303.30  4412.24  4421.52  4428.35
                             4469.02  4483.56  4487.78  4511.93  4555.21
                             5474.00

 Zero-point correction=                           0.159402 (Hartree/Particle)
 Thermal correction to Energy=                    0.167387
 Thermal correction to Enthalpy=                  0.168331
 Thermal correction to Gibbs Free Energy=         0.126648
 Sum of electronic and zero-point Energies=           -422.960274
 Sum of electronic and thermal Energies=              -422.952289
 Sum of electronic and thermal Enthalpies=            -422.951345
 Sum of electronic and thermal Free Energies=         -422.993028

                     E (Thermal)             CV                S
                      KCal/Mol        Cal/Mol-Kelvin    Cal/Mol-Kelvin
 Total                  105.037             31.115             87.730
 Electronic               0.000              0.000              0.000
 Translational            0.889              2.981             40.409
 Rotational               0.889              2.981             28.519
 Vibrational            103.259             25.153             18.803
 Vibration     1          0.598              1.967              4.092
 Vibration     2          0.606              1.942              3.284
 Vibration     3          0.634              1.852              2.213
 Vibration     4          0.666              1.752              1.685
 Vibration     5          0.708              1.629              1.294
 Vibration     6          0.725              1.580              1.177
 Vibration     7          0.776              1.444              0.920
 Vibration     8          0.824              1.323              0.745
 Vibration     9          0.948              1.051              0.465

 Optimization completed.
    -- Stationary point found.
 Normal termination of Gaussian 09 at Tue Jan 28 10:30:36 2020.
