 Gaussian 09, Revision D.01,
 Gaussian 09:  ES64L-G09RevD.01 24-Apr-2013

 -----------------------------
 # b3lyp 6-31G(2df,p) opt Freq
 -----------------------------

 -----
 titel
 -----
 Symbolic Z-matrix:
 Charge =  0 Multiplicity = 1

 SCF Done:  E(RB3LYP) =  -423.161315615     A.U. after   14 cycles
 Optimization completed.
    -- Stationary point found.
 Normal termination of Gaussian 09 at Tue Jan 28 14:08:52 2020.

 ----------------------------------------------------------------------
 #N Geom=AllCheck Guess=TCheck SCRF=Check GenChk RB3LYP/6-31G(2df,p) Fr
 eq
 ----------------------------------------------------------------------

 Structure from the checkpoint file:  "/scratch/puck/g09_3487b07e-cebe-4168-8d11-ee33e35d910a/Gau-71730.chk"
 -----
 titel
 -----
 Charge =  0 Multiplicity = 1

                         Standard orientation:
 ---------------------------------------------------------------------
 Center     Atomic      Atomic             Coordinates (Angstroms)
 Number     Number       Type             X           Y           Z
 ---------------------------------------------------------------------
      1          8           0       -3.216677    0.570651   -0.135068
      2          6           0       -2.365516   -0.560505    0.002007
      3          6           0       -0.924688   -0.276407   -0.347070
      4          6           0        0.199836   -0.898216    0.445044
      5          8           0        1.336595   -1.285950   -0.271253
      6          6           0        2.483132   -0.462441   -0.086169
      7          6           0        2.183885    1.010837   -0.203991
      8          6           0        0.975390    1.485039    0.093355
      9          6           0       -0.078169    0.570667    0.596297
     10          1           0       -3.165866    0.865312   -1.049959
     11          1           0       -2.443139   -0.853735    1.054887
     12          1           0       -2.733440   -1.408894   -0.596514
     13          1           0       -0.700191   -0.160651   -1.404789
     14          1           0       -0.053413   -1.574155    1.260871
     15          1           0        2.960231   -0.675228    0.886405
     16          1           0        3.190279   -0.775280   -0.861194
     17          1           0        2.988009    1.660411   -0.536663
     18          1           0        0.740589    2.541428   -0.002757
     19          1           0       -0.585628    0.889337    1.503449
 ---------------------------------------------------------------------

 SCF Done:  E(RB3LYP) =  -423.161315615     A.U. after    1 cycles

 The electronic state is 1-A.
 Alpha  occ. eigenvalues --  -19.14169 -19.13239 -10.23457 -10.23264 -10.22898
 Alpha  occ. eigenvalues --  -10.19366 -10.18964 -10.18661 -10.18330  -1.03807
 Alpha  occ. eigenvalues --   -1.01294  -0.85929  -0.78890  -0.70747  -0.66426
 Alpha  occ. eigenvalues --   -0.62420  -0.58482  -0.52177  -0.50837  -0.49051
 Alpha  occ. eigenvalues --   -0.48797  -0.46362  -0.43369  -0.43047  -0.40156
 Alpha  occ. eigenvalues --   -0.39617  -0.37464  -0.35215  -0.33552  -0.32124
 Alpha  occ. eigenvalues --   -0.27922  -0.27171  -0.24811  -0.23402
 Alpha virt. eigenvalues --    0.01213   0.07750   0.09616   0.11039   0.11701
 Alpha virt. eigenvalues --    0.12934   0.14974   0.15836   0.16152   0.16832
 Alpha virt. eigenvalues --    0.17433   0.17628   0.18815   0.22274   0.23561

 Mulliken charges:
               1
     1  O   -0.413639
     2  C   -0.091841
     3  C   -0.080033
     4  C    0.067218
     5  O   -0.264217
     6  C   -0.118645
     7  C   -0.080176
     8  C   -0.087377
     9  C   -0.099856
    10  H    0.281131
    11  H    0.105554
    12  H    0.093356
    13  H    0.090090
    14  H    0.087683
    15  H    0.103511
    16  H    0.116483
    17  H    0.094924
    18  H    0.094686
    19  H    0.101149
 Sum of Mulliken charges =   0.00000

 Dipole moment (field-independent basis, Debye):
    X=              0.9261    Y=              0.5396    Z=             -0.4599  Tot=              1.1663
 Quadrupole moment (field-independent basis, Debye-Ang):
   XX=            -54.4079   YY=            -54.0927   ZZ=            -50.5916
   XY=              2.9694   XZ=              3.2247   YZ=             -2.7380

  Exact polarizability: 100.807   0.036  72.681  -2.714  -2.033  60.450
 Approx polarizability: 136.513  -6.851 108.420  -5.823  -0.026  95.352

                      1                      2                      3
                      A                      A                      A
 Frequencies --     68.9780               115.7175               154.7663
 Red. masses --      3.2056                 3.6179                 3.2817
 Frc consts  --      0.0090                 0.0285                 0.0463
 IR Inten    --      2.2938                 0.3620                 6.1649

                      4                      5                      6
                      A                      A                      A
 Frequencies --    212.7981               263.4031               331.3766
 Red. masses --      2.1599                 1.5759                 2.1182
 Frc consts  --      0.0576                 0.0644                 0.1370
 IR Inten    --      1.0255                65.3538                63.6695

                      7                      8                      9
                      A                      A                      A
 Frequencies --    336.7118               451.3803               510.0164
 Red. masses --      3.1720                 2.4599                 4.9494
 Frc consts  --      0.2119                 0.2953                 0.7585
 IR Inten    --      3.1995                 1.4705                 2.7875

                     10                     11                     12
                      A                      A                      A
 Frequencies --    519.0031               577.3017               701.9365
 Red. masses --      3.2156                 5.0548                 1.4365
 Frc consts  --      0.5103                 0.9926                 0.4170
 IR Inten    --      9.6032                 0.1310                24.5673

                     13                     14                     15
                      A                      A                      A
 Frequencies --    802.3615               859.0290               862.8623
 Red. masses --      2.7036                 2.4102                 2.6685
 Frc consts  --      1.0255                 1.0479                 1.1706
 IR Inten    --     12.2907                 1.9851                 7.5410

                     16                     17                     18
                      A                      A                      A
 Frequencies --    921.7370               960.1733               966.3352
 Red. masses --      3.4576                 1.7918                 3.1306
 Frc consts  --      1.7308                 0.9733                 1.7224
 IR Inten    --      7.1324                12.6349                 9.7238

                     19                     20                     21
                      A                      A                      A
 Frequencies --    978.9852               993.6550              1043.7409
 Red. masses --      1.7296                 1.7133                 1.9363
 Frc consts  --      0.9766                 0.9967                 1.2428
 IR Inten    --      9.3806                 2.2000                14.6350

                     22                     23                     24
                      A                      A                      A
 Frequencies --   1053.3213              1078.6354              1079.8245
 Red. masses --      2.6896                 2.2065                 1.6351
 Frc consts  --      1.7582                 1.5125                 1.1233
 IR Inten    --    125.9733                29.8941                 5.4425

                     25                     26                     27
                      A                      A                      A
 Frequencies --   1105.6177              1113.4009              1156.1899
 Red. masses --      1.4083                 2.0332                 1.9354
 Frc consts  --      1.0143                 1.4851                 1.5244
 IR Inten    --      5.2890                 5.3619                39.1304

                     28                     29                     30
                      A                      A                      A
 Frequencies --   1188.0268              1222.1686              1239.8851
 Red. masses --      1.2498                 1.5599                 1.5968
 Frc consts  --      1.0393                 1.3728                 1.4463
 IR Inten    --      2.7938                66.6516                 7.7783

                     31                     32                     33
                      A                      A                      A
 Frequencies --   1266.8794              1324.7846              1340.9168
 Red. masses --      1.1475                 1.2401                 1.2326
 Frc consts  --      1.0851                 1.2823                 1.3058
 IR Inten    --      3.1256                 9.1030                 1.1585

                     34                     35                     36
                      A                      A                      A
 Frequencies --   1370.7628              1395.6704              1412.6953
 Red. masses --      1.2788                 1.4330                 1.6331
 Frc consts  --      1.4157                 1.6446                 1.9202
 IR Inten    --      4.4904                 8.7475                13.9638

                     37                     38                     39
                      A                      A                      A
 Frequencies --   1423.1522              1453.6839              1493.3530
 Red. masses --      1.2544                 2.5503                 1.1060
 Frc consts  --      1.4969                 3.1752                 1.4532
 IR Inten    --     33.3113                27.0949                 2.4110

                     40                     41                     42
                      A                      A                      A
 Frequencies --   1501.4239              1712.6560              2953.8545
 Red. masses --      1.0921                 6.7103                 1.0724
 Frc consts  --      1.4505                11.5967                 5.5129
 IR Inten    --      0.8653                 4.8033                64.3922

                     43                     44                     45
                      A                      A                      A
 Frequencies --   2979.9322              3063.0191              3069.6692
 Red. masses --      1.0695                 1.0927                 1.0884
 Frc consts  --      5.5955                 6.0400                 6.0426
 IR Inten    --     67.4717                18.3922                32.0803

                     46                     47                     48
                      A                      A                      A
 Frequencies --   3105.5484              3136.7758              3145.3069
 Red. masses --      1.0882                 1.0886                 1.0864
 Frc consts  --      6.1837                 6.3111                 6.3322
 IR Inten    --     33.1108                 3.2835                19.8389

                     49                     50                     51
                      A                      A                      A
 Frequencies --   3158.7939              3182.5475              3816.4054
 Red. masses --      1.0844                 1.0983                 1.0662
 Frc consts  --      6.3750                 6.5544                 9.1496
 IR Inten    --      7.5510                24.2548                17.9340

 - Thermochemistry -
 -------------------
 Temperature   298.150 Kelvin.  Pressure   1.00000 Atm.
 Atom     1 has atomic number  8 and mass  15.99491

 Molecular mass:   126.06808 amu.
 Principal axes and moments of inertia in atomic units:
                           1         2         3
     Eigenvalues --   460.141071743.983832057.82173
           X            0.99989   0.01447   0.00123
           Y           -0.01443   0.99958  -0.02495
           Z           -0.00159   0.02493   0.99969
 This molecule is an asymmetric top.
 Rotational symmetry number  1.
 Warning -- assumption of classical behavior for rotation
           may cause significant error
 Rotational temperatures (Kelvin)      0.18823     0.04966     0.04209
 Rotational constants (GHZ):           3.92215     1.03484     0.87702
 Zero-point vibrational energy     419752.7 (Joules/Mol)
                                  100.32330 (Kcal/Mol)
 Warning -- explicit consideration of  11 degrees of freedom as
           vibrations may cause significant error
 Vibrational temperatures:     99.24   166.49   222.67   306.17   378.98
          (Kelvin)            476.78   484.45   649.43   733.80   746.73
                              830.61  1009.93  1154.42  1235.95  1241.46
                             1326.17  1381.47  1390.34  1408.54  1429.65
                             1501.71  1515.49  1551.91  1553.62  1590.74
                             1601.93  1663.50  1709.30  1758.43  1783.92
                             1822.75  1906.07  1929.28  1972.22  2008.06
                             2032.55  2047.60  2091.52  2148.60  2160.21
                             2464.13  4249.93  4287.45  4407.00  4416.56
                             4468.19  4513.12  4525.39  4544.79  4578.97
                             5490.95

 Zero-point correction=                           0.159875 (Hartree/Particle)
 Thermal correction to Energy=                    0.168311
 Thermal correction to Enthalpy=                  0.169256
 Thermal correction to Gibbs Free Energy=         0.126455
 Sum of electronic and zero-point Energies=           -423.001440
 Sum of electronic and thermal Energies=              -422.993004
 Sum of electronic and thermal Enthalpies=            -422.992060
 Sum of electronic and thermal Free Energies=         -423.034860

                     E (Thermal)             CV                S
                      KCal/Mol        Cal/Mol-Kelvin    Cal/Mol-Kelvin
 Total                  105.617             31.836             90.081
 Electronic               0.000              0.000              0.000
 Translational            0.889              2.981             40.409
 Rotational               0.889              2.981             28.892
 Vibrational            103.840             25.874             20.780
 Vibration     1          0.598              1.969              4.182
 Vibration     2          0.608              1.936              3.171
 Vibration     3          0.620              1.897              2.613
 Vibration     4          0.644              1.821              2.020
 Vibration     5          0.670              1.740              1.639
 Vibration     6          0.714              1.613              1.253
 Vibration     7          0.717              1.602              1.228
 Vibration     8          0.810              1.358              0.792
 Vibration     9          0.865              1.228              0.634
 Vibration    10          0.874              1.208              0.612
 Vibration    11          0.934              1.080              0.490

 Optimization completed.
    -- Stationary point found.
 Normal termination of Gaussian 09 at Tue Jan 28 14:52:32 2020.
