 Gaussian 09, Revision D.01,
 Gaussian 09:  ES64L-G09RevD.01 24-Apr-2013

 -----------------------------
 # b3lyp 6-31G(2df,p) opt Freq
 -----------------------------

 -----
 titel
 -----
 Symbolic Z-matrix:
 Charge =  0 Multiplicity = 1

 SCF Done:  E(RB3LYP) =  -423.173827822     A.U. after   14 cycles
 Optimization completed.
    -- Stationary point found.
 Normal termination of Gaussian 09 at Mon Jan 27 22:54:33 2020.

 ----------------------------------------------------------------------
 #N Geom=AllCheck Guess=TCheck SCRF=Check GenChk RB3LYP/6-31G(2df,p) Fr
 eq
 ----------------------------------------------------------------------

 Structure from the checkpoint file:  "/scratch/puck/g09_a3ff730f-d573-4cc0-835b-3a2743f5cc97/Gau-75166.chk"
 -----
 titel
 -----
 Charge =  0 Multiplicity = 1

                         Standard orientation:
 ---------------------------------------------------------------------
 Center     Atomic      Atomic             Coordinates (Angstroms)
 Number     Number       Type             X           Y           Z
 ---------------------------------------------------------------------
      1          8           0       -2.870139   -0.474031    0.082279
      2          6           0       -1.574347   -0.093391    0.433673
      3          6           0       -0.878989    0.841527   -0.523844
      4          6           0        0.029734    1.905160   -0.034531
      5          6           0        1.326126    1.670707    0.180965
      6          6           0        1.942571    0.311492   -0.055600
      7          6           0        0.951536   -0.816893    0.289807
      8          8           0        1.411409   -2.091308   -0.144774
      9          6           0       -0.400537   -0.590249   -0.372886
     10          1           0       -2.984435   -1.398496    0.327761
     11          1           0       -1.405216    0.073157    1.499493
     12          1           0       -1.466427    1.066933   -1.410057
     13          1           0       -0.389599    2.893047    0.139904
     14          1           0        1.972431    2.467006    0.539609
     15          1           0        2.240531    0.197354   -1.106916
     16          1           0        2.856476    0.197099    0.541171
     17          1           0        0.819919   -0.816499    1.384661
     18          1           0        2.269647   -2.249776    0.261883
     19          1           0       -0.620046   -1.277227   -1.183050
 ---------------------------------------------------------------------

 SCF Done:  E(RB3LYP) =  -423.173827822     A.U. after    1 cycles

 The electronic state is 1-A.
 Alpha  occ. eigenvalues --  -19.14087 -19.13529 -10.23444 -10.23267 -10.18730
 Alpha  occ. eigenvalues --  -10.18327 -10.18266 -10.18172 -10.18036  -1.02652
 Alpha  occ. eigenvalues --   -1.01743  -0.86390  -0.78207  -0.72966  -0.64337
 Alpha  occ. eigenvalues --   -0.60441  -0.58385  -0.53583  -0.50849  -0.48820
 Alpha  occ. eigenvalues --   -0.48507  -0.45389  -0.42189  -0.41858  -0.39697
 Alpha  occ. eigenvalues --   -0.38280  -0.36911  -0.35730  -0.31988  -0.31639
 Alpha  occ. eigenvalues --   -0.29248  -0.27083  -0.24795  -0.23565
 Alpha virt. eigenvalues --    0.01737   0.07371   0.08654   0.10303   0.11463
 Alpha virt. eigenvalues --    0.12899   0.14341   0.15499   0.16881   0.18238
 Alpha virt. eigenvalues --    0.18530   0.19848   0.21875   0.23176   0.24922

 Mulliken charges:
               1
     1  O   -0.430967
     2  C    0.081795
     3  C   -0.097892
     4  C   -0.076377
     5  C   -0.068845
     6  C   -0.283464
     7  C    0.107281
     8  O   -0.445190
     9  C   -0.091127
    10  H    0.287366
    11  H    0.083824
    12  H    0.102819
    13  H    0.090468
    14  H    0.088182
    15  H    0.119255
    16  H    0.087184
    17  H    0.065852
    18  H    0.279537
    19  H    0.100298
 Sum of Mulliken charges =   0.00000

 Dipole moment (field-independent basis, Debye):
    X=              1.5119    Y=             -0.3723    Z=              1.1853  Tot=              1.9569
 Quadrupole moment (field-independent basis, Debye-Ang):
   XX=            -51.3413   YY=            -52.1291   ZZ=            -52.7205
   XY=              1.9207   XZ=              1.2284   YZ=             -2.1678

  Exact polarizability:  93.805   0.354  79.481   3.128   1.006  58.262
 Approx polarizability: 137.216  -3.077 112.314   5.573   1.469  92.484

                      1                      2                      3
                      A                      A                      A
 Frequencies --    105.5347               199.8321               224.8684
 Red. masses --      3.3158                 2.5773                 3.3376
 Frc consts  --      0.0218                 0.0606                 0.0994
 IR Inten    --      1.1197                10.0046                 2.7597

                      4                      5                      6
                      A                      A                      A
 Frequencies --    244.1462               296.2422               312.2075
 Red. masses --      2.6751                 1.1525                 1.2454
 Frc consts  --      0.0939                 0.0596                 0.0715
 IR Inten    --      5.2429               148.7391                39.1987

                      7                      8                      9
                      A                      A                      A
 Frequencies --    371.0801               408.9823               460.4810
 Red. masses --      4.2296                 3.8484                 3.5126
 Frc consts  --      0.3432                 0.3793                 0.4388
 IR Inten    --      6.2075                12.9946                 6.7292

                     10                     11                     12
                      A                      A                      A
 Frequencies --    469.4047               501.1905               549.3171
 Red. masses --      3.1723                 3.6250                 4.2628
 Frc consts  --      0.4118                 0.5365                 0.7579
 IR Inten    --      9.0221                 2.5297                 4.5053

                     13                     14                     15
                      A                      A                      A
 Frequencies --    726.2043               760.4926               839.5945
 Red. masses --      1.3684                 2.2797                 3.5164
 Frc consts  --      0.4252                 0.7768                 1.4605
 IR Inten    --     34.2478                 5.9007                 5.7572

                     16                     17                     18
                      A                      A                      A
 Frequencies --    900.3980               926.0039               941.9770
 Red. masses --      2.8883                 2.4998                 2.5218
 Frc consts  --      1.3796                 1.2629                 1.3184
 IR Inten    --      2.6855                13.1713                11.8552

                     19                     20                     21
                      A                      A                      A
 Frequencies --    979.9606               989.5807              1018.0236
 Red. masses --      2.3634                 1.2968                 1.8075
 Frc consts  --      1.3372                 0.7482                 1.1037
 IR Inten    --      7.9821                 4.4121                 5.2785

                     22                     23                     24
                      A                      A                      A
 Frequencies --   1069.3195              1072.8240              1081.1693
 Red. masses --      2.6897                 1.9900                 1.4426
 Frc consts  --      1.8120                 1.3495                 0.9935
 IR Inten    --     59.6379                 5.6470                 6.5404

                     25                     26                     27
                      A                      A                      A
 Frequencies --   1088.4128              1103.6482              1156.7405
 Red. masses --      1.7042                 1.9399                 2.5973
 Frc consts  --      1.1895                 1.3921                 2.0476
 IR Inten    --     15.3036                27.4842                63.6353

                     28                     29                     30
                      A                      A                      A
 Frequencies --   1186.2498              1195.4718              1213.5911
 Red. masses --      1.4532                 1.2265                 1.2111
 Frc consts  --      1.2048                 1.0327                 1.0510
 IR Inten    --      4.9862                 9.9561                10.6871

                     31                     32                     33
                      A                      A                      A
 Frequencies --   1270.2528              1295.2956              1303.6737
 Red. masses --      1.1845                 1.2977                 1.3210
 Frc consts  --      1.1261                 1.2828                 1.3228
 IR Inten    --     41.0881                70.8596                23.4118

                     34                     35                     36
                      A                      A                      A
 Frequencies --   1313.7681              1340.4577              1372.9474
 Red. masses --      1.4534                 1.4298                 1.3000
 Frc consts  --      1.4780                 1.5137                 1.4438
 IR Inten    --      6.3818                11.7055                18.8746

                     37                     38                     39
                      A                      A                      A
 Frequencies --   1413.0845              1435.7653              1467.1643
 Red. masses --      1.6106                 1.6166                 2.1487
 Frc consts  --      1.8948                 1.9634                 2.7251
 IR Inten    --      1.4571                 3.5623                27.1258

                     40                     41                     42
                      A                      A                      A
 Frequencies --   1485.4707              1704.4986              2952.9490
 Red. masses --      1.1887                 6.7235                 1.0829
 Frc consts  --      1.5454                11.5091                 5.5636
 IR Inten    --      2.2251                 3.3937                42.8760

                     43                     44                     45
                      A                      A                      A
 Frequencies --   3011.5841              3047.5124              3080.1852
 Red. masses --      1.0589                 1.1025                 1.0874
 Frc consts  --      5.6583                 6.0330                 6.0786
 IR Inten    --     35.5603                31.3956                31.4673

                     46                     47                     48
                      A                      A                      A
 Frequencies --   3142.7283              3149.7238              3172.5166
 Red. masses --      1.0855                 1.0848                 1.0960
 Frc consts  --      6.3167                 6.3407                 6.4994
 IR Inten    --      3.8586                 9.9777                39.2433

                     49                     50                     51
                      A                      A                      A
 Frequencies --   3174.9757              3800.4742              3812.0850
 Red. masses --      1.0901                 1.0661                 1.0660
 Frc consts  --      6.4743                 9.0726                 9.1271
 IR Inten    --      1.7825                22.0788                15.4108

 - Thermochemistry -
 -------------------
 Temperature   298.150 Kelvin.  Pressure   1.00000 Atm.
 Atom     1 has atomic number  8 and mass  15.99491

 Molecular mass:   126.06808 amu.
 Principal axes and moments of inertia in atomic units:
                           1         2         3
     Eigenvalues --   772.858441204.412881843.49261
           X            0.99981   0.01882   0.00510
           Y           -0.01881   0.99982  -0.00230
           Z           -0.00514   0.00221   0.99998
 This molecule is an asymmetric top.
 Rotational symmetry number  1.
 Warning -- assumption of classical behavior for rotation
           may cause significant error
 Rotational temperatures (Kelvin)      0.11207     0.07191     0.04698
 Rotational constants (GHZ):           2.33515     1.49844     0.97898
 Zero-point vibrational energy     419530.7 (Joules/Mol)
                                  100.27025 (Kcal/Mol)
 Warning -- explicit consideration of  12 degrees of freedom as
           vibrations may cause significant error
 Vibrational temperatures:    151.84   287.51   323.54   351.27   426.23
          (Kelvin)            449.20   533.90   588.43   662.53   675.37
                              721.10   790.34  1044.84  1094.18  1207.99
                             1295.47  1332.31  1355.29  1409.94  1423.78
                             1464.71  1538.51  1543.55  1555.56  1565.98
                             1587.90  1664.29  1706.75  1720.02  1746.08
                             1827.61  1863.64  1875.69  1890.22  1928.62
                             1975.36  2033.11  2065.74  2110.92  2137.26
                             2452.39  4248.63  4332.99  4384.69  4431.69
                             4521.68  4531.74  4564.54  4568.08  5468.03
                             5484.73

 Zero-point correction=                           0.159791 (Hartree/Particle)
 Thermal correction to Energy=                    0.168127
 Thermal correction to Enthalpy=                  0.169072
 Thermal correction to Gibbs Free Energy=         0.127210
 Sum of electronic and zero-point Energies=           -423.014037
 Sum of electronic and thermal Energies=              -423.005700
 Sum of electronic and thermal Enthalpies=            -423.004756
 Sum of electronic and thermal Free Energies=         -423.046618

                     E (Thermal)             CV                S
                      KCal/Mol        Cal/Mol-Kelvin    Cal/Mol-Kelvin
 Total                  105.502             32.891             88.106
 Electronic               0.000              0.000              0.000
 Translational            0.889              2.981             40.409
 Rotational               0.889              2.981             28.930
 Vibrational            103.724             26.930             18.767
 Vibration     1          0.605              1.945              3.349
 Vibration     2          0.638              1.840              2.135
 Vibration     3          0.650              1.803              1.920
 Vibration     4          0.659              1.772              1.772
 Vibration     5          0.690              1.681              1.438
 Vibration     6          0.701              1.650              1.351
 Vibration     7          0.743              1.532              1.075
 Vibration     8          0.773              1.451              0.930
 Vibration     9          0.818              1.338              0.765
 Vibration    10          0.827              1.318              0.739
 Vibration    11          0.857              1.247              0.655
 Vibration    12          0.905              1.141              0.546

 Normal termination of Gaussian 09 at Mon Jan 27 23:39:27 2020.
