 Gaussian 09, Revision D.01,
 Gaussian 09:  ES64L-G09RevD.01 24-Apr-2013

 -----------------------------
 # b3lyp 6-31G(2df,p) opt Freq
 -----------------------------

 -----
 titel
 -----
 Symbolic Z-matrix:
 Charge =  0 Multiplicity = 1

 SCF Done:  E(RB3LYP) =  -423.171016510     A.U. after   14 cycles
 Optimization completed.
    -- Stationary point found.
 Normal termination of Gaussian 09 at Mon Jan 27 18:00:19 2020.

 ----------------------------------------------------------------------
 #N Geom=AllCheck Guess=TCheck SCRF=Check GenChk RB3LYP/6-31G(2df,p) Fr
 eq
 ----------------------------------------------------------------------

 Structure from the checkpoint file:  "/scratch/puck/g09_91cd3b17-61b7-45f2-8986-d7243cf1c412/Gau-16762.chk"
 -----
 titel
 -----
 Charge =  0 Multiplicity = 1

                         Standard orientation:
 ---------------------------------------------------------------------
 Center     Atomic      Atomic             Coordinates (Angstroms)
 Number     Number       Type             X           Y           Z
 ---------------------------------------------------------------------
      1          6           0       -1.996090   -0.800704    0.747776
      2          6           0       -0.855221   -0.059520    0.110540
      3          8           0       -1.172717    0.755340   -1.042914
      4          6           0       -0.638793    1.394263    0.127145
      5          6           0        0.842521    1.738966    0.014926
      6          6           0        1.527347    0.382208   -0.131342
      7          6           0        1.463718   -0.575136    1.050403
      8          6           0        0.488353   -0.720594   -0.072149
      9          8           0        0.547702   -1.880263   -0.840879
     10          1           0       -1.742630   -1.093516    1.771865
     11          1           0       -2.896780   -0.182827    0.766716
     12          1           0       -2.211514   -1.714906    0.185369
     13          1           0       -1.325509    2.071028    0.630753
     14          1           0        1.019907    2.381249   -0.854224
     15          1           0        1.180335    2.287458    0.902763
     16          1           0        2.372029    0.277941   -0.801852
     17          1           0        2.240879   -1.329619    1.099780
     18          1           0        1.120900   -0.208970    2.014183
     19          1           0        0.251486   -1.645351   -1.728808
 ---------------------------------------------------------------------

 SCF Done:  E(RB3LYP) =  -423.171016510     A.U. after    1 cycles

 The electronic state is 1-A.
 Alpha  occ. eigenvalues --  -19.14520 -19.14398 -10.23664 -10.23630 -10.23364
 Alpha  occ. eigenvalues --  -10.18987 -10.18938 -10.18683 -10.18143  -1.06773
 Alpha  occ. eigenvalues --   -1.02861  -0.86340  -0.74971  -0.73550  -0.64505
 Alpha  occ. eigenvalues --   -0.61990  -0.57302  -0.56177  -0.51530  -0.47825
 Alpha  occ. eigenvalues --   -0.46276  -0.44334  -0.42991  -0.41046  -0.40750
 Alpha  occ. eigenvalues --   -0.39830  -0.36832  -0.36211  -0.35383  -0.32853
 Alpha  occ. eigenvalues --   -0.29980  -0.28031  -0.26257  -0.24384
 Alpha virt. eigenvalues --    0.08023   0.09673   0.09996   0.11077   0.11875
 Alpha virt. eigenvalues --    0.13090   0.13709   0.15638   0.16090   0.17098
 Alpha virt. eigenvalues --    0.17501   0.19297   0.19988   0.22096   0.22688

 Mulliken charges:
               1
     1  C   -0.491063
     2  C    0.312863
     3  O   -0.313261
     4  C   -0.008020
     5  C   -0.267991
     6  C   -0.112196
     7  C   -0.330319
     8  C    0.375986
     9  O   -0.472906
    10  H    0.125897
    11  H    0.127018
    12  H    0.134154
    13  H    0.090838
    14  H    0.113804
    15  H    0.102064
    16  H    0.091143
    17  H    0.124093
    18  H    0.108809
    19  H    0.289085
 Sum of Mulliken charges =   0.00000

 Dipole moment (field-independent basis, Debye):
    X=              0.2717    Y=              0.8452    Z=              0.9371  Tot=              1.2909
 Quadrupole moment (field-independent basis, Debye-Ang):
   XX=            -52.8531   YY=            -54.5943   ZZ=            -51.0813
   XY=              1.7816   XZ=             -2.4523   YZ=              2.0884

  Exact polarizability:  75.977   2.102  78.758   0.218  -0.650  66.743
 Approx polarizability: 102.711   2.544 115.367   4.477  -0.701 107.287

                      1                      2                      3
                      A                      A                      A
 Frequencies --    160.3648               178.2611               203.2409
 Red. masses --      2.2483                 1.5661                 2.0206
 Frc consts  --      0.0341                 0.0293                 0.0492
 IR Inten    --      3.4453                 0.3694                 4.7594

                      4                      5                      6
                      A                      A                      A
 Frequencies --    238.9653               276.6629               379.6117
 Red. masses --      3.0696                 2.4267                 1.4069
 Frc consts  --      0.1033                 0.1094                 0.1195
 IR Inten    --      0.5177                 1.5617                38.1732

                      7                      8                      9
                      A                      A                      A
 Frequencies --    405.9977               426.0769               460.5450
 Red. masses --      2.6272                 1.8511                 3.3709
 Frc consts  --      0.2551                 0.1980                 0.4212
 IR Inten    --      8.1239                42.4620                29.2659

                     10                     11                     12
                      A                      A                      A
 Frequencies --    521.0528               580.8120               612.2311
 Red. masses --      3.9449                 4.6010                 3.8576
 Frc consts  --      0.6310                 0.9145                 0.8519
 IR Inten    --      6.2673                 4.0614                 1.3473

                     13                     14                     15
                      A                      A                      A
 Frequencies --    723.5666               772.2568               823.4566
 Red. masses --      3.9897                 3.2374                 2.4546
 Frc consts  --      1.2307                 1.1375                 0.9806
 IR Inten    --      8.7642                 8.5732                 3.4102

                     16                     17                     18
                      A                      A                      A
 Frequencies --    855.4778               891.3724               905.7798
 Red. masses --      2.0197                 2.5932                 1.9258
 Frc consts  --      0.8709                 1.2140                 0.9309
 IR Inten    --      9.8580                16.0426                 9.1573

                     19                     20                     21
                      A                      A                      A
 Frequencies --    939.3239               966.6503               997.9118
 Red. masses --      1.6739                 2.9322                 1.5916
 Frc consts  --      0.8702                 1.6143                 0.9338
 IR Inten    --     11.3359                 7.3010                11.1002

                     22                     23                     24
                      A                      A                      A
 Frequencies --   1043.3904              1049.3543              1056.3193
 Red. masses --      1.3574                 1.7232                 1.6711
 Frc consts  --      0.8707                 1.1180                 1.0986
 IR Inten    --      0.5006                 2.6894                 2.4359

                     25                     26                     27
                      A                      A                      A
 Frequencies --   1088.7888              1107.1488              1121.3115
 Red. masses --      1.8377                 1.8138                 1.7909
 Frc consts  --      1.2836                 1.3099                 1.3267
 IR Inten    --      7.0514                10.9311                 4.4853

                     28                     29                     30
                      A                      A                      A
 Frequencies --   1170.2620              1222.5027              1248.1255
 Red. masses --      2.3139                 1.2614                 1.7529
 Frc consts  --      1.8671                 1.1107                 1.6089
 IR Inten    --     18.2188                 7.2232                70.0611

                     31                     32                     33
                      A                      A                      A
 Frequencies --   1280.6509              1310.4179              1329.6337
 Red. masses --      1.5362                 1.7011                 1.6190
 Frc consts  --      1.4844                 1.7210                 1.6864
 IR Inten    --     39.0663                 4.9904                 5.5667

                     34                     35                     36
                      A                      A                      A
 Frequencies --   1365.8293              1406.1954              1412.7746
 Red. masses --      3.0485                 1.2960                 1.7185
 Frc consts  --      3.3507                 1.5098                 2.0210
 IR Inten    --     59.5142                 7.5111                 2.6032

                     37                     38                     39
                      A                      A                      A
 Frequencies --   1449.1499              1475.7736              1483.3664
 Red. masses --      2.5990                 1.1531                 1.1391
 Frc consts  --      3.2158                 1.4796                 1.4768
 IR Inten    --      8.3316                 1.9985                 7.1038

                     40                     41                     42
                      A                      A                      A
 Frequencies --   1487.2949              1498.8032              3030.7925
 Red. masses --      1.3949                 1.2066                 1.0617
 Frc consts  --      1.8179                 1.5970                 5.7458
 IR Inten    --     14.7193                 5.3216                43.0216

                     43                     44                     45
                      A                      A                      A
 Frequencies --   3040.5489              3075.3811              3104.2439
 Red. masses --      1.0354                 1.1012                 1.1003
 Frc consts  --      5.6398                 6.1362                 6.2469
 IR Inten    --     16.2993                17.2998                13.2268

                     46                     47                     48
                      A                      A                      A
 Frequencies --   3121.3682              3127.9167              3139.3076
 Red. masses --      1.0561                 1.1019                 1.0906
 Frc consts  --      6.0623                 6.3516                 6.3329
 IR Inten    --     10.7659                11.5083                32.1624

                     49                     50                     51
                      A                      A                      A
 Frequencies --   3183.3722              3216.9117              3781.3239
 Red. masses --      1.0914                 1.1141                 1.0656
 Frc consts  --      6.5164                 6.7928                 8.9773
 IR Inten    --      9.1353                 7.0071                21.9754

 - Thermochemistry -
 -------------------
 Temperature   298.150 Kelvin.  Pressure   1.00000 Atm.
 Atom     1 has atomic number  6 and mass  12.00000

 Molecular mass:   126.06808 amu.
 Principal axes and moments of inertia in atomic units:
                           1         2         3
     Eigenvalues --   825.62074 898.531511268.95545
           X            0.95808   0.28468  -0.03238
           Y           -0.28496   0.95853  -0.00444
           Z            0.02978   0.01349   0.99947
 This molecule is an asymmetric top.
 Rotational symmetry number  1.
 Warning -- assumption of classical behavior for rotation
           may cause significant error
 Rotational temperatures (Kelvin)      0.10491     0.09639     0.06826
 Rotational constants (GHZ):           2.18592     2.00855     1.42223
 Zero-point vibrational energy     417185.0 (Joules/Mol)
                                   99.70960 (Kcal/Mol)
 Warning -- explicit consideration of  12 degrees of freedom as
           vibrations may cause significant error
 Vibrational temperatures:    230.73   256.48   292.42   343.82   398.06
          (Kelvin)            546.18   584.14   613.03   662.62   749.68
                              835.66   880.86  1041.05  1111.10  1184.77
                             1230.84  1282.48  1303.21  1351.48  1390.79
                             1435.77  1501.20  1509.78  1519.81  1566.52
                             1592.94  1613.32  1683.74  1758.91  1795.77
                             1842.57  1885.40  1913.04  1965.12  2023.20
                             2032.66  2085.00  2123.31  2134.23  2139.88
                             2156.44  4360.63  4374.67  4424.78  4466.31
                             4490.95  4500.37  4516.76  4580.16  4628.41
                             5440.47

 Zero-point correction=                           0.158897 (Hartree/Particle)
 Thermal correction to Energy=                    0.167020
 Thermal correction to Enthalpy=                  0.167965
 Thermal correction to Gibbs Free Energy=         0.126895
 Sum of electronic and zero-point Energies=           -423.012119
 Sum of electronic and thermal Energies=              -423.003996
 Sum of electronic and thermal Enthalpies=            -423.003052
 Sum of electronic and thermal Free Energies=         -423.044122

                     E (Thermal)             CV                S
                      KCal/Mol        Cal/Mol-Kelvin    Cal/Mol-Kelvin
 Total                  104.807             32.523             86.439
 Electronic               0.000              0.000              0.000
 Translational            0.889              2.981             40.409
 Rotational               0.889              2.981             28.334
 Vibrational            103.029             26.562             17.697
 Vibration     1          0.622              1.891              2.545
 Vibration     2          0.629              1.869              2.347
 Vibration     3          0.639              1.835              2.104
 Vibration     4          0.657              1.781              1.811
 Vibration     5          0.678              1.717              1.554
 Vibration     6          0.750              1.514              1.041
 Vibration     7          0.771              1.457              0.941
 Vibration     8          0.788              1.414              0.872
 Vibration     9          0.818              1.338              0.765
 Vibration    10          0.876              1.203              0.608
 Vibration    11          0.938              1.073              0.484
 Vibration    12          0.971              1.006              0.429

 Optimization completed.
    -- Stationary point found.
 Normal termination of Gaussian 09 at Mon Jan 27 20:02:29 2020.
