 Gaussian 09, Revision D.01,
 Gaussian 09:  ES64L-G09RevD.01 24-Apr-2013

 -----------------------------
 # b3lyp 6-31G(2df,p) opt Freq
 -----------------------------

 -----
 titel
 -----
 Symbolic Z-matrix:
 Charge =  0 Multiplicity = 1

 SCF Done:  E(RB3LYP) =  -423.177457823     A.U. after   13 cycles
 Optimization completed.
    -- Stationary point found.
 Normal termination of Gaussian 09 at Mon Jan 27 23:53:33 2020.

 ----------------------------------------------------------------------
 #N Geom=AllCheck Guess=TCheck SCRF=Check GenChk RB3LYP/6-31G(2df,p) Fr
 eq
 ----------------------------------------------------------------------

 Structure from the checkpoint file:  "/scratch/puck/g09_ea5a7ab8-f62d-42f5-b7c1-0d82b4f0e15c/Gau-104313.chk"
 -----
 titel
 -----
 Charge =  0 Multiplicity = 1

                         Standard orientation:
 ---------------------------------------------------------------------
 Center     Atomic      Atomic             Coordinates (Angstroms)
 Number     Number       Type             X           Y           Z
 ---------------------------------------------------------------------
      1          8           0       -2.516826   -0.127458    0.092586
      2          6           0       -1.199386   -0.640380    0.072426
      3          6           0       -0.303427   -0.034574   -1.048512
      4          6           0        0.998197   -0.844411   -1.182107
      5          6           0        1.593963   -1.100551    0.186428
      6          6           0        0.969034   -0.634750    1.272738
      7          6           0       -0.315340    0.140044    1.084715
      8          6           0       -0.089866    1.172622   -0.075443
      9          8           0        1.077368    1.937189   -0.132227
     10          1           0       -2.952844   -0.396227   -0.722815
     11          1           0       -1.188504   -1.733380    0.175272
     12          1           0       -0.768687    0.157299   -2.020178
     13          1           0        0.806597   -1.796215   -1.696079
     14          1           0        1.715457   -0.302601   -1.814233
     15          1           0        2.521932   -1.661367    0.254264
     16          1           0        1.362511   -0.792308    2.271953
     17          1           0       -0.778989    0.472200    2.013532
     18          1           0       -0.929543    1.863920   -0.134674
     19          1           0        1.808678    1.362836    0.128616
 ---------------------------------------------------------------------

 SCF Done:  E(RB3LYP) =  -423.177457823     A.U. after    1 cycles

 The electronic state is 1-A.
 Alpha  occ. eigenvalues --  -19.13936 -19.12974 -10.23195 -10.22517 -10.19272
 Alpha  occ. eigenvalues --  -10.19017 -10.18892 -10.18600 -10.18444  -1.02510
 Alpha  occ. eigenvalues --   -1.01452  -0.86364  -0.76312  -0.73448  -0.63999
 Alpha  occ. eigenvalues --   -0.60733  -0.58948  -0.54136  -0.51894  -0.48751
 Alpha  occ. eigenvalues --   -0.45408  -0.44244  -0.42089  -0.41570  -0.40316
 Alpha  occ. eigenvalues --   -0.38860  -0.38067  -0.35865  -0.33711  -0.31103
 Alpha  occ. eigenvalues --   -0.30295  -0.26141  -0.25799  -0.23865
 Alpha virt. eigenvalues --    0.00636   0.07802   0.08593   0.11049   0.13102
 Alpha virt. eigenvalues --    0.14320   0.15572   0.15740   0.16633   0.17592
 Alpha virt. eigenvalues --    0.18211   0.18937   0.19216   0.20954   0.23721

 Mulliken charges:
               1
     1  O   -0.451100
     2  C    0.156919
     3  C   -0.130006
     4  C   -0.274174
     5  C   -0.083225
     6  C   -0.086900
     7  C   -0.126870
     8  C    0.166739
     9  O   -0.441798
    10  H    0.280923
    11  H    0.064438
    12  H    0.055903
    13  H    0.108989
    14  H    0.115748
    15  H    0.094319
    16  H    0.095533
    17  H    0.071929
    18  H    0.103874
    19  H    0.278759
 Sum of Mulliken charges =   0.00000

 Dipole moment (field-independent basis, Debye):
    X=              0.3977    Y=             -2.1935    Z=             -0.8570  Tot=              2.3883
 Quadrupole moment (field-independent basis, Debye-Ang):
   XX=            -50.8631   YY=            -57.6624   ZZ=            -50.4411
   XY=             -1.2278   XZ=              4.5325   YZ=              1.6194

  Exact polarizability:  80.311  -5.823  67.915  -0.588   2.667  76.425
 Approx polarizability: 115.706  -8.131 103.955  -6.418   6.703 120.251

                      1                      2                      3
                      A                      A                      A
 Frequencies --    201.6273               224.8416               238.4300
 Red. masses --      4.9340                 3.8198                 2.4634
 Frc consts  --      0.1182                 0.1138                 0.0825
 IR Inten    --      2.1661                 0.7524                 1.1490

                      4                      5                      6
                      A                      A                      A
 Frequencies --    269.0134               321.6827               349.0617
 Red. masses --      1.2930                 2.9244                 2.2845
 Frc consts  --      0.0551                 0.1783                 0.1640
 IR Inten    --     81.9546                23.8527                 2.0045

                      7                      8                      9
                      A                      A                      A
 Frequencies --    428.8305               460.7988               480.4240
 Red. masses --      3.4545                 1.2643                 3.0361
 Frc consts  --      0.3743                 0.1582                 0.4129
 IR Inten    --      5.3138                52.9693                 5.0947

                     10                     11                     12
                      A                      A                      A
 Frequencies --    581.2417               593.2977               671.8728
 Red. masses --      2.9066                 4.3837                 4.2814
 Frc consts  --      0.5786                 0.9092                 1.1387
 IR Inten    --      7.4142                 1.2298                 4.9554

                     13                     14                     15
                      A                      A                      A
 Frequencies --    740.2969               816.3038               850.2582
 Red. masses --      1.5916                 3.6593                 2.7880
 Frc consts  --      0.5139                 1.4367                 1.1875
 IR Inten    --     31.1005                 1.2231                10.1824

                     16                     17                     18
                      A                      A                      A
 Frequencies --    877.3341               916.8681               927.0793
 Red. masses --      2.4569                 2.5476                 2.6928
 Frc consts  --      1.1142                 1.2618                 1.3636
 IR Inten    --      4.0337                 0.8027                15.2013

                     19                     20                     21
                      A                      A                      A
 Frequencies --    986.5800               998.4952              1003.2455
 Red. masses --      1.2649                 2.0895                 2.5939
 Frc consts  --      0.7254                 1.2274                 1.5382
 IR Inten    --      2.8118                 1.0100                 9.6652

                     22                     23                     24
                      A                      A                      A
 Frequencies --   1007.2419              1062.7548              1103.8164
 Red. masses --      2.2445                 1.8558                 1.2273
 Frc consts  --      1.3416                 1.2349                 0.8810
 IR Inten    --     34.1237                27.2187                 6.3256

                     25                     26                     27
                      A                      A                      A
 Frequencies --   1113.3099              1147.6744              1152.6544
 Red. masses --      4.1169                 1.1844                 2.2298
 Frc consts  --      3.0065                 0.9191                 1.7455
 IR Inten    --     45.0875                 1.8098                98.1028

                     28                     29                     30
                      A                      A                      A
 Frequencies --   1182.0498              1215.8671              1223.7742
 Red. masses --      1.2185                 1.3179                 1.3621
 Frc consts  --      1.0031                 1.1479                 1.2019
 IR Inten    --     78.9198                 5.2681                 4.0544

                     31                     32                     33
                      A                      A                      A
 Frequencies --   1265.7136              1280.2027              1305.3945
 Red. masses --      1.5722                 1.6060                 1.4491
 Frc consts  --      1.4839                 1.5508                 1.4549
 IR Inten    --      8.1042                19.8357                 1.3126

                     34                     35                     36
                      A                      A                      A
 Frequencies --   1313.8711              1334.0245              1367.0628
 Red. masses --      1.3281                 1.5745                 1.5648
 Frc consts  --      1.3507                 1.6509                 1.7230
 IR Inten    --     22.0279                18.3007                 8.7783

                     37                     38                     39
                      A                      A                      A
 Frequencies --   1390.9457              1413.6181              1441.1878
 Red. masses --      1.5634                 1.4208                 1.2605
 Frc consts  --      1.7822                 1.6728                 1.5425
 IR Inten    --      2.6371                11.8161                59.4752

                     40                     41                     42
                      A                      A                      A
 Frequencies --   1473.4099              1687.9638              3008.0258
 Red. masses --      1.0964                 6.0844                 1.0607
 Frc consts  --      1.4024                10.2140                 5.6544
 IR Inten    --      6.0470                 2.0578                29.3823

                     43                     44                     45
                      A                      A                      A
 Frequencies --   3011.3207              3032.6503              3060.1435
 Red. masses --      1.0848                 1.1013                 1.0874
 Frc consts  --      5.7956                 5.9674                 5.9995
 IR Inten    --     56.2673                20.2322                50.6287

                     46                     47                     48
                      A                      A                      A
 Frequencies --   3112.0318              3128.3900              3161.0069
 Red. masses --      1.0881                 1.0874                 1.0848
 Frc consts  --      6.2089                 6.2700                 6.3862
 IR Inten    --     21.5204                24.0988                 7.3175

                     49                     50                     51
                      A                      A                      A
 Frequencies --   3185.4207              3758.4303              3808.5626
 Red. masses --      1.0992                 1.0646                 1.0661
 Frc consts  --      6.5715                 8.8607                 9.1110
 IR Inten    --     27.1216                25.2144                19.1850

 - Thermochemistry -
 -------------------
 Temperature   298.150 Kelvin.  Pressure   1.00000 Atm.
 Atom     1 has atomic number  8 and mass  15.99491

 Molecular mass:   126.06808 amu.
 Principal axes and moments of inertia in atomic units:
                           1         2         3
     Eigenvalues --   749.784851091.052221236.35434
           X            0.99915  -0.04003   0.00967
           Y            0.03954   0.99814   0.04643
           Z           -0.01151  -0.04601   0.99887
 This molecule is an asymmetric top.
 Rotational symmetry number  1.
 Warning -- assumption of classical behavior for rotation
           may cause significant error
 Rotational temperatures (Kelvin)      0.11552     0.07939     0.07006
 Rotational constants (GHZ):           2.40701     1.65413     1.45973
 Zero-point vibrational energy     422796.8 (Joules/Mol)
                                  101.05086 (Kcal/Mol)
 Warning -- explicit consideration of  11 degrees of freedom as
           vibrations may cause significant error
 Vibrational temperatures:    290.10   323.50   343.05   387.05   462.83
          (Kelvin)            502.22   616.99   662.99   691.22   836.28
                              853.62   966.67  1065.12  1174.48  1223.33
                             1262.29  1319.17  1333.86  1419.47  1436.61
                             1443.44  1449.19  1529.07  1588.14  1601.80
                             1651.25  1658.41  1700.70  1749.36  1760.74
                             1821.08  1841.92  1878.17  1890.37  1919.36
                             1966.90  2001.26  2033.88  2073.55  2119.91
                             2428.60  4327.87  4332.61  4363.30  4402.86
                             4477.51  4501.05  4547.98  4583.10  5407.54
                             5479.67

 Zero-point correction=                           0.161035 (Hartree/Particle)
 Thermal correction to Energy=                    0.168706
 Thermal correction to Enthalpy=                  0.169650
 Thermal correction to Gibbs Free Energy=         0.129542
 Sum of electronic and zero-point Energies=           -423.016423
 Sum of electronic and thermal Energies=              -423.008752
 Sum of electronic and thermal Enthalpies=            -423.007808
 Sum of electronic and thermal Free Energies=         -423.047916

                     E (Thermal)             CV                S
                      KCal/Mol        Cal/Mol-Kelvin    Cal/Mol-Kelvin
 Total                  105.864             31.525             84.415
 Electronic               0.000              0.000              0.000
 Translational            0.889              2.981             40.409
 Rotational               0.889              2.981             28.405
 Vibrational            104.087             25.564             15.601
 Vibration     1          0.639              1.838              2.118
 Vibration     2          0.650              1.803              1.920
 Vibration     3          0.656              1.782              1.815
 Vibration     4          0.673              1.730              1.603
 Vibration     5          0.707              1.632              1.302
 Vibration     6          0.726              1.577              1.170
 Vibration     7          0.790              1.407              0.862
 Vibration     8          0.819              1.337              0.764
 Vibration     9          0.837              1.293              0.709
 Vibration    10          0.938              1.072              0.483
 Vibration    11          0.951              1.046              0.461

 Optimization completed.
    -- Stationary point found.
 Normal termination of Gaussian 09 at Tue Jan 28 00:40:52 2020.
