 Gaussian 09, Revision D.01,
 Gaussian 09:  ES64L-G09RevD.01 24-Apr-2013

 -----------------------------
 # b3lyp 6-31G(2df,p) opt Freq
 -----------------------------

 -----
 titel
 -----
 Symbolic Z-matrix:
 Charge =  0 Multiplicity = 1

 SCF Done:  E(RB3LYP) =  -423.207783606     A.U. after   14 cycles
 Optimization completed.
    -- Stationary point found.
 Normal termination of Gaussian 09 at Mon Jan 27 22:14:23 2020.

 ----------------------------------------------------------------------
 #N Geom=AllCheck Guess=TCheck SCRF=Check GenChk RB3LYP/6-31G(2df,p) Fr
 eq
 ----------------------------------------------------------------------

 Structure from the checkpoint file:  "/scratch/puck/g09_88698e05-d717-40f9-9e33-2404e2882e61/Gau-28738.chk"
 -----
 titel
 -----
 Charge =  0 Multiplicity = 1

                         Standard orientation:
 ---------------------------------------------------------------------
 Center     Atomic      Atomic             Coordinates (Angstroms)
 Number     Number       Type             X           Y           Z
 ---------------------------------------------------------------------
      1          6           0       -2.956535   -0.215713    0.084438
      2          6           0       -1.487621   -0.069482    0.416380
      3          6           0       -0.467045   -0.883653   -0.308304
      4          6           0       -0.574940    0.601485   -0.612641
      5          6           0        0.645661    1.257274   -0.052724
      6          8           0        1.032570    2.373523   -0.291382
      7          6           0        1.352542    0.238342    0.858891
      8          6           0        0.871125   -1.142381    0.390300
      9          8           0        1.845922   -1.619036   -0.530206
     10          1           0       -3.101564   -0.445391   -0.975970
     11          1           0       -3.409864   -1.024848    0.667398
     12          1           0       -3.505025    0.705612    0.305361
     13          1           0       -1.288764    0.160209    1.460826
     14          1           0       -0.810308   -1.621530   -1.027962
     15          1           0       -1.017918    1.005764   -1.514192
     16          1           0        2.436063    0.329196    0.771833
     17          1           0        1.084708    0.436974    1.902157
     18          1           0        0.757417   -1.848377    1.226348
     19          1           0        1.528200   -2.448734   -0.901146
 ---------------------------------------------------------------------

 SCF Done:  E(RB3LYP) =  -423.207783606     A.U. after    1 cycles

 The electronic state is 1-A.
 Alpha  occ. eigenvalues --  -19.14293 -19.11905 -10.26168 -10.24540 -10.21334
 Alpha  occ. eigenvalues --  -10.20442 -10.19770 -10.19209 -10.18637  -1.03213
 Alpha  occ. eigenvalues --   -1.02516  -0.89453  -0.77433  -0.71807  -0.67764
 Alpha  occ. eigenvalues --   -0.60738  -0.57648  -0.55353  -0.51747  -0.48719
 Alpha  occ. eigenvalues --   -0.45862  -0.43457  -0.42716  -0.41328  -0.40678
 Alpha  occ. eigenvalues --   -0.39770  -0.38915  -0.37668  -0.35709  -0.33830
 Alpha  occ. eigenvalues --   -0.30309  -0.29549  -0.27212  -0.23359
 Alpha virt. eigenvalues --   -0.00725   0.07141   0.08740   0.09442   0.11690
 Alpha virt. eigenvalues --    0.12698   0.14364   0.15300   0.15684   0.17015
 Alpha virt. eigenvalues --    0.17492   0.18027   0.19897   0.20923   0.23680

 Mulliken charges:
               1
     1  C   -0.421087
     2  C   -0.027689
     3  C   -0.089123
     4  C   -0.150976
     5  C    0.425127
     6  O   -0.336426
     7  C   -0.355975
     8  C    0.114004
     9  O   -0.432837
    10  H    0.120679
    11  H    0.123815
    12  H    0.129900
    13  H    0.092525
    14  H    0.083560
    15  H    0.103082
    16  H    0.144898
    17  H    0.126232
    18  H    0.068649
    19  H    0.281643
 Sum of Mulliken charges =   0.00000

 Dipole moment (field-independent basis, Debye):
    X=             -2.5745    Y=             -3.5151    Z=              0.7584  Tot=              4.4226
 Quadrupole moment (field-independent basis, Debye-Ang):
   XX=            -55.2012   YY=            -57.2394   ZZ=            -50.5907
   XY=             -2.8408   XZ=              1.9314   YZ=              2.8210

  Exact polarizability:  85.362   3.504  78.932   1.021  -0.876  64.670
 Approx polarizability: 112.364   9.015 122.870  -2.583  -3.517 100.995

                      1                      2                      3
                      A                      A                      A
 Frequencies --     90.5576               149.6428               187.4616
 Red. masses --      4.5654                 2.6501                 3.0232
 Frc consts  --      0.0221                 0.0350                 0.0626
 IR Inten    --      1.2103                 1.2882                 1.2198

                      4                      5                      6
                      A                      A                      A
 Frequencies --    219.2317               241.4442               295.9141
 Red. masses --      1.2563                 2.2823                 1.1362
 Frc consts  --      0.0356                 0.0784                 0.0586
 IR Inten    --      0.6557                 4.4060               105.6392

                      7                      8                      9
                      A                      A                      A
 Frequencies --    367.2555               403.2866               438.0517
 Red. masses --      2.7302                 3.4458                 3.3121
 Frc consts  --      0.2170                 0.3302                 0.3745
 IR Inten    --      2.8578                 3.9174                 7.3588

                     10                     11                     12
                      A                      A                      A
 Frequencies --    468.8116               536.2455               638.6149
 Red. masses --      3.7415                 3.4109                 4.1751
 Frc consts  --      0.4845                 0.5779                 1.0032
 IR Inten    --     13.3932                 8.6891                 2.9335

                     13                     14                     15
                      A                      A                      A
 Frequencies --    734.4955               780.1981               826.6773
 Red. masses --      4.5757                 3.1062                 2.5823
 Frc consts  --      1.4544                 1.1140                 1.0397
 IR Inten    --      2.4525                 2.0892                 5.5097

                     16                     17                     18
                      A                      A                      A
 Frequencies --    856.9863               899.7709               935.5827
 Red. masses --      2.2981                 2.2839                 1.7597
 Frc consts  --      0.9944                 1.0894                 0.9075
 IR Inten    --      2.1711                25.9256                 4.5602

                     19                     20                     21
                      A                      A                      A
 Frequencies --    955.6228               984.5627              1006.7925
 Red. masses --      2.2171                 1.9918                 1.5292
 Frc consts  --      1.1929                 1.1376                 0.9133
 IR Inten    --     19.5105                11.4421                 8.4332

                     22                     23                     24
                      A                      A                      A
 Frequencies --   1056.3180              1076.7941              1080.4547
 Red. masses --      2.7844                 1.5898                 1.3498
 Frc consts  --      1.8305                 1.0861                 0.9284
 IR Inten    --     34.0007                12.4381                10.3517

                     25                     26                     27
                      A                      A                      A
 Frequencies --   1125.6946              1137.5953              1175.8056
 Red. masses --      1.7730                 1.5748                 1.5474
 Frc consts  --      1.3237                 1.2007                 1.2605
 IR Inten    --      7.2514                17.8384                30.5569

                     28                     29                     30
                      A                      A                      A
 Frequencies --   1188.1452              1204.9286              1221.0030
 Red. masses --      1.8497                 1.6262                 1.5781
 Frc consts  --      1.5385                 1.3911                 1.3862
 IR Inten    --     36.0386                26.1080                16.9028

                     31                     32                     33
                      A                      A                      A
 Frequencies --   1290.8251              1293.5065              1313.0759
 Red. masses --      1.4494                 1.7059                 1.4490
 Frc consts  --      1.4229                 1.6817                 1.4720
 IR Inten    --     27.9016                 9.3286                 5.2643

                     34                     35                     36
                      A                      A                      A
 Frequencies --   1348.6336              1409.8324              1419.2392
 Red. masses --      1.5169                 1.3879                 1.3117
 Frc consts  --      1.6255                 1.6253                 1.5567
 IR Inten    --     57.0097                16.2189                 2.0619

                     37                     38                     39
                      A                      A                      A
 Frequencies --   1441.8255              1448.4016              1492.5790
 Red. masses --      1.4200                 1.5377                 1.0477
 Frc consts  --      1.7393                 1.9006                 1.3751
 IR Inten    --      9.7090                 5.6156                 1.8372

                     40                     41                     42
                      A                      A                      A
 Frequencies --   1501.3811              1836.9840              2986.5006
 Red. masses --      1.0747                12.3329                 1.0842
 Frc consts  --      1.4273                24.5204                 5.6976
 IR Inten    --      6.5459               286.3154                61.9518

                     43                     44                     45
                      A                      A                      A
 Frequencies --   3031.9802              3061.0248              3096.6952
 Red. masses --      1.0352                 1.0672                 1.1009
 Frc consts  --      5.6068                 5.8916                 6.2198
 IR Inten    --     30.8284                 6.5317                17.9623

                     46                     47                     48
                      A                      A                      A
 Frequencies --   3102.5104              3130.9282              3134.2196
 Red. masses --      1.0997                 1.0905                 1.0957
 Frc consts  --      6.2365                 6.2980                 6.3418
 IR Inten    --     12.0843                14.3305                 6.8827

                     49                     50                     51
                      A                      A                      A
 Frequencies --   3149.2739              3196.5248              3813.7264
 Red. masses --      1.0893                 1.0920                 1.0661
 Frc consts  --      6.3655                 6.5742                 9.1359
 IR Inten    --     17.9436                 4.7825                19.0525

 - Thermochemistry -
 -------------------
 Temperature   298.150 Kelvin.  Pressure   1.00000 Atm.
 Atom     1 has atomic number  6 and mass  12.00000

 Molecular mass:   126.06808 amu.
 Principal axes and moments of inertia in atomic units:
                           1         2         3
     Eigenvalues --   837.919661180.126151747.34789
           X            0.99984  -0.01178   0.01380
           Y            0.01167   0.99990   0.00802
           Z           -0.01390  -0.00785   0.99987
 This molecule is an asymmetric top.
 Rotational symmetry number  1.
 Warning -- assumption of classical behavior for rotation
           may cause significant error
 Rotational temperatures (Kelvin)      0.10337     0.07339     0.04957
 Rotational constants (GHZ):           2.15384     1.52928     1.03285
 Zero-point vibrational energy     417398.7 (Joules/Mol)
                                   99.76068 (Kcal/Mol)
 Warning -- explicit consideration of  11 degrees of freedom as
           vibrations may cause significant error
 Vibrational temperatures:    130.29   215.30   269.72   315.43   347.38
          (Kelvin)            425.75   528.40   580.24   630.26   674.51
                              771.54   918.82  1056.77  1122.53  1189.40
                             1233.01  1294.57  1346.09  1374.93  1416.56
                             1448.55  1519.80  1549.26  1554.53  1619.62
                             1636.74  1691.72  1709.47  1733.62  1756.75
                             1857.21  1861.07  1889.22  1940.38  2028.43
                             2041.97  2074.46  2083.92  2147.49  2160.15
                             2643.01  4296.90  4362.34  4404.13  4455.45
                             4463.81  4504.70  4509.44  4531.10  4599.08
                             5487.09

 Zero-point correction=                           0.158979 (Hartree/Particle)
 Thermal correction to Energy=                    0.167568
 Thermal correction to Enthalpy=                  0.168512
 Thermal correction to Gibbs Free Energy=         0.125851
 Sum of electronic and zero-point Energies=           -423.048805
 Sum of electronic and thermal Energies=              -423.040216
 Sum of electronic and thermal Enthalpies=            -423.039271
 Sum of electronic and thermal Free Energies=         -423.081932

                     E (Thermal)             CV                S
                      KCal/Mol        Cal/Mol-Kelvin    Cal/Mol-Kelvin
 Total                  105.151             32.923             89.787
 Electronic               0.000              0.000              0.000
 Translational            0.889              2.981             40.409
 Rotational               0.889              2.981             28.937
 Vibrational            103.373             26.961             20.442
 Vibration     1          0.602              1.956              3.648
 Vibration     2          0.618              1.903              2.677
 Vibration     3          0.632              1.857              2.253
 Vibration     4          0.647              1.812              1.965
 Vibration     5          0.658              1.777              1.792
 Vibration     6          0.690              1.681              1.440
 Vibration     7          0.740              1.540              1.091
 Vibration     8          0.769              1.463              0.951
 Vibration     9          0.798              1.387              0.833
 Vibration    10          0.826              1.319              0.741
 Vibration    11          0.891              1.170              0.573

 Optimization completed.
    -- Stationary point found.
 Normal termination of Gaussian 09 at Tue Jan 28 00:25:09 2020.
