 Gaussian 09, Revision D.01,
 Gaussian 09:  ES64L-G09RevD.01 24-Apr-2013

 -----------------------------
 # b3lyp 6-31G(2df,p) opt Freq
 -----------------------------

 -----
 titel
 -----
 Symbolic Z-matrix:
 Charge =  0 Multiplicity = 1

 SCF Done:  E(RB3LYP) =  -423.216983696     A.U. after   14 cycles
 Optimization completed.
    -- Stationary point found.
 Normal termination of Gaussian 09 at Tue Jan 28 09:18:03 2020.

 ----------------------------------------------------------------------
 #N Geom=AllCheck Guess=TCheck SCRF=Check GenChk RB3LYP/6-31G(2df,p) Fr
 eq
 ----------------------------------------------------------------------

 Structure from the checkpoint file:  "/scratch/puck/g09_8fbdfd71-f761-4c28-a483-a58023e5c798/Gau-107403.chk"
 -----
 titel
 -----
 Charge =  0 Multiplicity = 1

                         Standard orientation:
 ---------------------------------------------------------------------
 Center     Atomic      Atomic             Coordinates (Angstroms)
 Number     Number       Type             X           Y           Z
 ---------------------------------------------------------------------
      1          6           0        2.691848   -0.852141    0.341149
      2          6           0        1.968199    0.177567   -0.534066
      3          6           0        0.516592    0.350224   -0.177716
      4          6           0       -0.450948    1.377847   -0.819515
      5          6           0       -1.358364    0.901684    0.365310
      6          6           0       -0.037581    0.800878    1.201408
      7          6           0       -1.501752   -0.563293   -0.023976
      8          8           0       -2.434962   -1.306868   -0.045669
      9          8           0       -0.222372   -0.908945   -0.386367
     10          1           0        2.211821   -1.830899    0.263948
     11          1           0        3.735677   -0.956269    0.032610
     12          1           0        2.683242   -0.553935    1.394737
     13          1           0        2.452890    1.157711   -0.450009
     14          1           0        2.030329   -0.114656   -1.589206
     15          1           0       -0.118412    2.411429   -0.704129
     16          1           0       -0.784808    1.182246   -1.840961
     17          1           0       -2.256459    1.415142    0.696096
     18          1           0        0.335192    1.777824    1.515891
     19          1           0        0.001239    0.081321    2.021745
 ---------------------------------------------------------------------

 SCF Done:  E(RB3LYP) =  -423.216983696     A.U. after    1 cycles

 The electronic state is 1-A.
 Alpha  occ. eigenvalues --  -19.17107 -19.12330 -10.29882 -10.26148 -10.21660
 Alpha  occ. eigenvalues --  -10.20752 -10.20722 -10.19746 -10.18261  -1.09758
 Alpha  occ. eigenvalues --   -1.02211  -0.86226  -0.79003  -0.69531  -0.68660
 Alpha  occ. eigenvalues --   -0.62731  -0.58644  -0.55530  -0.50571  -0.48270
 Alpha  occ. eigenvalues --   -0.46638  -0.45081  -0.42942  -0.41780  -0.40183
 Alpha  occ. eigenvalues --   -0.38775  -0.38499  -0.37300  -0.35645  -0.34994
 Alpha  occ. eigenvalues --   -0.33649  -0.32847  -0.28252  -0.26016
 Alpha virt. eigenvalues --    0.01617   0.07606   0.09246   0.10692   0.11445
 Alpha virt. eigenvalues --    0.13566   0.14627   0.15396   0.15529   0.16061
 Alpha virt. eigenvalues --    0.17535   0.17702   0.18989   0.19630   0.20479

 Mulliken charges:
               1
     1  C   -0.386501
     2  C   -0.292595
     3  C    0.455684
     4  C   -0.284420
     5  C   -0.196302
     6  C   -0.275427
     7  C    0.456925
     8  O   -0.352851
     9  O   -0.286286
    10  H    0.144393
    11  H    0.117426
    12  H    0.118259
    13  H    0.103370
    14  H    0.116662
    15  H    0.111534
    16  H    0.118898
    17  H    0.099350
    18  H    0.111841
    19  H    0.120039
 Sum of Mulliken charges =   0.00000

 Dipole moment (field-independent basis, Debye):
    X=              2.7351    Y=              3.4072    Z=              0.4620  Tot=              4.3935
 Quadrupole moment (field-independent basis, Debye-Ang):
   XX=            -58.0838   YY=            -55.2670   ZZ=            -51.4219
   XY=             -5.3318   XZ=             -0.5977   YZ=             -0.5943

  Exact polarizability:  86.937   2.557  72.515  -0.307  -0.460  66.329
 Approx polarizability: 120.721  10.167 110.641  -1.145   1.200 100.049

                      1                      2                      3
                      A                      A                      A
 Frequencies --     90.8360               146.2391               190.9843
 Red. masses --      2.3432                 4.4671                 1.6353
 Frc consts  --      0.0114                 0.0563                 0.0351
 IR Inten    --      1.1206                 0.3570                 1.0285

                      4                      5                      6
                      A                      A                      A
 Frequencies --    217.0628               301.1422               372.5753
 Red. masses --      2.1042                 1.9606                 3.1541
 Frc consts  --      0.0584                 0.1048                 0.2580
 IR Inten    --      0.5226                 0.7792                 1.0136

                      7                      8                      9
                      A                      A                      A
 Frequencies --    483.0003               498.8772               510.1693
 Red. masses --      3.0641                 3.0651                 2.3309
 Frc consts  --      0.4212                 0.4494                 0.3574
 IR Inten    --      2.1228                 1.4340                 0.7170

                     10                     11                     12
                      A                      A                      A
 Frequencies --    581.4436               673.2785               763.9548
 Red. masses --      4.1666                 3.0948                 4.9221
 Frc consts  --      0.8299                 0.8265                 1.6925
 IR Inten    --      6.0565                 3.1961                 4.9911

                     13                     14                     15
                      A                      A                      A
 Frequencies --    780.5912               795.2421               850.8766
 Red. masses --      1.6669                 2.4734                 2.4235
 Frc consts  --      0.5984                 0.9216                 1.0338
 IR Inten    --      0.3290                 1.3377                 1.1869

                     16                     17                     18
                      A                      A                      A
 Frequencies --    887.5114               908.5576               936.1283
 Red. masses --      7.4634                 2.0565                 2.5677
 Frc consts  --      3.4637                 1.0002                 1.3257
 IR Inten    --     98.4956                 3.0202                14.6523

                     19                     20                     21
                      A                      A                      A
 Frequencies --    937.4279               986.4815              1016.5406
 Red. masses --      2.1202                 1.8758                 1.8942
 Frc consts  --      1.0978                 1.0755                 1.1533
 IR Inten    --      0.8765                 1.2814                 2.7285

                     22                     23                     24
                      A                      A                      A
 Frequencies --   1043.7314              1056.8692              1067.7239
 Red. masses --      2.0948                 1.2282                 1.5098
 Frc consts  --      1.3445                 0.8083                 1.0141
 IR Inten    --     65.3991                 2.9154                34.3502

                     25                     26                     27
                      A                      A                      A
 Frequencies --   1110.5506              1125.7486              1171.9333
 Red. masses --      1.7813                 1.6865                 1.8055
 Frc consts  --      1.2944                 1.2593                 1.4610
 IR Inten    --      4.7768                13.9572                 9.0598

                     28                     29                     30
                      A                      A                      A
 Frequencies --   1209.0121              1232.6730              1235.5691
 Red. masses --      1.6962                 1.5745                 1.9953
 Frc consts  --      1.4608                 1.4095                 1.7947
 IR Inten    --     11.2820                 3.5438                11.9461

                     31                     32                     33
                      A                      A                      A
 Frequencies --   1273.2819              1308.8726              1327.0551
 Red. masses --      1.7857                 1.7525                 1.4810
 Frc consts  --      1.7057                 1.7689                 1.5367
 IR Inten    --     28.4731                 7.2413                27.5085

                     34                     35                     36
                      A                      A                      A
 Frequencies --   1396.5445              1411.7658              1474.9524
 Red. masses --      2.2682                 1.2293                 1.0796
 Frc consts  --      2.6064                 1.4436                 1.3838
 IR Inten    --     11.6162                 3.4001                 1.6878

                     37                     38                     39
                      A                      A                      A
 Frequencies --   1476.9132              1498.3775              1509.2935
 Red. masses --      1.0983                 1.0394                 1.0653
 Frc consts  --      1.4115                 1.3750                 1.4298
 IR Inten    --      2.5511                 5.7271                 4.6835

                     40                     41                     42
                      A                      A                      A
 Frequencies --   1512.6922              1911.3651              3032.5969
 Red. masses --      1.1651                12.6276                 1.0597
 Frc consts  --      1.5707                27.1806                 5.7422
 IR Inten    --      6.8269               422.0490                16.6125

                     43                     44                     45
                      A                      A                      A
 Frequencies --   3043.2273              3067.2754              3068.6655
 Red. masses --      1.0368                 1.0559                 1.1005
 Frc consts  --      5.6575                 5.8529                 6.1057
 IR Inten    --     19.5800                33.1164                 7.6722

                     46                     47                     48
                      A                      A                      A
 Frequencies --   3073.2360              3110.2787              3128.0398
 Red. masses --      1.0571                 1.1008                 1.1020
 Frc consts  --      5.8826                 6.2743                 6.3532
 IR Inten    --     10.5576                31.6098                16.9179

                     49                     50                     51
                      A                      A                      A
 Frequencies --   3134.8208              3139.0680              3168.3167
 Red. masses --      1.1114                 1.1106                 1.0920
 Frc consts  --      6.4352                 6.4478                 6.4585
 IR Inten    --     11.8738                25.4360                18.0704

 - Thermochemistry -
 -------------------
 Temperature   298.150 Kelvin.  Pressure   1.00000 Atm.
 Atom     1 has atomic number  6 and mass  12.00000

 Molecular mass:   126.06808 amu.
 Principal axes and moments of inertia in atomic units:
                           1         2         3
     Eigenvalues --   582.745381343.008091567.42952
           X            0.99893  -0.04621   0.00342
           Y            0.04628   0.99860  -0.02571
           Z           -0.00223   0.02584   0.99966
 This molecule is an asymmetric top.
 Rotational symmetry number  1.
 Warning -- assumption of classical behavior for rotation
           may cause significant error
 Rotational temperatures (Kelvin)      0.14863     0.06449     0.05526
 Rotational constants (GHZ):           3.09696     1.34381     1.15140
 Zero-point vibrational energy     420184.5 (Joules/Mol)
                                  100.42652 (Kcal/Mol)
 Warning -- explicit consideration of  10 degrees of freedom as
           vibrations may cause significant error
 Vibrational temperatures:    130.69   210.41   274.78   312.30   433.28
          (Kelvin)            536.05   694.93   717.77   734.02   836.57
                              968.70  1099.16  1123.10  1144.17  1224.22
                             1276.93  1307.21  1346.88  1348.75  1419.33
                             1462.57  1501.69  1520.60  1536.21  1597.83
                             1619.70  1686.15  1739.50  1773.54  1777.71
                             1831.97  1883.17  1909.33  2009.31  2031.21
                             2122.12  2124.95  2155.83  2171.53  2176.42
                             2750.02  4363.23  4378.52  4413.12  4415.12
                             4421.70  4474.99  4500.55  4510.30  4516.41
                             4558.50

 Zero-point correction=                           0.160040 (Hartree/Particle)
 Thermal correction to Energy=                    0.167981
 Thermal correction to Enthalpy=                  0.168925
 Thermal correction to Gibbs Free Energy=         0.127543
 Sum of electronic and zero-point Energies=           -423.056944
 Sum of electronic and thermal Energies=              -423.049003
 Sum of electronic and thermal Enthalpies=            -423.048059
 Sum of electronic and thermal Free Energies=         -423.089441

                     E (Thermal)             CV                S
                      KCal/Mol        Cal/Mol-Kelvin    Cal/Mol-Kelvin
 Total                  105.410             31.027             87.097
 Electronic               0.000              0.000              0.000
 Translational            0.889              2.981             40.409
 Rotational               0.889              2.981             28.597
 Vibrational            103.632             25.065             18.091
 Vibration     1          0.602              1.956              3.642
 Vibration     2          0.617              1.907              2.721
 Vibration     3          0.634              1.852              2.218
 Vibration     4          0.646              1.815              1.983
 Vibration     5          0.693              1.672              1.411
 Vibration     6          0.744              1.528              1.069
 Vibration     7          0.839              1.288              0.702
 Vibration     8          0.854              1.253              0.661
 Vibration     9          0.865              1.227              0.633
 Vibration    10          0.938              1.071              0.483

 Optimization completed.
    -- Stationary point found.
 Normal termination of Gaussian 09 at Tue Jan 28 09:59:00 2020.
