 Gaussian 09, Revision D.01,
 Gaussian 09:  ES64L-G09RevD.01 24-Apr-2013

 -----------------------------
 # b3lyp 6-31G(2df,p) opt Freq
 -----------------------------

 -----
 titel
 -----
 Symbolic Z-matrix:
 Charge =  0 Multiplicity = 1

 SCF Done:  E(RB3LYP) =  -423.149755635     A.U. after   13 cycles
 Optimization completed.
    -- Stationary point found.
 Normal termination of Gaussian 09 at Tue Jan 28 13:58:05 2020.

 ----------------------------------------------------------------------
 #N Geom=AllCheck Guess=TCheck SCRF=Check GenChk RB3LYP/6-31G(2df,p) Fr
 eq
 ----------------------------------------------------------------------

 Structure from the checkpoint file:  "/scratch/puck/g09_57814134-3dd6-4096-82bc-790bcc6d58b7/Gau-9511.chk"
 -----
 titel
 -----
 Charge =  0 Multiplicity = 1

                         Standard orientation:
 ---------------------------------------------------------------------
 Center     Atomic      Atomic             Coordinates (Angstroms)
 Number     Number       Type             X           Y           Z
 ---------------------------------------------------------------------
      1          8           0        2.571152    0.330760    0.100547
      2          6           0        1.704240   -0.509880   -0.642447
      3          6           0        0.521526   -0.990027    0.205401
      4          6           0       -0.847748   -1.301224   -0.416789
      5          6           0       -1.643234   -0.027200   -0.676619
      6          6           0       -0.939695    1.320789   -0.707087
      7          8           0       -0.158784    1.370081    0.499718
      8          6           0       -0.210139    0.069458    1.096418
      9          6           0       -1.562224   -0.570030    0.715868
     10          1           0        2.041016    1.103586    0.334054
     11          1           0        1.342783   -0.008853   -1.552675
     12          1           0        2.306321   -1.363744   -0.972176
     13          1           0        0.829829   -1.822721    0.847247
     14          1           0       -1.137394   -2.230755   -0.893486
     15          1           0       -2.564489   -0.144614   -1.235353
     16          1           0       -0.288273    1.458660   -1.578568
     17          1           0       -1.665351    2.143864   -0.690179
     18          1           0        0.089148    0.159954    2.138731
     19          1           0       -2.388893   -0.853421    1.351802
 ---------------------------------------------------------------------

 SCF Done:  E(RB3LYP) =  -423.149755635     A.U. after    1 cycles

 The electronic state is 1-A.
 Alpha  occ. eigenvalues --  -19.14693 -19.11864 -10.23828 -10.23401 -10.21627
 Alpha  occ. eigenvalues --  -10.20365 -10.20241 -10.19604 -10.18744  -1.04492
 Alpha  occ. eigenvalues --   -1.00016  -0.89424  -0.76442  -0.71142  -0.63894
 Alpha  occ. eigenvalues --   -0.62714  -0.58309  -0.54151  -0.52325  -0.49856
 Alpha  occ. eigenvalues --   -0.46954  -0.44875  -0.42930  -0.42497  -0.41851
 Alpha  occ. eigenvalues --   -0.37997  -0.37502  -0.35299  -0.33925  -0.30311
 Alpha  occ. eigenvalues --   -0.29430  -0.28262  -0.24820  -0.24555
 Alpha virt. eigenvalues --    0.07533   0.09200   0.09665   0.12416   0.13013
 Alpha virt. eigenvalues --    0.13400   0.14393   0.15196   0.15980   0.16225
 Alpha virt. eigenvalues --    0.18519   0.18543   0.19447   0.20220   0.22074

 Mulliken charges:
               1
     1  O   -0.427171
     2  C   -0.092863
     3  C   -0.021742
     4  C   -0.110915
     5  C   -0.067098
     6  C   -0.113619
     7  O   -0.278150
     8  C    0.059659
     9  C   -0.088043
    10  H    0.291674
    11  H    0.083088
    12  H    0.102730
    13  H    0.080121
    14  H    0.087832
    15  H    0.095628
    16  H    0.108296
    17  H    0.107585
    18  H    0.089802
    19  H    0.093187
 Sum of Mulliken charges =   0.00000

 Dipole moment (field-independent basis, Debye):
    X=             -2.7560    Y=             -0.9469    Z=             -0.6103  Tot=              2.9773
 Quadrupole moment (field-independent basis, Debye-Ang):
   XX=            -57.8643   YY=            -52.1955   ZZ=            -51.0885
   XY=             -0.4761   XZ=              0.2509   YZ=             -1.1425

  Exact polarizability:  77.974  -2.378  72.427   1.207  -1.529  68.445
 Approx polarizability: 107.235  -3.238 109.005   2.681  -0.300 107.538

                      1                      2                      3
                      A                      A                      A
 Frequencies --     82.2267               173.8715               229.4358
 Red. masses --      3.6823                 5.0882                 2.5915
 Frc consts  --      0.0147                 0.0906                 0.0804
 IR Inten    --      3.2222                 1.1888                 0.5777

                      4                      5                      6
                      A                      A                      A
 Frequencies --    283.8625               355.2414               494.5483
 Red. masses --      2.6947                 4.8334                 3.0014
 Frc consts  --      0.1279                 0.3594                 0.4325
 IR Inten    --      7.8844                 2.2357                 1.5518

                      7                      8                      9
                      A                      A                      A
 Frequencies --    553.0197               601.1921               656.1408
 Red. masses --      1.0928                 3.4112                 4.2049
 Frc consts  --      0.1969                 0.7264                 1.0666
 IR Inten    --     90.3092                 1.2222                14.4230

                     10                     11                     12
                      A                      A                      A
 Frequencies --    696.5138               765.3251               788.0897
 Red. masses --      4.1323                 3.0330                 3.2568
 Frc consts  --      1.1811                 1.0467                 1.1918
 IR Inten    --      0.1886                 2.2215                13.8074

                     13                     14                     15
                      A                      A                      A
 Frequencies --    815.3430               820.5193               907.4648
 Red. masses --      1.9543                 1.7723                 1.9005
 Frc consts  --      0.7655                 0.7030                 0.9221
 IR Inten    --      6.5334                 7.0418                10.8367

                     16                     17                     18
                      A                      A                      A
 Frequencies --    912.3818               953.8245               984.6310
 Red. masses --      2.2006                 1.8954                 1.9568
 Frc consts  --      1.0793                 1.0160                 1.1177
 IR Inten    --      2.2741                12.6855                 9.6895

                     19                     20                     21
                      A                      A                      A
 Frequencies --    991.8147              1027.2037              1034.0892
 Red. masses --      1.7797                 3.4650                 2.4900
 Frc consts  --      1.0315                 2.1541                 1.5688
 IR Inten    --     19.5152                23.7937                34.5942

                     22                     23                     24
                      A                      A                      A
 Frequencies --   1047.4623              1057.3297              1081.7792
 Red. masses --      1.3391                 2.6855                 1.7801
 Frc consts  --      0.8656                 1.7689                 1.2274
 IR Inten    --      2.7905                67.8041                16.3870

                     25                     26                     27
                      A                      A                      A
 Frequencies --   1087.1789              1119.1324              1141.9513
 Red. masses --      3.4371                 1.8711                 2.2330
 Frc consts  --      2.3935                 1.3807                 1.7157
 IR Inten    --     29.0910                 4.9688                17.8979

                     28                     29                     30
                      A                      A                      A
 Frequencies --   1181.7966              1217.4946              1220.3287
 Red. masses --      1.7717                 1.2434                 1.1479
 Frc consts  --      1.4579                 1.0859                 1.0072
 IR Inten    --      6.5902                 5.2251                 4.7150

                     31                     32                     33
                      A                      A                      A
 Frequencies --   1233.9480              1271.8779              1302.2835
 Red. masses --      1.4599                 1.6120                 1.3420
 Frc consts  --      1.3097                 1.5364                 1.3410
 IR Inten    --     10.2511                 9.2144                 4.9954

                     34                     35                     36
                      A                      A                      A
 Frequencies --   1330.4280              1361.7487              1366.1456
 Red. masses --      1.3183                 1.8307                 1.5592
 Frc consts  --      1.3749                 2.0001                 1.7146
 IR Inten    --      1.4885                 7.4227                 0.9053

                     37                     38                     39
                      A                      A                      A
 Frequencies --   1398.3111              1408.2534              1441.5506
 Red. masses --      1.3521                 1.8085                 1.2703
 Frc consts  --      1.5576                 2.1132                 1.5554
 IR Inten    --      5.4303                 9.7428                62.3319

                     40                     41                     42
                      A                      A                      A
 Frequencies --   1505.9383              1534.5798              2989.1401
 Red. masses --      1.0808                 1.0873                 1.0691
 Frc consts  --      1.4442                 1.5087                 5.6280
 IR Inten    --      0.8710                 0.5164                37.4062

                     43                     44                     45
                      A                      A                      A
 Frequencies --   3017.8408              3043.9139              3050.7549
 Red. masses --      1.0567                 1.0843                 1.1074
 Frc consts  --      5.6702                 5.9191                 6.0725
 IR Inten    --     75.1105                15.1255                48.7106

                     46                     47                     48
                      A                      A                      A
 Frequencies --   3067.3435              3139.7625              3174.2295
 Red. masses --      1.0949                 1.0908                 1.0906
 Frc consts  --      6.0697                 6.3354                 6.4741
 IR Inten    --     50.3084                25.5916                16.5623

                     49                     50                     51
                      A                      A                      A
 Frequencies --   3188.2307              3214.8723              3768.3018
 Red. masses --      1.0898                 1.0976                 1.0656
 Frc consts  --      6.5266                 6.6840                 8.9152
 IR Inten    --     12.7021                12.0461                40.8751

 - Thermochemistry -
 -------------------
 Temperature   298.150 Kelvin.  Pressure   1.00000 Atm.
 Atom     1 has atomic number  8 and mass  15.99491

 Molecular mass:   126.06808 amu.
 Principal axes and moments of inertia in atomic units:
                           1         2         3
     Eigenvalues --   609.210361121.226491304.50002
           X            0.99995  -0.00991  -0.00053
           Y            0.00988   0.99902  -0.04307
           Z            0.00096   0.04306   0.99907
 This molecule is an asymmetric top.
 Rotational symmetry number  1.
 Warning -- assumption of classical behavior for rotation
           may cause significant error
 Rotational temperatures (Kelvin)      0.14217     0.07725     0.06640
 Rotational constants (GHZ):           2.96243     1.60961     1.38347
 Zero-point vibrational energy     425216.5 (Joules/Mol)
                                  101.62918 (Kcal/Mol)
 Warning -- explicit consideration of   8 degrees of freedom as
           vibrations may cause significant error
 Vibrational temperatures:    118.31   250.16   330.11   408.41   511.11
          (Kelvin)            711.54   795.67   864.98   944.04  1002.13
                             1101.13  1133.88  1173.10  1180.54  1305.64
                             1312.71  1372.34  1416.66  1427.00  1477.92
                             1487.82  1507.06  1521.26  1556.44  1564.21
                             1610.18  1643.01  1700.34  1751.70  1755.78
                             1775.37  1829.95  1873.69  1914.19  1959.25
                             1965.58  2011.86  2026.16  2074.07  2166.71
                             2207.92  4300.70  4341.99  4379.51  4389.35
                             4413.22  4517.41  4567.00  4587.15  4625.48
                             5421.74

 Zero-point correction=                           0.161956 (Hartree/Particle)
 Thermal correction to Energy=                    0.169204
 Thermal correction to Enthalpy=                  0.170148
 Thermal correction to Gibbs Free Energy=         0.130183
 Sum of electronic and zero-point Energies=           -422.987799
 Sum of electronic and thermal Energies=              -422.980551
 Sum of electronic and thermal Enthalpies=            -422.979607
 Sum of electronic and thermal Free Energies=         -423.019573

                     E (Thermal)             CV                S
                      KCal/Mol        Cal/Mol-Kelvin    Cal/Mol-Kelvin
 Total                  106.177             29.190             84.115
 Electronic               0.000              0.000              0.000
 Translational            0.889              2.981             40.409
 Rotational               0.889              2.981             28.279
 Vibrational            104.400             23.228             15.428
 Vibration     1          0.600              1.961              3.837
 Vibration     2          0.627              1.875              2.393
 Vibration     3          0.652              1.796              1.883
 Vibration     4          0.682              1.704              1.510
 Vibration     5          0.731              1.564              1.143
 Vibration     6          0.850              1.262              0.672
 Vibration     7          0.908              1.133              0.538
 Vibration     8          0.959              1.029              0.448

 Optimization completed.
    -- Stationary point found.
 Normal termination of Gaussian 09 at Tue Jan 28 14:50:58 2020.
