 Gaussian 09, Revision D.01,
 Gaussian 09:  ES64L-G09RevD.01 24-Apr-2013

 -----------------------------
 # b3lyp 6-31G(2df,p) opt Freq
 -----------------------------

 -----
 titel
 -----
 Symbolic Z-matrix:
 Charge =  0 Multiplicity = 1

 SCF Done:  E(RB3LYP) =  -423.113817294     A.U. after   13 cycles
 Optimization completed.
    -- Stationary point found.
 Normal termination of Gaussian 09 at Tue Jan 28 12:36:48 2020.

 ----------------------------------------------------------------------
 #N Geom=AllCheck Guess=TCheck SCRF=Check GenChk RB3LYP/6-31G(2df,p) Fr
 eq
 ----------------------------------------------------------------------

 Structure from the checkpoint file:  "/scratch/puck/g09_359aba8e-3d02-4b96-8203-d74ffd914f52/Gau-1449.chk"
 -----
 titel
 -----
 Charge =  0 Multiplicity = 1

                         Standard orientation:
 ---------------------------------------------------------------------
 Center     Atomic      Atomic             Coordinates (Angstroms)
 Number     Number       Type             X           Y           Z
 ---------------------------------------------------------------------
      1          6           0        2.676879   -1.115495   -0.367591
      2          8           0        1.363932   -1.356671    0.107008
      3          6           0        0.753414   -0.221205    0.614981
      4          6           0       -0.735306   -0.186468    0.626483
      5          6           0       -1.560517   -1.325311    0.071304
      6          8           0       -2.855236   -0.902688   -0.327023
      7          6           0        0.031619    0.719641   -0.353269
      8          6           0        0.070958    2.137770   -0.173773
      9          6           0        0.107687    3.329447   -0.008694
     10          1           0        3.328227   -0.735994    0.433002
     11          1           0        3.068282   -2.070536   -0.723743
     12          1           0        2.680450   -0.389632   -1.192413
     13          1           0        1.284099    0.254648    1.440671
     14          1           0       -1.189202    0.329469    1.467044
     15          1           0       -1.017133   -1.815552   -0.747828
     16          1           0       -1.722245   -2.079893    0.848282
     17          1           0       -2.743257   -0.195888   -0.971685
     18          1           0        0.035043    0.366828   -1.382316
     19          1           0        0.137763    4.381150    0.132456
 ---------------------------------------------------------------------

 SCF Done:  E(RB3LYP) =  -423.113817294     A.U. after    1 cycles

 The electronic state is 1-A.
 Alpha  occ. eigenvalues --  -19.15948 -19.13255 -10.25059 -10.23393 -10.22957
 Alpha  occ. eigenvalues --  -10.21689 -10.20275 -10.18363 -10.17210  -1.05512
 Alpha  occ. eigenvalues --   -1.01419  -0.87281  -0.74996  -0.70476  -0.69491
 Alpha  occ. eigenvalues --   -0.62668  -0.58170  -0.55255  -0.51733  -0.50135
 Alpha  occ. eigenvalues --   -0.48419  -0.46365  -0.45148  -0.43303  -0.42431
 Alpha  occ. eigenvalues --   -0.39715  -0.35923  -0.34470  -0.33415  -0.31689
 Alpha  occ. eigenvalues --   -0.28756  -0.26847  -0.25993  -0.23591
 Alpha virt. eigenvalues --    0.04560   0.04639   0.07903   0.08896   0.10675
 Alpha virt. eigenvalues --    0.12656   0.12933   0.14064   0.14301   0.15061
 Alpha virt. eigenvalues --    0.16057   0.17492   0.18345   0.19631   0.21974

 Mulliken charges:
               1
     1  C   -0.237834
     2  O   -0.233392
     3  C    0.096104
     4  C   -0.103141
     5  C   -0.076997
     6  O   -0.418791
     7  C   -0.296815
     8  C    0.319691
     9  C   -0.439867
    10  H    0.114582
    11  H    0.132835
    12  H    0.117065
    13  H    0.102864
    14  H    0.111439
    15  H    0.101330
    16  H    0.118082
    17  H    0.283558
    18  H    0.114175
    19  H    0.195110
 Sum of Mulliken charges =   0.00000

 Dipole moment (field-independent basis, Debye):
    X=              2.0561    Y=              0.6206    Z=             -0.3969  Tot=              2.1841
 Quadrupole moment (field-independent basis, Debye-Ang):
   XX=            -55.9141   YY=            -52.6595   ZZ=            -50.8196
   XY=             -3.4717   XZ=              0.5584   YZ=              0.9347

  Exact polarizability:  77.514  -1.337 102.921  -0.874   0.256  60.362
 Approx polarizability: 100.312  -0.321 153.937  -0.981   0.374  92.500

                      1                      2                      3
                      A                      A                      A
 Frequencies --     79.1630                94.1254               119.3736
 Red. masses --      3.2502                 4.1207                 3.6929
 Frc consts  --      0.0120                 0.0215                 0.0310
 IR Inten    --      0.3252                 2.0638                 0.5756

                      4                      5                      6
                      A                      A                      A
 Frequencies --    134.9874               155.1765               194.8425
 Red. masses --      2.5339                 2.0645                 1.5268
 Frc consts  --      0.0272                 0.0293                 0.0342
 IR Inten    --      5.0071                 0.3315                 2.3782

                      7                      8                      9
                      A                      A                      A
 Frequencies --    240.8122               307.9071               347.7405
 Red. masses --      2.1875                 2.4189                 1.6384
 Frc consts  --      0.0747                 0.1351                 0.1167
 IR Inten    --      6.5648                36.7553                69.9594

                     10                     11                     12
                      A                      A                      A
 Frequencies --    398.6536               428.5382               491.7273
 Red. masses --      2.9828                 4.0052                 6.2155
 Frc consts  --      0.2793                 0.4334                 0.8855
 IR Inten    --      5.9985                 5.5983                 5.0810

                     13                     14                     15
                      A                      A                      A
 Frequencies --    505.3180               573.3390               612.4389
 Red. masses --      5.5814                 1.2020                 4.1284
 Frc consts  --      0.8397                 0.2328                 0.9123
 IR Inten    --      5.8373                45.5505                 3.6405

                     16                     17                     18
                      A                      A                      A
 Frequencies --    654.3673               822.0084               852.0768
 Red. masses --      1.2339                 2.6887                 2.3738
 Frc consts  --      0.3113                 1.0704                 1.0154
 IR Inten    --     39.7075                 5.9287                 8.0214

                     19                     20                     21
                      A                      A                      A
 Frequencies --    903.9428               979.9490              1006.9143
 Red. masses --      3.5589                 1.6092                 2.0370
 Frc consts  --      1.7134                 0.9105                 1.2168
 IR Inten    --     24.4486                11.7457                17.2175

                     22                     23                     24
                      A                      A                      A
 Frequencies --   1038.5268              1072.8488              1094.3932
 Red. masses --      3.4072                 4.7329                 1.6420
 Frc consts  --      2.1651                 3.2097                 1.1587
 IR Inten    --     61.5003                75.5357                18.9084

                     25                     26                     27
                      A                      A                      A
 Frequencies --   1115.7892              1132.4978              1158.6946
 Red. masses --      1.5907                 1.9361                 1.9638
 Frc consts  --      1.1668                 1.4630                 1.5534
 IR Inten    --     38.2106                30.1638                40.4361

                     28                     29                     30
                      A                      A                      A
 Frequencies --   1182.9534              1212.4017              1228.3967
 Red. masses --      1.2800                 1.2770                 1.4473
 Frc consts  --      1.0554                 1.1059                 1.2867
 IR Inten    --      4.3768                 3.0165                 2.3981

                     31                     32                     33
                      A                      A                      A
 Frequencies --   1255.1582              1310.1480              1347.1168
 Red. masses --      2.0996                 1.3531                 1.3243
 Frc consts  --      1.9489                 1.3684                 1.4160
 IR Inten    --     97.6945                 2.2929                 3.9218

                     34                     35                     36
                      A                      A                      A
 Frequencies --   1379.2019              1422.3728              1446.8702
 Red. masses --      1.2330                 1.2799                 2.0010
 Frc consts  --      1.3819                 1.5256                 2.4681
 IR Inten    --     50.3241                31.4102                49.6368

                     37                     38                     39
                      A                      A                      A
 Frequencies --   1485.3109              1486.9705              1507.7303
 Red. masses --      1.0563                 1.2562                 1.0725
 Frc consts  --      1.3730                 1.6364                 1.4365
 IR Inten    --      4.7820                 8.8949                 2.8747

                     40                     41                     42
                      A                      A                      A
 Frequencies --   1510.0105              2233.2275              2991.7348
 Red. masses --      1.1156                 6.0444                 1.0355
 Frc consts  --      1.4987                17.7612                 5.4607
 IR Inten    --      2.3520                20.5432                50.9988

                     43                     44                     45
                      A                      A                      A
 Frequencies --   3014.5289              3046.1345              3074.5876
 Red. masses --      1.0654                 1.1035                 1.0973
 Frc consts  --      5.7041                 6.0326                 6.1115
 IR Inten    --     34.3773                43.3468                27.7041

                     46                     47                     48
                      A                      A                      A
 Frequencies --   3095.7208              3127.4087              3132.4160
 Red. masses --      1.0878                 1.0984                 1.0858
 Frc consts  --      6.1422                 6.3298                 6.2772
 IR Inten    --     17.9862                26.7032                 6.1133

                     49                     50                     51
                      A                      A                      A
 Frequencies --   3165.0937              3505.2373              3807.3700
 Red. masses --      1.0887                 1.1596                 1.0660
 Frc consts  --      6.4259                 8.3941                 9.1042
 IR Inten    --      8.7359                85.8808                11.6652

 - Thermochemistry -
 -------------------
 Temperature   298.150 Kelvin.  Pressure   1.00000 Atm.
 Atom     1 has atomic number  6 and mass  12.00000

 Molecular mass:   126.06808 amu.
 Principal axes and moments of inertia in atomic units:
                           1         2         3
     Eigenvalues --  1181.169391275.094402275.96938
           X            0.99174  -0.12813  -0.00642
           Y            0.12818   0.99171   0.00843
           Z            0.00528  -0.00918   0.99994
 This molecule is an asymmetric top.
 Rotational symmetry number  1.
 Warning -- assumption of classical behavior for rotation
           may cause significant error
 Rotational temperatures (Kelvin)      0.07333     0.06793     0.03806
 Rotational constants (GHZ):           1.52793     1.41538     0.79295
 Zero-point vibrational energy     409626.8 (Joules/Mol)
                                   97.90316 (Kcal/Mol)
 Warning -- explicit consideration of  15 degrees of freedom as
           vibrations may cause significant error
 Vibrational temperatures:    113.90   135.43   171.75   194.22   223.26
          (Kelvin)            280.33   346.47   443.01   500.32   573.57
                              616.57   707.49   727.04   824.91   881.16
                              941.49  1182.69  1225.95  1300.57  1409.93
                             1448.72  1494.21  1543.59  1574.59  1605.37
                             1629.41  1667.10  1702.00  1744.37  1767.39
                             1805.89  1885.01  1938.20  1984.36  2046.47
                             2081.72  2137.03  2139.42  2169.28  2172.57
                             3213.11  4304.43  4337.23  4382.70  4423.64
                             4454.05  4499.64  4506.84  4553.86  5043.25
                             5477.95

 Zero-point correction=                           0.156019 (Hartree/Particle)
 Thermal correction to Energy=                    0.166261
 Thermal correction to Enthalpy=                  0.167205
 Thermal correction to Gibbs Free Energy=         0.120432
 Sum of electronic and zero-point Energies=           -422.957799
 Sum of electronic and thermal Energies=              -422.947556
 Sum of electronic and thermal Enthalpies=            -422.946612
 Sum of electronic and thermal Free Energies=         -422.993385

                     E (Thermal)             CV                S
                      KCal/Mol        Cal/Mol-Kelvin    Cal/Mol-Kelvin
 Total                  104.331             36.670             98.442
 Electronic               0.000              0.000              0.000
 Translational            0.889              2.981             40.409
 Rotational               0.889              2.981             29.618
 Vibrational            102.553             30.709             28.416
 Vibration     1          0.600              1.963              3.912
 Vibration     2          0.603              1.953              3.572
 Vibration     3          0.609              1.933              3.110
 Vibration     4          0.613              1.918              2.874
 Vibration     5          0.620              1.897              2.608
 Vibration     6          0.636              1.847              2.181
 Vibration     7          0.658              1.778              1.797
 Vibration     8          0.698              1.659              1.374
 Vibration     9          0.725              1.580              1.176
 Vibration    10          0.765              1.473              0.968
 Vibration    11          0.790              1.408              0.863
 Vibration    12          0.847              1.268              0.679
 Vibration    13          0.861              1.238              0.645
 Vibration    14          0.930              1.089              0.498
 Vibration    15          0.972              1.006              0.429

 Normal termination of Gaussian 09 at Tue Jan 28 13:20:36 2020.
