 Gaussian 09, Revision D.01,
 Gaussian 09:  ES64L-G09RevD.01 24-Apr-2013

 -----------------------------
 # b3lyp 6-31G(2df,p) opt Freq
 -----------------------------

 -----
 titel
 -----
 Symbolic Z-matrix:
 Charge =  0 Multiplicity = 1

 SCF Done:  E(RB3LYP) =  -423.177719278     A.U. after   13 cycles
 Optimization completed.
    -- Stationary point found.
 Normal termination of Gaussian 09 at Mon Jan 27 12:22:58 2020.

 ----------------------------------------------------------------------
 #N Geom=AllCheck Guess=TCheck SCRF=Check GenChk RB3LYP/6-31G(2df,p) Fr
 eq
 ----------------------------------------------------------------------

 Structure from the checkpoint file:  "/scratch/puck/g09_3fff37c2-b1b0-4855-9efa-94087fd88308/Gau-73097.chk"
 -----
 titel
 -----
 Charge =  0 Multiplicity = 1

                         Standard orientation:
 ---------------------------------------------------------------------
 Center     Atomic      Atomic             Coordinates (Angstroms)
 Number     Number       Type             X           Y           Z
 ---------------------------------------------------------------------
      1          6           0       -0.506291    1.419119   -0.833630
      2          8           0        0.834261    1.436069   -0.341373
      3          6           0        1.277331    0.277593    0.350809
      4          6           0        1.291162   -0.986550   -0.515302
      5          8           0        0.005494   -1.387949   -0.975873
      6          6           0       -1.106090   -1.009911   -0.208945
      7          6           0       -1.455099    0.456375   -0.134381
      8          6           0       -0.983041   -0.285065    1.106566
      9          6           0        0.412095    0.040325    1.592042
     10          1           0       -0.875295    2.445154   -0.726666
     11          1           0       -0.491432    1.182384   -1.908216
     12          1           0        2.311479    0.498682    0.634752
     13          1           0        1.899142   -0.826182   -1.411071
     14          1           0        1.752761   -1.797289    0.071187
     15          1           0       -1.903921   -1.734597   -0.333755
     16          1           0       -2.502230    0.735724   -0.201467
     17          1           0       -1.725175   -0.513865    1.865755
     18          1           0        0.414257    0.938853    2.218070
     19          1           0        0.821971   -0.785129    2.186421
 ---------------------------------------------------------------------

 SCF Done:  E(RB3LYP) =  -423.177719278     A.U. after    1 cycles

 The electronic state is 1-A.
 Alpha  occ. eigenvalues --  -19.14247 -19.13342 -10.23347 -10.23217 -10.22688
 Alpha  occ. eigenvalues --  -10.22683 -10.19430 -10.18661 -10.18619  -1.04490
 Alpha  occ. eigenvalues --   -1.01698  -0.85738  -0.78786  -0.70275  -0.68055
 Alpha  occ. eigenvalues --   -0.62833  -0.57451  -0.53508  -0.51024  -0.47956
 Alpha  occ. eigenvalues --   -0.46795  -0.45253  -0.44643  -0.43162  -0.41361
 Alpha  occ. eigenvalues --   -0.39573  -0.38430  -0.35685  -0.34178  -0.33629
 Alpha  occ. eigenvalues --   -0.29069  -0.26818  -0.24303  -0.23113
 Alpha virt. eigenvalues --    0.07353   0.10771   0.11056   0.12516   0.13108
 Alpha virt. eigenvalues --    0.14107   0.15382   0.16057   0.16449   0.16883
 Alpha virt. eigenvalues --    0.18165   0.18986   0.20258   0.21299   0.22207

 Mulliken charges:
               1
     1  C   -0.082466
     2  O   -0.277928
     3  C    0.065772
     4  C   -0.075553
     5  O   -0.265622
     6  C    0.103623
     7  C   -0.108850
     8  C   -0.098219
     9  C   -0.234795
    10  H    0.106003
    11  H    0.104565
    12  H    0.086752
    13  H    0.112867
    14  H    0.091154
    15  H    0.095963
    16  H    0.087107
    17  H    0.085116
    18  H    0.105788
    19  H    0.098723
 Sum of Mulliken charges =   0.00000

 Dipole moment (field-independent basis, Debye):
    X=             -0.5683    Y=             -0.2791    Z=              1.3136  Tot=              1.4582
 Quadrupole moment (field-independent basis, Debye-Ang):
   XX=            -48.8708   YY=            -56.2199   ZZ=            -53.3294
   XY=             -2.3592   XZ=              0.5509   YZ=             -1.7685

  Exact polarizability:  77.841  -3.355  70.685   1.551  -2.277  71.015
 Approx polarizability: 109.120  -3.462 105.427   2.827  -1.710 105.418

                      1                      2                      3
                      A                      A                      A
 Frequencies --    112.5188               161.7747               346.8625
 Red. masses --      2.7016                 3.2367                 2.9786
 Frc consts  --      0.0202                 0.0499                 0.2111
 IR Inten    --      4.6265                 4.4842                 0.3972

                      4                      5                      6
                      A                      A                      A
 Frequencies --    365.5371               413.5644               504.3563
 Red. masses --      2.3622                 4.2835                 3.2487
 Frc consts  --      0.1860                 0.4317                 0.4869
 IR Inten    --      1.1603                 0.9925                 3.3833

                      7                      8                      9
                      A                      A                      A
 Frequencies --    527.2230               602.7887               688.4243
 Red. masses --      5.2706                 4.8787                 3.8815
 Frc consts  --      0.8632                 1.0444                 1.0838
 IR Inten    --      3.3312                 0.8748                 7.1165

                     10                     11                     12
                      A                      A                      A
 Frequencies --    752.2555               770.6744               791.1670
 Red. masses --      2.4093                 2.0954                 3.7567
 Frc consts  --      0.8033                 0.7333                 1.3855
 IR Inten    --      9.7949                11.2935                 1.1637

                     13                     14                     15
                      A                      A                      A
 Frequencies --    870.1048               883.0230               898.5341
 Red. masses --      3.1906                 3.1707                 1.9552
 Frc consts  --      1.4232                 1.4567                 0.9300
 IR Inten    --      9.7650                26.8909                 2.2518

                     16                     17                     18
                      A                      A                      A
 Frequencies --    934.6998               955.4608              1011.1463
 Red. masses --      2.1175                 2.3133                 1.7981
 Frc consts  --      1.0900                 1.2442                 1.0832
 IR Inten    --      0.7737                 3.2404                36.2291

                     19                     20                     21
                      A                      A                      A
 Frequencies --   1031.4458              1067.5611              1075.4058
 Red. masses --      1.9543                 2.1043                 1.5357
 Frc consts  --      1.2250                 1.4130                 1.0464
 IR Inten    --      2.2728                15.4251                 2.7978

                     22                     23                     24
                      A                      A                      A
 Frequencies --   1096.4552              1099.6110              1120.3541
 Red. masses --      2.1939                 1.9152                 1.3634
 Frc consts  --      1.5540                 1.3644                 1.0083
 IR Inten    --      5.5819                 4.0522                 6.0007

                     25                     26                     27
                      A                      A                      A
 Frequencies --   1128.1956              1175.3958              1216.9085
 Red. masses --      2.0580                 2.4501                 1.5756
 Frc consts  --      1.5433                 1.9944                 1.3747
 IR Inten    --     16.4739                94.6255                13.2036

                     28                     29                     30
                      A                      A                      A
 Frequencies --   1249.9716              1267.9355              1282.8392
 Red. masses --      1.6994                 1.2497                 1.1466
 Frc consts  --      1.5644                 1.1838                 1.1117
 IR Inten    --     65.7774                14.1585                 9.7669

                     31                     32                     33
                      A                      A                      A
 Frequencies --   1306.8619              1345.8102              1355.6263
 Red. masses --      1.8246                 1.3535                 1.4558
 Frc consts  --      1.8360                 1.4444                 1.5762
 IR Inten    --      5.7945                 3.3387                 2.2279

                     34                     35                     36
                      A                      A                      A
 Frequencies --   1369.7522              1378.3462              1406.7408
 Red. masses --      1.4006                 1.4683                 1.5798
 Frc consts  --      1.5483                 1.6435                 1.8419
 IR Inten    --      0.0535                 3.7402                12.7615

                     37                     38                     39
                      A                      A                      A
 Frequencies --   1419.2058              1451.7543              1489.4244
 Red. masses --      1.3460                 1.9276                 1.1451
 Frc consts  --      1.5973                 2.3936                 1.4967
 IR Inten    --      5.9010                 9.8815                 4.5442

                     40                     41                     42
                      A                      A                      A
 Frequencies --   1506.0695              1512.7451              2976.3654
 Red. masses --      1.0960                 1.0856                 1.0702
 Frc consts  --      1.4646                 1.4637                 5.5861
 IR Inten    --      1.6364                 0.2171                61.8570

                     43                     44                     45
                      A                      A                      A
 Frequencies --   2987.8782              3028.6918              3053.7370
 Red. masses --      1.0688                 1.0604                 1.0937
 Frc consts  --      5.6217                 5.7309                 6.0091
 IR Inten    --     66.4520                32.8083                41.1170

                     46                     47                     48
                      A                      A                      A
 Frequencies --   3060.7877              3072.6307              3076.9610
 Red. masses --      1.0876                 1.1015                 1.0943
 Frc consts  --      6.0031                 6.1270                 6.1043
 IR Inten    --     41.7013                31.7731                33.2169

                     49                     50                     51
                      A                      A                      A
 Frequencies --   3142.0280              3149.8538              3165.0598
 Red. masses --      1.0884                 1.0885                 1.0922
 Frc consts  --      6.3306                 6.3628                 6.4464
 IR Inten    --     15.5064                11.9616                35.8098

 - Thermochemistry -
 -------------------
 Temperature   298.150 Kelvin.  Pressure   1.00000 Atm.
 Atom     1 has atomic number  6 and mass  12.00000

 Molecular mass:   126.06808 amu.
 Principal axes and moments of inertia in atomic units:
                           1         2         3
     Eigenvalues --   805.67446 834.90322 957.08571
           X            0.74943  -0.66105   0.03688
           Y            0.66163   0.74570  -0.07860
           Z            0.02446   0.08331   0.99622
 This molecule is an asymmetric top.
 Rotational symmetry number  1.
 Warning -- assumption of classical behavior for rotation
           may cause significant error
 Rotational temperatures (Kelvin)      0.10750     0.10374     0.09050
 Rotational constants (GHZ):           2.24004     2.16162     1.88566
 Zero-point vibrational energy     428613.2 (Joules/Mol)
                                  102.44100 (Kcal/Mol)
 Warning -- explicit consideration of   8 degrees of freedom as
           vibrations may cause significant error
 Vibrational temperatures:    161.89   232.76   499.06   525.93   595.03
          (Kelvin)            725.66   758.56   867.28   990.49  1082.33
                             1108.83  1138.31  1251.89  1270.47  1292.79
                             1344.82  1374.69  1454.81  1484.02  1535.98
                             1547.27  1577.55  1582.09  1611.94  1623.22
                             1691.13  1750.86  1798.43  1824.27  1845.72
                             1880.28  1936.32  1950.44  1970.77  1983.13
                             2023.98  2041.92  2088.75  2142.95  2166.90
                             2176.50  4282.32  4298.88  4357.61  4393.64
                             4403.79  4420.82  4427.06  4520.67  4531.93
                             4553.81

 Zero-point correction=                           0.163250 (Hartree/Particle)
 Thermal correction to Energy=                    0.170021
 Thermal correction to Enthalpy=                  0.170965
 Thermal correction to Gibbs Free Energy=         0.132186
 Sum of electronic and zero-point Energies=           -423.014469
 Sum of electronic and thermal Energies=              -423.007698
 Sum of electronic and thermal Enthalpies=            -423.006754
 Sum of electronic and thermal Free Energies=         -423.045533

                     E (Thermal)             CV                S
                      KCal/Mol        Cal/Mol-Kelvin    Cal/Mol-Kelvin
 Total                  106.690             27.668             81.618
 Electronic               0.000              0.000              0.000
 Translational            0.889              2.981             40.409
 Rotational               0.889              2.981             27.956
 Vibrational            104.912             21.706             13.254
 Vibration     1          0.607              1.939              3.225
 Vibration     2          0.622              1.889              2.529
 Vibration     3          0.725              1.582              1.180
 Vibration     4          0.739              1.543              1.098
 Vibration     5          0.777              1.441              0.914
 Vibration     6          0.860              1.240              0.647
 Vibration     7          0.882              1.190              0.593
 Vibration     8          0.961              1.026              0.445

 Optimization completed.
    -- Stationary point found.
 Normal termination of Gaussian 09 at Mon Jan 27 13:15:32 2020.
