 Gaussian 09, Revision D.01,
 Gaussian 09:  ES64L-G09RevD.01 24-Apr-2013

 -----------------------------
 # b3lyp 6-31G(2df,p) opt Freq
 -----------------------------

 -----
 titel
 -----
 Symbolic Z-matrix:
 Charge =  0 Multiplicity = 1

 SCF Done:  E(RB3LYP) =  -423.156805711     A.U. after   13 cycles
 Optimization completed.
    -- Stationary point found.
 Normal termination of Gaussian 09 at Mon Jan 27 12:19:47 2020.

 ----------------------------------------------------------------------
 #N Geom=AllCheck Guess=TCheck SCRF=Check GenChk RB3LYP/6-31G(2df,p) Fr
 eq
 ----------------------------------------------------------------------

 Structure from the checkpoint file:  "/scratch/puck/g09_50d101fe-f3a3-4639-b49d-709d6820acb5/Gau-167202.chk"
 -----
 titel
 -----
 Charge =  0 Multiplicity = 1

                         Standard orientation:
 ---------------------------------------------------------------------
 Center     Atomic      Atomic             Coordinates (Angstroms)
 Number     Number       Type             X           Y           Z
 ---------------------------------------------------------------------
      1          6           0        2.262026   -0.633041   -0.032026
      2          8           0        2.158289    0.810470   -0.062949
      3          6           0        0.830726    0.774040    0.496396
      4          6           0        0.826930   -0.783078    0.496217
      5          6           0       -0.262276   -0.768765   -0.613385
      6          8           0       -1.540152   -1.206437   -0.198124
      7          6           0       -2.157713   -0.158680    0.543598
      8          6           0       -1.685990    1.145870   -0.118941
      9          6           0       -0.268044    0.803667   -0.593957
     10          1           0        2.468151   -1.059220   -1.023029
     11          1           0        3.043590   -0.959425    0.664940
     12          1           0        0.723845    1.425389    1.369714
     13          1           0        0.646750   -1.422961    1.358951
     14          1           0       -0.010535   -1.298918   -1.535737
     15          1           0       -3.238813   -0.313073    0.499345
     16          1           0       -1.851034   -0.195430    1.600807
     17          1           0       -2.318782    1.380911   -0.979799
     18          1           0       -1.714875    1.998763    0.565529
     19          1           0        0.032670    1.331611   -1.499545
 ---------------------------------------------------------------------

 SCF Done:  E(RB3LYP) =  -423.156805711     A.U. after    1 cycles

 The electronic state is 1-A.
 Alpha  occ. eigenvalues --  -19.14034 -19.13264 -10.23295 -10.23225 -10.23147
 Alpha  occ. eigenvalues --  -10.22928 -10.18915 -10.18825 -10.18692  -1.04502
 Alpha  occ. eigenvalues --   -1.03347  -0.82014  -0.76721  -0.70876  -0.66708
 Alpha  occ. eigenvalues --   -0.59910  -0.59072  -0.52857  -0.51486  -0.49742
 Alpha  occ. eigenvalues --   -0.48204  -0.45658  -0.44058  -0.41805  -0.41052
 Alpha  occ. eigenvalues --   -0.39876  -0.35970  -0.34282  -0.33960  -0.32100
 Alpha  occ. eigenvalues --   -0.31323  -0.28058  -0.25053  -0.24231
 Alpha virt. eigenvalues --    0.06339   0.09335   0.09645   0.10745   0.13042
 Alpha virt. eigenvalues --    0.13461   0.14063   0.14945   0.15316   0.16826
 Alpha virt. eigenvalues --    0.18121   0.19205   0.19566   0.20453   0.20797

 Mulliken charges:
               1
     1  C   -0.092048
     2  O   -0.292443
     3  C    0.111385
     4  C   -0.116414
     5  C    0.103879
     6  O   -0.257960
     7  C   -0.090296
     8  C   -0.243448
     9  C   -0.070809
    10  H    0.099761
    11  H    0.104484
    12  H    0.071963
    13  H    0.084261
    14  H    0.080817
    15  H    0.111565
    16  H    0.094224
    17  H    0.112200
    18  H    0.104244
    19  H    0.084634
 Sum of Mulliken charges =   0.00000

 Dipole moment (field-independent basis, Debye):
    X=             -0.7384    Y=              0.1183    Z=              0.6110  Tot=              0.9657
 Quadrupole moment (field-independent basis, Debye-Ang):
   XX=            -55.0538   YY=            -55.2421   ZZ=            -51.1469
   XY=             -7.0191   XZ=             -0.3901   YZ=              0.2154

  Exact polarizability:  86.038  -6.190  69.054  -1.474   1.046  66.120
 Approx polarizability: 111.989  -3.546 105.776  -2.594   2.690 100.954

                      1                      2                      3
                      A                      A                      A
 Frequencies --    100.4733               181.6174               255.8449
 Red. masses --      3.3348                 2.5006                 2.6972
 Frc consts  --      0.0198                 0.0486                 0.1040
 IR Inten    --      4.3298                 0.5321                 0.3461

                      4                      5                      6
                      A                      A                      A
 Frequencies --    283.5548               347.4954               412.7098
 Red. masses --      2.2364                 4.8525                 4.3523
 Frc consts  --      0.1059                 0.3452                 0.4368
 IR Inten    --      1.4308                 9.8181                 1.0948

                      7                      8                      9
                      A                      A                      A
 Frequencies --    593.4721               651.6403               781.8891
 Red. masses --      3.2268                 2.9358                 2.5637
 Frc consts  --      0.6696                 0.7345                 0.9234
 IR Inten    --      0.6190                 2.4234                 3.8432

                     10                     11                     12
                      A                      A                      A
 Frequencies --    820.8059               853.9683               861.7027
 Red. masses --      1.9960                 2.1786                 2.3431
 Frc consts  --      0.7923                 0.9361                 1.0251
 IR Inten    --     19.1047                 4.1225                10.7374

                     13                     14                     15
                      A                      A                      A
 Frequencies --    875.6888               897.1174               912.4330
 Red. masses --      2.0887                 3.9371                 2.6616
 Frc consts  --      0.9437                 1.8669                 1.3056
 IR Inten    --      2.7103                 1.9745                 8.0467

                     16                     17                     18
                      A                      A                      A
 Frequencies --    960.3582               972.1496               986.8558
 Red. masses --      2.2103                 2.4527                 2.8204
 Frc consts  --      1.2011                 1.3657                 1.6184
 IR Inten    --      2.8628                 7.7571                22.2590

                     19                     20                     21
                      A                      A                      A
 Frequencies --   1014.7926              1033.4738              1055.2351
 Red. masses --      3.5940                 2.3861                 2.1886
 Frc consts  --      2.1806                 1.5015                 1.4359
 IR Inten    --     76.8850                13.7340                 9.0069

                     22                     23                     24
                      A                      A                      A
 Frequencies --   1063.0315              1100.5074              1124.0681
 Red. masses --      1.9633                 2.0050                 4.4303
 Frc consts  --      1.3072                 1.4307                 3.2981
 IR Inten    --     20.0361                 2.8950                91.1787

                     25                     26                     27
                      A                      A                      A
 Frequencies --   1158.4044              1165.8024              1193.2623
 Red. masses --      1.2570                 1.7037                 1.5963
 Frc consts  --      0.9938                 1.3642                 1.3391
 IR Inten    --      7.9964                 0.6435                 5.2376

                     28                     29                     30
                      A                      A                      A
 Frequencies --   1222.8079              1225.0512              1243.3737
 Red. masses --      1.4545                 1.4641                 1.4666
 Frc consts  --      1.2814                 1.2946                 1.3359
 IR Inten    --      4.7508                 2.6002                 6.9132

                     31                     32                     33
                      A                      A                      A
 Frequencies --   1262.3589              1272.4326              1276.2942
 Red. masses --      1.5674                 1.3698                 1.5070
 Frc consts  --      1.4717                 1.3067                 1.4464
 IR Inten    --     10.3295                 1.7213                 3.1182

                     34                     35                     36
                      A                      A                      A
 Frequencies --   1303.8763              1332.3179              1349.8533
 Red. masses --      1.3812                 1.3845                 1.3717
 Frc consts  --      1.3835                 1.4480                 1.4726
 IR Inten    --      7.0840                 6.3684                 8.9537

                     37                     38                     39
                      A                      A                      A
 Frequencies --   1368.6327              1393.9938              1483.3195
 Red. masses --      1.4223                 1.3811                 1.0945
 Frc consts  --      1.5697                 1.5812                 1.4188
 IR Inten    --      0.5683                 6.8505                 3.0076

                     40                     41                     42
                      A                      A                      A
 Frequencies --   1522.2641              1523.9515              2980.2622
 Red. masses --      1.0931                 1.0975                 1.0717
 Frc consts  --      1.4924                 1.5018                 5.6083
 IR Inten    --      0.3836                 1.1458                51.3172

                     43                     44                     45
                      A                      A                      A
 Frequencies --   3006.2582              3049.7336              3053.3892
 Red. masses --      1.0556                 1.1095                 1.0657
 Frc consts  --      5.6208                 6.0801                 5.8538
 IR Inten    --     87.1507                33.1958                16.0632

                     46                     47                     48
                      A                      A                      A
 Frequencies --   3056.1074              3073.0682              3091.8881
 Red. masses --      1.0828                 1.0881                 1.0932
 Frc consts  --      5.9586                 6.0544                 6.1574
 IR Inten    --     63.9627                39.6344                28.5086

                     49                     50                     51
                      A                      A                      A
 Frequencies --   3101.9848              3110.8924              3123.9928
 Red. masses --      1.1016                 1.0911                 1.0906
 Frc consts  --      6.2455                 6.2214                 6.2710
 IR Inten    --     25.4309                30.7385                18.1754

 - Thermochemistry -
 -------------------
 Temperature   298.150 Kelvin.  Pressure   1.00000 Atm.
 Atom     1 has atomic number  6 and mass  12.00000

 Molecular mass:   126.06808 amu.
 Principal axes and moments of inertia in atomic units:
                           1         2         3
     Eigenvalues --   472.576201265.551921501.88773
           X            0.99885  -0.04751  -0.00667
           Y            0.04750   0.99887  -0.00224
           Z            0.00677   0.00192   0.99998
 This molecule is an asymmetric top.
 Rotational symmetry number  1.
 Warning -- assumption of classical behavior for rotation
           may cause significant error
 Rotational temperatures (Kelvin)      0.18328     0.06844     0.05767
 Rotational constants (GHZ):           3.81894     1.42605     1.20165
 Zero-point vibrational energy     425191.4 (Joules/Mol)
                                  101.62319 (Kcal/Mol)
 Warning -- explicit consideration of   7 degrees of freedom as
           vibrations may cause significant error
 Vibrational temperatures:    144.56   261.31   368.10   407.97   499.97
          (Kelvin)            593.80   853.87   937.56  1124.96  1180.96
                             1228.67  1239.80  1259.92  1290.75  1312.79
                             1381.74  1398.70  1419.86  1460.06  1486.94
                             1518.25  1529.46  1583.38  1617.28  1666.68
                             1677.33  1716.84  1759.35  1762.57  1788.94
                             1816.25  1830.74  1836.30  1875.98  1916.91
                             1942.14  1969.15  2005.64  2134.16  2190.20
                             2192.62  4287.93  4325.33  4387.88  4393.14
                             4397.05  4421.45  4448.53  4463.06  4475.87
                             4494.72

 Zero-point correction=                           0.161947 (Hartree/Particle)
 Thermal correction to Energy=                    0.168924
 Thermal correction to Enthalpy=                  0.169868
 Thermal correction to Gibbs Free Energy=         0.130439
 Sum of electronic and zero-point Energies=           -422.994859
 Sum of electronic and thermal Energies=              -422.987881
 Sum of electronic and thermal Enthalpies=            -422.986937
 Sum of electronic and thermal Free Energies=         -423.026367

                     E (Thermal)             CV                S
                      KCal/Mol        Cal/Mol-Kelvin    Cal/Mol-Kelvin
 Total                  106.002             27.833             82.987
 Electronic               0.000              0.000              0.000
 Translational            0.889              2.981             40.409
 Rotational               0.889              2.981             28.287
 Vibrational            104.224             21.871             14.291
 Vibration     1          0.604              1.949              3.445
 Vibration     2          0.630              1.865              2.312
 Vibration     3          0.666              1.753              1.690
 Vibration     4          0.682              1.704              1.512
 Vibration     5          0.725              1.580              1.178
 Vibration     6          0.776              1.443              0.917
 Vibration     7          0.951              1.046              0.461

 Optimization completed.
    -- Stationary point found.
 Normal termination of Gaussian 09 at Mon Jan 27 13:06:48 2020.
