 Gaussian 09, Revision D.01,
 Gaussian 09:  ES64L-G09RevD.01 24-Apr-2013

 -----------------------------
 # b3lyp 6-31G(2df,p) opt Freq
 -----------------------------

 -----
 titel
 -----
 Symbolic Z-matrix:
 Charge =  0 Multiplicity = 1

 SCF Done:  E(RB3LYP) =  -423.151849055     A.U. after   13 cycles
 Optimization completed.
    -- Stationary point found.
 Normal termination of Gaussian 09 at Mon Jan 27 16:34:36 2020.

 ----------------------------------------------------------------------
 #N Geom=AllCheck Guess=TCheck SCRF=Check GenChk RB3LYP/6-31G(2df,p) Fr
 eq
 ----------------------------------------------------------------------

 Structure from the checkpoint file:  "/scratch/puck/g09_ea11b841-752e-4fcd-98a3-0aa0f4668294/Gau-76844.chk"
 -----
 titel
 -----
 Charge =  0 Multiplicity = 1

                         Standard orientation:
 ---------------------------------------------------------------------
 Center     Atomic      Atomic             Coordinates (Angstroms)
 Number     Number       Type             X           Y           Z
 ---------------------------------------------------------------------
      1          8           0        0.147257    2.107648   -0.178312
      2          6           0       -0.176981    0.761772    0.093247
      3          6           0        0.973677    0.143571    0.866812
      4          6           0        2.165121   -0.099762   -0.036375
      5          8           0        2.699094   -1.170666   -0.180744
      6          6           0       -1.636464    0.494207    0.355806
      7          6           0       -1.918736   -0.970315    0.701072
      8          6           0       -1.222463   -1.412731   -0.629819
      9          6           0       -0.967280    0.059391   -0.975279
     10          1           0       -0.464301    2.448678   -0.839426
     11          1           0        1.264559    0.854646    1.651274
     12          1           0        0.696191   -0.800110    1.337780
     13          1           0        2.514277    0.798974   -0.589308
     14          1           0       -2.297129    1.331486    0.554764
     15          1           0       -1.495004   -1.343137    1.639073
     16          1           0       -2.986459   -1.199277    0.695748
     17          1           0       -0.333540   -2.044426   -0.543474
     18          1           0       -1.921029   -1.891345   -1.318748
     19          1           0       -1.049619    0.491860   -1.968018
 ---------------------------------------------------------------------

 SCF Done:  E(RB3LYP) =  -423.151849055     A.U. after    1 cycles

 The electronic state is 1-A.
 Alpha  occ. eigenvalues --  -19.15338 -19.13476 -10.26583 -10.25431 -10.19880
 Alpha  occ. eigenvalues --  -10.19689 -10.19296 -10.19199 -10.19187  -1.04283
 Alpha  occ. eigenvalues --   -1.03880  -0.89282  -0.76804  -0.71820  -0.66348
 Alpha  occ. eigenvalues --   -0.59855  -0.56847  -0.54544  -0.52533  -0.49235
 Alpha  occ. eigenvalues --   -0.46328  -0.45234  -0.44024  -0.42921  -0.38879
 Alpha  occ. eigenvalues --   -0.38302  -0.37230  -0.36760  -0.35331  -0.34462
 Alpha  occ. eigenvalues --   -0.33297  -0.26709  -0.25931  -0.23319
 Alpha virt. eigenvalues --   -0.01679   0.06771   0.08658   0.09438   0.10165
 Alpha virt. eigenvalues --    0.12787   0.14799   0.15170   0.15954   0.16401
 Alpha virt. eigenvalues --    0.16597   0.18294   0.20198   0.21579   0.22882

 Mulliken charges:
               1
     1  O   -0.488059
     2  C    0.446915
     3  C   -0.342740
     4  C    0.166135
     5  O   -0.247459
     6  C   -0.141022
     7  C   -0.241520
     8  C   -0.246320
     9  C   -0.146159
    10  H    0.284984
    11  H    0.128723
    12  H    0.124348
    13  H    0.090945
    14  H    0.086155
    15  H    0.103629
    16  H    0.109584
    17  H    0.120103
    18  H    0.109908
    19  H    0.081850
 Sum of Mulliken charges =   0.00000

 Dipole moment (field-independent basis, Debye):
    X=             -2.8951    Y=              1.3737    Z=             -0.2763  Tot=              3.2163
 Quadrupole moment (field-independent basis, Debye-Ang):
   XX=            -57.4605   YY=            -55.1656   ZZ=            -50.9165
   XY=              3.4825   XZ=              2.4530   YZ=             -2.7677

  Exact polarizability:  81.199   0.582  77.958  -2.115  -0.804  66.839
 Approx polarizability: 110.614  -4.213 119.541  -3.816   1.052 103.538

                      1                      2                      3
                      A                      A                      A
 Frequencies --     36.9431                66.4007               162.7389
 Red. masses --      5.7892                 3.2126                 2.4897
 Frc consts  --      0.0047                 0.0083                 0.0388
 IR Inten    --      5.6117                 3.2389                 2.6536

                      4                      5                      6
                      A                      A                      A
 Frequencies --    174.5490               240.2357               248.6738
 Red. masses --      1.0627                 2.8564                 2.7785
 Frc consts  --      0.0191                 0.0971                 0.1012
 IR Inten    --     71.9692                 2.3304                 4.5547

                      7                      8                      9
                      A                      A                      A
 Frequencies --    315.1008               389.4739               453.2714
 Red. masses --      2.7727                 3.4516                 2.7533
 Frc consts  --      0.1622                 0.3085                 0.3333
 IR Inten    --      1.2739                11.6192                 4.3862

                     10                     11                     12
                      A                      A                      A
 Frequencies --    480.7133               513.3569               670.7181
 Red. masses --      2.9789                 3.6452                 2.5681
 Frc consts  --      0.4056                 0.5660                 0.6807
 IR Inten    --      1.9195                17.8828                 3.6388

                     13                     14                     15
                      A                      A                      A
 Frequencies --    718.4836               784.0914               824.3548
 Red. masses --      3.7903                 1.2227                 1.6065
 Frc consts  --      1.1528                 0.4429                 0.6432
 IR Inten    --      1.7388                 4.1163                 1.8690

                     16                     17                     18
                      A                      A                      A
 Frequencies --    861.4556               890.8677               925.4549
 Red. masses --      1.6803                 2.8334                 2.1748
 Frc consts  --      0.7347                 1.3249                 1.0975
 IR Inten    --     12.4378                 3.8381                 6.2343

                     19                     20                     21
                      A                      A                      A
 Frequencies --    971.5921               977.4322               996.4758
 Red. masses --      2.5801                 1.6481                 1.4731
 Frc consts  --      1.4350                 0.9277                 0.8618
 IR Inten    --      5.6100                 1.0789                 2.4675

                     22                     23                     24
                      A                      A                      A
 Frequencies --   1020.7031              1029.1990              1079.0227
 Red. masses --      2.0081                 2.2740                 2.4254
 Frc consts  --      1.2326                 1.4192                 1.6638
 IR Inten    --     17.8377                 2.9905                14.5859

                     25                     26                     27
                      A                      A                      A
 Frequencies --   1101.6724              1116.1903              1150.1553
 Red. masses --      2.3885                 1.8187                 1.5062
 Frc consts  --      1.7079                 1.3350                 1.1740
 IR Inten    --      4.3859                24.0913                12.2662

                     28                     29                     30
                      A                      A                      A
 Frequencies --   1187.4082              1221.8015              1231.9244
 Red. masses --      1.6085                 1.2256                 1.4297
 Frc consts  --      1.3362                 1.0779                 1.2784
 IR Inten    --     81.2223                 2.6572                16.8562

                     31                     32                     33
                      A                      A                      A
 Frequencies --   1256.8345              1272.7529              1286.2799
 Red. masses --      1.3942                 1.6060                 1.6162
 Frc consts  --      1.2976                 1.5328                 1.5755
 IR Inten    --      0.8985                22.9006                 3.0353

                     34                     35                     36
                      A                      A                      A
 Frequencies --   1298.1498              1356.6247              1419.4143
 Red. masses --      1.4733                 1.8701                 1.2053
 Frc consts  --      1.4628                 2.0279                 1.4308
 IR Inten    --      4.8458                 4.2690                 3.9042

                     37                     38                     39
                      A                      A                      A
 Frequencies --   1449.4913              1460.8977              1485.5896
 Red. masses --      1.3611                 1.9667                 1.0825
 Frc consts  --      1.6849                 2.4730                 1.4076
 IR Inten    --     25.5795                45.7439                 1.2138

                     40                     41                     42
                      A                      A                      A
 Frequencies --   1507.7495              1827.9729              2903.7042
 Red. masses --      1.1367                 9.8654                 1.0835
 Frc consts  --      1.5225                19.4224                 5.3827
 IR Inten    --      7.6217               158.0746                84.4991

                     43                     44                     45
                      A                      A                      A
 Frequencies --   3032.8651              3049.5470              3061.4192
 Red. masses --      1.0663                 1.0615                 1.0612
 Frc consts  --      5.7789                 5.8163                 5.8599
 IR Inten    --      8.8873                40.9935                34.0873

                     46                     47                     48
                      A                      A                      A
 Frequencies --   3099.7197              3118.8084              3131.4696
 Red. masses --      1.1047                 1.1045                 1.0950
 Frc consts  --      6.2537                 6.3297                 6.3262
 IR Inten    --      3.1450                37.5386                 6.2727

                     49                     50                     51
                      A                      A                      A
 Frequencies --   3148.8714              3167.7700              3813.8999
 Red. masses --      1.0895                 1.0943                 1.0659
 Frc consts  --      6.3650                 6.4699                 9.1345
 IR Inten    --     20.5929                18.4941                19.7846

 - Thermochemistry -
 -------------------
 Temperature   298.150 Kelvin.  Pressure   1.00000 Atm.
 Atom     1 has atomic number  8 and mass  15.99491

 Molecular mass:   126.06808 amu.
 Principal axes and moments of inertia in atomic units:
                           1         2         3
     Eigenvalues --   743.307721319.233601714.04291
           X            0.99885   0.04797   0.00273
           Y           -0.04792   0.99872  -0.01638
           Z           -0.00351   0.01623   0.99986
 This molecule is an asymmetric top.
 Rotational symmetry number  1.
 Warning -- assumption of classical behavior for rotation
           may cause significant error
 Rotational temperatures (Kelvin)      0.11652     0.06565     0.05053
 Rotational constants (GHZ):           2.42799     1.36802     1.05291
 Zero-point vibrational energy     412653.6 (Joules/Mol)
                                   98.62657 (Kcal/Mol)
 Warning -- explicit consideration of  11 degrees of freedom as
           vibrations may cause significant error
 Vibrational temperatures:     53.15    95.54   234.14   251.14   345.65
          (Kelvin)            357.79   453.36   560.37   652.16   691.64
                              738.61   965.01  1033.74  1128.13  1186.06
                             1239.44  1281.76  1331.52  1397.90  1406.31
                             1433.70  1468.56  1480.79  1552.47  1585.06
                             1605.95  1654.81  1708.41  1757.90  1772.46
                             1808.30  1831.21  1850.67  1867.75  1951.88
                             2042.22  2085.49  2101.90  2137.43  2169.31
                             2630.04  4177.78  4363.61  4387.61  4404.69
                             4459.80  4487.26  4505.48  4530.52  4557.71
                             5487.34

 Zero-point correction=                           0.157171 (Hartree/Particle)
 Thermal correction to Energy=                    0.166284
 Thermal correction to Enthalpy=                  0.167228
 Thermal correction to Gibbs Free Energy=         0.122373
 Sum of electronic and zero-point Energies=           -422.994678
 Sum of electronic and thermal Energies=              -422.985565
 Sum of electronic and thermal Enthalpies=            -422.984621
 Sum of electronic and thermal Free Energies=         -423.029476

                     E (Thermal)             CV                S
                      KCal/Mol        Cal/Mol-Kelvin    Cal/Mol-Kelvin
 Total                  104.345             33.503             94.405
 Electronic               0.000              0.000              0.000
 Translational            0.889              2.981             40.409
 Rotational               0.889              2.981             28.910
 Vibrational            102.567             27.541             25.087
 Vibration     1          0.594              1.982              5.417
 Vibration     2          0.598              1.970              4.257
 Vibration     3          0.623              1.888              2.518
 Vibration     4          0.627              1.874              2.386
 Vibration     5          0.657              1.779              1.801
 Vibration     6          0.662              1.765              1.740
 Vibration     7          0.702              1.645              1.335
 Vibration     8          0.757              1.493              1.002
 Vibration     9          0.812              1.354              0.786
 Vibration    10          0.837              1.293              0.708
 Vibration    11          0.868              1.220              0.626

 Optimization completed.
    -- Stationary point found.
 Normal termination of Gaussian 09 at Mon Jan 27 17:26:30 2020.
