 Gaussian 09, Revision D.01,
 Gaussian 09:  ES64L-G09RevD.01 24-Apr-2013

 -----------------------------
 # b3lyp 6-31G(2df,p) opt Freq
 -----------------------------

 -----
 titel
 -----
 Symbolic Z-matrix:
 Charge =  0 Multiplicity = 1

 SCF Done:  E(RB3LYP) =  -423.175552897     A.U. after   14 cycles
 Optimization completed.
    -- Stationary point found.
 Normal termination of Gaussian 09 at Tue Jan 28 12:36:57 2020.

 ----------------------------------------------------------------------
 #N Geom=AllCheck Guess=TCheck SCRF=Check GenChk RB3LYP/6-31G(2df,p) Fr
 eq
 ----------------------------------------------------------------------

 Structure from the checkpoint file:  "/scratch/puck/g09_f746001e-c564-429a-9688-4d5268ef70a9/Gau-142042.chk"
 -----
 titel
 -----
 Charge =  0 Multiplicity = 1

                         Standard orientation:
 ---------------------------------------------------------------------
 Center     Atomic      Atomic             Coordinates (Angstroms)
 Number     Number       Type             X           Y           Z
 ---------------------------------------------------------------------
      1          6           0        2.268841   -1.155174   -0.708107
      2          6           0        1.206970   -0.331855   -0.038581
      3          6           0        1.389073    0.350386    1.271908
      4          6           0        1.106299    1.223017    0.047062
      5          6           0       -0.352518    1.117016   -0.258998
      6          8           0       -1.247834    1.902159   -0.436856
      7          6           0       -0.300345   -0.422272   -0.377079
      8          6           0       -1.315821   -1.215608    0.442233
      9          8           0       -2.629914   -0.908578    0.012347
     10          1           0        2.142764   -1.158024   -1.796110
     11          1           0        3.268422   -0.770046   -0.482898
     12          1           0        2.232451   -2.196167   -0.366652
     13          1           0        0.658161    0.275467    2.070673
     14          1           0        2.413362    0.428376    1.624536
     15          1           0        1.796022    2.000140   -0.258717
     16          1           0       -0.438777   -0.668185   -1.438134
     17          1           0       -1.181316   -2.293770    0.299817
     18          1           0       -1.187220   -1.013049    1.517509
     19          1           0       -2.696883    0.053548   -0.044574
 ---------------------------------------------------------------------

 SCF Done:  E(RB3LYP) =  -423.175552897     A.U. after    1 cycles

 The electronic state is 1-A.
 Alpha  occ. eigenvalues --  -19.13970 -19.12833 -10.27422 -10.23152 -10.22600
 Alpha  occ. eigenvalues --  -10.21359 -10.21027 -10.19988 -10.19712  -1.04839
 Alpha  occ. eigenvalues --   -1.01088  -0.91749  -0.75540  -0.74046  -0.67929
 Alpha  occ. eigenvalues --   -0.62138  -0.56813  -0.54089  -0.50395  -0.48744
 Alpha  occ. eigenvalues --   -0.47192  -0.44972  -0.43179  -0.42545  -0.41612
 Alpha  occ. eigenvalues --   -0.40200  -0.39435  -0.37681  -0.37248  -0.32888
 Alpha  occ. eigenvalues --   -0.31209  -0.28516  -0.26008  -0.24544
 Alpha virt. eigenvalues --   -0.01993   0.07206   0.09799   0.10165   0.11084
 Alpha virt. eigenvalues --    0.11760   0.13318   0.14330   0.14567   0.15829
 Alpha virt. eigenvalues --    0.16790   0.17866   0.19591   0.20633   0.22120

 Mulliken charges:
               1
     1  C   -0.497464
     2  C    0.325904
     3  C   -0.330500
     4  C   -0.226747
     5  C    0.425505
     6  O   -0.342932
     7  C   -0.195767
     8  C   -0.087199
     9  O   -0.422587
    10  H    0.127401
    11  H    0.124942
    12  H    0.131529
    13  H    0.127644
    14  H    0.126612
    15  H    0.111910
    16  H    0.109396
    17  H    0.108226
    18  H    0.086399
    19  H    0.297726
 Sum of Mulliken charges =   0.00000

 Dipole moment (field-independent basis, Debye):
    X=              3.8618    Y=             -1.0235    Z=              0.5844  Tot=              4.0376
 Quadrupole moment (field-independent basis, Debye-Ang):
   XX=            -57.0185   YY=            -57.5262   ZZ=            -51.6899
   XY=              0.0937   XZ=             -0.9543   YZ=              1.0393

  Exact polarizability:  86.107  -3.006  77.164   3.424   0.214  65.252
 Approx polarizability: 121.246  -9.363 119.208   8.320  -1.690 100.369

                      1                      2                      3
                      A                      A                      A
 Frequencies --    101.5025               105.6416               144.0028
 Red. masses --      4.4186                 5.0038                 3.1497
 Frc consts  --      0.0268                 0.0329                 0.0385
 IR Inten    --      2.7382                 4.6853                 1.1024

                      4                      5                      6
                      A                      A                      A
 Frequencies --    208.3420               233.0057               259.4890
 Red. masses --      1.0895                 2.6647                 2.7643
 Frc consts  --      0.0279                 0.0852                 0.1097
 IR Inten    --      0.2307                 2.5351                 1.0905

                      7                      8                      9
                      A                      A                      A
 Frequencies --    341.6536               393.4792               447.1608
 Red. masses --      2.6064                 4.3362                 1.1082
 Frc consts  --      0.1793                 0.3955                 0.1306
 IR Inten    --      0.2962                 5.0065               110.8968

                     10                     11                     12
                      A                      A                      A
 Frequencies --    483.6140               494.1749               585.6744
 Red. masses --      2.8872                 3.0874                 5.1017
 Frc consts  --      0.3979                 0.4442                 1.0311
 IR Inten    --      3.9943                 1.5675                 1.6788

                     13                     14                     15
                      A                      A                      A
 Frequencies --    650.1702               735.6883               768.4536
 Red. masses --      3.5931                 2.9923                 3.2734
 Frc consts  --      0.8949                 0.9542                 1.1389
 IR Inten    --      2.2942                 9.9933                 6.3354

                     16                     17                     18
                      A                      A                      A
 Frequencies --    810.2201               905.2066               944.3406
 Red. masses --      2.8409                 1.3902                 1.8826
 Frc consts  --      1.0988                 0.6712                 0.9892
 IR Inten    --     16.4502                22.9547                 7.4020

                     19                     20                     21
                      A                      A                      A
 Frequencies --    980.6199               990.1347              1014.6178
 Red. masses --      1.4037                 1.4415                 1.8377
 Frc consts  --      0.7953                 0.8327                 1.1146
 IR Inten    --      8.1998                 2.5018                10.3627

                     22                     23                     24
                      A                      A                      A
 Frequencies --   1060.6722              1068.1373              1081.6057
 Red. masses --      1.7284                 3.6432                 1.7502
 Frc consts  --      1.1456                 2.4490                 1.2064
 IR Inten    --      2.8563               110.7401                 8.7154

                     25                     26                     27
                      A                      A                      A
 Frequencies --   1102.6746              1110.6486              1145.9267
 Red. masses --      1.8562                 2.0543                 2.5373
 Frc consts  --      1.3298                 1.4930                 1.9631
 IR Inten    --      9.1467                 0.7774                18.3555

                     28                     29                     30
                      A                      A                      A
 Frequencies --   1162.2750              1209.9149              1246.6444
 Red. masses --      1.3744                 1.4069                 1.8718
 Frc consts  --      1.0939                 1.2135                 1.7140
 IR Inten    --      2.4271                 6.9682                15.1506

                     31                     32                     33
                      A                      A                      A
 Frequencies --   1278.2459              1323.6402              1372.2894
 Red. masses --      2.4441                 1.6021                 1.4662
 Frc consts  --      2.3528                 1.6538                 1.6268
 IR Inten    --      6.4519                 8.6624                 7.7038

                     34                     35                     36
                      A                      A                      A
 Frequencies --   1400.3228              1425.6099              1445.1418
 Red. masses --      1.5273                 1.5400                 1.2683
 Frc consts  --      1.7645                 1.8440                 1.5606
 IR Inten    --      2.9602                 1.7284                81.7967

                     37                     38                     39
                      A                      A                      A
 Frequencies --   1485.2889              1497.0465              1502.6517
 Red. masses --      1.0467                 1.0562                 1.2635
 Frc consts  --      1.3605                 1.3946                 1.6809
 IR Inten    --      4.1935                 5.6668                 4.3943

                     40                     41                     42
                      A                      A                      A
 Frequencies --   1519.8067              1858.1644              2974.2740
 Red. masses --      1.1007                12.2061                 1.0698
 Frc consts  --      1.4980                24.8311                 5.5760
 IR Inten    --      1.8346               324.1208                48.5227

                     43                     44                     45
                      A                      A                      A
 Frequencies --   3027.4749              3035.1287              3059.5666
 Red. masses --      1.0363                 1.0810                 1.0932
 Frc consts  --      5.5961                 5.8671                 6.0291
 IR Inten    --     26.6110                14.5234                37.4139

                     46                     47                     48
                      A                      A                      A
 Frequencies --   3088.5872              3102.7927              3122.8930
 Red. masses --      1.1003                 1.1012                 1.0545
 Frc consts  --      6.1841                 6.2462                 6.0591
 IR Inten    --     17.7792                17.7102                15.6764

                     49                     50                     51
                      A                      A                      A
 Frequencies --   3193.6599              3204.4975              3765.5077
 Red. masses --      1.0970                 1.1132                 1.0666
 Frc consts  --      6.5921                 6.7349                 8.9101
 IR Inten    --      3.8860                 8.6307                37.7517

 - Thermochemistry -
 -------------------
 Temperature   298.150 Kelvin.  Pressure   1.00000 Atm.
 Atom     1 has atomic number  6 and mass  12.00000

 Molecular mass:   126.06808 amu.
 Principal axes and moments of inertia in atomic units:
                           1         2         3
     Eigenvalues --   745.839901301.344781701.12495
           X            0.99991  -0.00803  -0.01038
           Y            0.00828   0.99968   0.02395
           Z            0.01018  -0.02403   0.99966
 This molecule is an asymmetric top.
 Rotational symmetry number  1.
 Warning -- assumption of classical behavior for rotation
           may cause significant error
 Rotational temperatures (Kelvin)      0.11613     0.06656     0.05092
 Rotational constants (GHZ):           2.41974     1.38683     1.06091
 Zero-point vibrational energy     415512.6 (Joules/Mol)
                                   99.30989 (Kcal/Mol)
 Warning -- explicit consideration of  12 degrees of freedom as
           vibrations may cause significant error
 Vibrational temperatures:    146.04   151.99   207.19   299.76   335.24
          (Kelvin)            373.35   491.56   566.13   643.36   695.81
                              711.01   842.65   935.45  1058.49  1105.63
                             1165.72  1302.39  1358.69  1410.89  1424.58
                             1459.81  1526.07  1536.81  1556.19  1586.50
                             1597.97  1648.73  1672.25  1740.80  1793.64
                             1839.11  1904.42  1974.42  2014.75  2051.13
                             2079.23  2137.00  2153.91  2161.98  2186.66
                             2673.48  4279.31  4355.86  4366.87  4402.03
                             4443.78  4464.22  4493.14  4594.96  4610.55
                             5417.72

 Zero-point correction=                           0.158260 (Hartree/Particle)
 Thermal correction to Energy=                    0.167203
 Thermal correction to Enthalpy=                  0.168147
 Thermal correction to Gibbs Free Energy=         0.124655
 Sum of electronic and zero-point Energies=           -423.017293
 Sum of electronic and thermal Energies=              -423.008350
 Sum of electronic and thermal Enthalpies=            -423.007406
 Sum of electronic and thermal Free Energies=         -423.050898

                     E (Thermal)             CV                S
                      KCal/Mol        Cal/Mol-Kelvin    Cal/Mol-Kelvin
 Total                  104.921             33.639             91.537
 Electronic               0.000              0.000              0.000
 Translational            0.889              2.981             40.409
 Rotational               0.889              2.981             28.892
 Vibrational            103.144             27.677             22.237
 Vibration     1          0.604              1.948              3.425
 Vibration     2          0.605              1.945              3.347
 Vibration     3          0.616              1.909              2.750
 Vibration     4          0.642              1.828              2.058
 Vibration     5          0.654              1.790              1.856
 Vibration     6          0.668              1.747              1.665
 Vibration     7          0.721              1.592              1.204
 Vibration     8          0.761              1.484              0.987
 Vibration     9          0.806              1.367              0.804
 Vibration    10          0.840              1.286              0.700
 Vibration    11          0.850              1.263              0.673
 Vibration    12          0.943              1.062              0.475

 Optimization completed.
    -- Stationary point found.
 Normal termination of Gaussian 09 at Tue Jan 28 13:18:38 2020.
