 Gaussian 09, Revision D.01,
 Gaussian 09:  ES64L-G09RevD.01 24-Apr-2013

 -----------------------------
 # b3lyp 6-31G(2df,p) opt Freq
 -----------------------------

 -----
 titel
 -----
 Symbolic Z-matrix:
 Charge =  0 Multiplicity = 1

 SCF Done:  E(RB3LYP) =  -423.153045088     A.U. after   13 cycles
 Optimization completed.
    -- Stationary point found.
 Normal termination of Gaussian 09 at Mon Jan 27 22:51:11 2020.

 ----------------------------------------------------------------------
 #N Geom=AllCheck Guess=TCheck SCRF=Check GenChk RB3LYP/6-31G(2df,p) Fr
 eq
 ----------------------------------------------------------------------

 Structure from the checkpoint file:  "/scratch/puck/g09_a1396dd5-b0bb-45b1-bbac-5c0e9582673c/Gau-191420.chk"
 -----
 titel
 -----
 Charge =  0 Multiplicity = 1

                         Standard orientation:
 ---------------------------------------------------------------------
 Center     Atomic      Atomic             Coordinates (Angstroms)
 Number     Number       Type             X           Y           Z
 ---------------------------------------------------------------------
      1          6           0        0.696094    2.248521   -0.526966
      2          6           0        0.373400    0.858303   -0.073028
      3          6           0        1.059098    0.020610    0.944314
      4          8           0        1.466790   -1.244222    0.462761
      5          6           0        0.944602   -1.358290   -0.868465
      6          6           0       -0.183968   -0.332138   -0.918977
      7          6           0       -1.225253   -0.605967    0.218666
      8          8           0       -2.488923   -0.016958   -0.021676
      9          6           0       -0.422635    0.308898    1.126737
     10          1           0        1.486126    2.247147   -1.287661
     11          1           0       -0.183234    2.741432   -0.956012
     12          1           0        1.045536    2.862493    0.309746
     13          1           0        1.751549    0.449150    1.659703
     14          1           0        1.730391   -1.139600   -1.607722
     15          1           0        0.603632   -2.389420   -1.014009
     16          1           0       -0.603852   -0.128576   -1.904329
     17          1           0       -1.331733   -1.657079    0.528557
     18          1           0       -2.952193   -0.565176   -0.663419
     19          1           0       -0.817189    0.829439    1.992784
 ---------------------------------------------------------------------

 SCF Done:  E(RB3LYP) =  -423.153045088     A.U. after    1 cycles

 The electronic state is 1-A.
 Alpha  occ. eigenvalues --  -19.13681 -19.13548 -10.23325 -10.23041 -10.22619
 Alpha  occ. eigenvalues --  -10.19528 -10.19002 -10.18390 -10.18189  -1.04033
 Alpha  occ. eigenvalues --   -1.01853  -0.88000  -0.75483  -0.72581  -0.65908
 Alpha  occ. eigenvalues --   -0.62189  -0.56897  -0.52699  -0.52182  -0.48485
 Alpha  occ. eigenvalues --   -0.46490  -0.44175  -0.43096  -0.41280  -0.40752
 Alpha  occ. eigenvalues --   -0.40257  -0.38131  -0.34037  -0.33470  -0.32870
 Alpha  occ. eigenvalues --   -0.30086  -0.27503  -0.24776  -0.22663
 Alpha virt. eigenvalues --    0.07580   0.09739   0.11211   0.11501   0.12463
 Alpha virt. eigenvalues --    0.13315   0.14353   0.15056   0.16129   0.17010
 Alpha virt. eigenvalues --    0.17744   0.18090   0.19918   0.20898   0.22420

 Mulliken charges:
               1
     1  C   -0.522186
     2  C    0.305136
     3  C    0.053247
     4  O   -0.274430
     5  C   -0.093151
     6  C   -0.169552
     7  C    0.141722
     8  O   -0.446195
     9  C   -0.161397
    10  H    0.119912
    11  H    0.127546
    12  H    0.121758
    13  H    0.102291
    14  H    0.093086
    15  H    0.103077
    16  H    0.070322
    17  H    0.063227
    18  H    0.279393
    19  H    0.086195
 Sum of Mulliken charges =   0.00000

 Dipole moment (field-independent basis, Debye):
    X=             -0.3991    Y=              0.1838    Z=             -1.5489  Tot=              1.6100
 Quadrupole moment (field-independent basis, Debye-Ang):
   XX=            -54.8703   YY=            -52.7757   ZZ=            -50.3756
   XY=              5.8997   XZ=              2.1559   YZ=              3.3884

  Exact polarizability:  75.780   2.211  76.270  -0.437   2.995  71.512
 Approx polarizability: 109.315  -0.290 107.023   0.340   2.414 109.705

                      1                      2                      3
                      A                      A                      A
 Frequencies --    127.4530               193.5850               233.1285
 Red. masses --      3.7334                 1.0362                 2.8737
 Frc consts  --      0.0357                 0.0229                 0.0920
 IR Inten    --      1.3041                 0.2887                 0.1695

                      4                      5                      6
                      A                      A                      A
 Frequencies --    242.0815               291.4039               314.1153
 Red. masses --      2.8262                 1.2428                 2.1830
 Frc consts  --      0.0976                 0.0622                 0.1269
 IR Inten    --      1.4758                71.5143                24.3226

                      7                      8                      9
                      A                      A                      A
 Frequencies --    339.2813               415.0793               555.5452
 Red. masses --      3.1935                 4.1970                 3.8552
 Frc consts  --      0.2166                 0.4260                 0.7010
 IR Inten    --      6.1071                 6.9703                 8.6067

                     10                     11                     12
                      A                      A                      A
 Frequencies --    588.6494               672.5804               743.8360
 Red. masses --      3.4213                 3.7679                 6.0152
 Frc consts  --      0.6985                 1.0042                 1.9609
 IR Inten    --      3.7541                 5.6016                16.8884

                     13                     14                     15
                      A                      A                      A
 Frequencies --    776.4974               852.4709               874.3841
 Red. masses --      3.0904                 2.7917                 1.9789
 Frc consts  --      1.0979                 1.1953                 0.8914
 IR Inten    --      2.0037                 2.8923                25.8947

                     16                     17                     18
                      A                      A                      A
 Frequencies --    897.8463               927.5916               965.4159
 Red. masses --      2.7982                 2.3976                 1.6493
 Frc consts  --      1.3290                 1.2155                 0.9057
 IR Inten    --      3.7104                10.8510                 1.7841

                     19                     20                     21
                      A                      A                      A
 Frequencies --    981.3229              1014.5416              1024.4915
 Red. masses --      1.9486                 1.6914                 1.7172
 Frc consts  --      1.1056                 1.0257                 1.0619
 IR Inten    --      9.0054                10.4491                30.0193

                     22                     23                     24
                      A                      A                      A
 Frequencies --   1032.5295              1058.3159              1096.5786
 Red. masses --      1.6677                 1.8584                 5.2921
 Frc consts  --      1.0476                 1.2263                 3.7494
 IR Inten    --      5.3444                18.5416                72.2066

                     25                     26                     27
                      A                      A                      A
 Frequencies --   1117.1987              1129.9291              1171.2625
 Red. masses --      2.5512                 2.2228                 1.7366
 Frc consts  --      1.8761                 1.6721                 1.4037
 IR Inten    --     26.1392                11.1329                14.9866

                     28                     29                     30
                      A                      A                      A
 Frequencies --   1199.3482              1214.3829              1217.5440
 Red. masses --      1.3964                 1.7456                 1.4396
 Frc consts  --      1.1834                 1.5168                 1.2574
 IR Inten    --     28.1435                17.2301                15.8249

                     31                     32                     33
                      A                      A                      A
 Frequencies --   1247.1907              1274.1234              1301.0793
 Red. masses --      1.6786                 1.7728                 1.3587
 Frc consts  --      1.5384                 1.6956                 1.3551
 IR Inten    --      6.6289                 7.9959                 6.9852

                     34                     35                     36
                      A                      A                      A
 Frequencies --   1327.8285              1369.8857              1413.4428
 Red. masses --      1.4639                 1.4361                 1.2387
 Frc consts  --      1.5207                 1.5878                 1.4580
 IR Inten    --     39.2288                 1.1099                 0.5398

                     37                     38                     39
                      A                      A                      A
 Frequencies --   1429.6920              1465.4626              1486.0231
 Red. masses --      1.5812                 3.1226                 1.0826
 Frc consts  --      1.9043                 3.9511                 1.4085
 IR Inten    --     17.0650                10.5261                 6.5889

                     40                     41                     42
                      A                      A                      A
 Frequencies --   1498.4432              1514.5206              2976.6973
 Red. masses --      1.0771                 1.1084                 1.0836
 Frc consts  --      1.4250                 1.4980                 5.6571
 IR Inten    --      3.4311                 1.0134                82.3682

                     43                     44                     45
                      A                      A                      A
 Frequencies --   2985.4492              3021.6267              3062.6515
 Red. masses --      1.0680                 1.0358                 1.0959
 Frc consts  --      5.6082                 5.5721                 6.0565
 IR Inten    --     74.2557                37.2031                40.0387

                     46                     47                     48
                      A                      A                      A
 Frequencies --   3082.5487              3095.2163              3116.2586
 Red. masses --      1.1002                 1.1005                 1.0893
 Frc consts  --      6.1594                 6.2121                 6.2327
 IR Inten    --     21.9558                17.4745                23.7484

                     49                     50                     51
                      A                      A                      A
 Frequencies --   3170.9826              3187.4226              3810.5576
 Red. masses --      1.0913                 1.0928                 1.0661
 Frc consts  --      6.4653                 6.5413                 9.1206
 IR Inten    --     10.8840                19.1500                16.3043

 - Thermochemistry -
 -------------------
 Temperature   298.150 Kelvin.  Pressure   1.00000 Atm.
 Atom     1 has atomic number  6 and mass  12.00000

 Molecular mass:   126.06808 amu.
 Principal axes and moments of inertia in atomic units:
                           1         2         3
     Eigenvalues --   801.15763 992.270611294.16705
           X            0.99256   0.12155  -0.00733
           Y           -0.12139   0.99242   0.01912
           Z            0.00960  -0.01809   0.99979
 This molecule is an asymmetric top.
 Rotational symmetry number  1.
 Warning -- assumption of classical behavior for rotation
           may cause significant error
 Rotational temperatures (Kelvin)      0.10811     0.08729     0.06693
 Rotational constants (GHZ):           2.25267     1.81880     1.39452
 Zero-point vibrational energy     419324.0 (Joules/Mol)
                                  100.22083 (Kcal/Mol)
 Warning -- explicit consideration of  10 degrees of freedom as
           vibrations may cause significant error
 Vibrational temperatures:    183.38   278.53   335.42   348.30   419.26
          (Kelvin)            451.94   488.15   597.21   799.30   846.93
                              967.69  1070.21  1117.21  1226.51  1258.04
                             1291.80  1334.60  1389.02  1411.90  1459.70
                             1474.01  1485.58  1522.68  1577.73  1607.40
                             1625.71  1685.18  1725.59  1747.22  1751.77
                             1794.43  1833.18  1871.96  1910.45  1970.96
                             2033.63  2057.01  2108.47  2138.05  2155.92
                             2179.05  4282.80  4295.39  4347.44  4406.47
                             4435.09  4453.32  4483.60  4562.33  4585.98
                             5482.54

 Zero-point correction=                           0.159712 (Hartree/Particle)
 Thermal correction to Energy=                    0.167634
 Thermal correction to Enthalpy=                  0.168578
 Thermal correction to Gibbs Free Energy=         0.127672
 Sum of electronic and zero-point Energies=           -422.993333
 Sum of electronic and thermal Energies=              -422.985411
 Sum of electronic and thermal Enthalpies=            -422.984467
 Sum of electronic and thermal Free Energies=         -423.025373

                     E (Thermal)             CV                S
                      KCal/Mol        Cal/Mol-Kelvin    Cal/Mol-Kelvin
 Total                  105.192             31.303             86.095
 Electronic               0.000              0.000              0.000
 Translational            0.889              2.981             40.409
 Rotational               0.889              2.981             28.422
 Vibrational            103.415             25.342             17.265
 Vibration     1          0.611              1.926              2.984
 Vibration     2          0.635              1.849              2.193
 Vibration     3          0.654              1.790              1.855
 Vibration     4          0.658              1.776              1.788
 Vibration     5          0.687              1.690              1.466
 Vibration     6          0.702              1.647              1.341
 Vibration     7          0.719              1.597              1.216
 Vibration     8          0.778              1.437              0.909
 Vibration     9          0.911              1.128              0.533
 Vibration    10          0.946              1.056              0.470

 Normal termination of Gaussian 09 at Mon Jan 27 23:37:30 2020.
