 Gaussian 09, Revision D.01,
 Gaussian 09:  ES64L-G09RevD.01 24-Apr-2013

 -----------------------------
 # b3lyp 6-31G(2df,p) opt Freq
 -----------------------------

 -----
 titel
 -----
 Symbolic Z-matrix:
 Charge =  0 Multiplicity = 1

 SCF Done:  E(RB3LYP) =  -423.108730821     A.U. after   14 cycles
 Optimization completed.
    -- Stationary point found.
 Normal termination of Gaussian 09 at Tue Jan 28 14:25:05 2020.

 ----------------------------------------------------------------------
 #N Geom=AllCheck Guess=TCheck SCRF=Check GenChk RB3LYP/6-31G(2df,p) Fr
 eq
 ----------------------------------------------------------------------

 Structure from the checkpoint file:  "/scratch/puck/g09_f8016b03-3745-428f-80da-b4e22d9bfd83/Gau-163936.chk"
 -----
 titel
 -----
 Charge =  0 Multiplicity = 1

                         Standard orientation:
 ---------------------------------------------------------------------
 Center     Atomic      Atomic             Coordinates (Angstroms)
 Number     Number       Type             X           Y           Z
 ---------------------------------------------------------------------
      1          6           0       -3.285383    0.745800    0.229857
      2          8           0       -1.930029    0.700483   -0.150157
      3          6           0       -1.405425   -0.606489   -0.176715
      4          6           0        0.054557   -0.524250   -0.572527
      5          6           0        0.875596   -1.812534   -0.367229
      6          8           0        1.642303   -1.215525    0.699091
      7          6           0        0.997361    0.073843    0.512629
      8          6           0        1.914870    1.117627    0.087510
      9          6           0        2.670024    1.980561   -0.272935
     10          1           0       -3.439987    0.340083    1.242122
     11          1           0       -3.592545    1.794081    0.218606
     12          1           0       -3.923595    0.180088   -0.467122
     13          1           0       -1.502947   -1.085694    0.813970
     14          1           0       -1.957898   -1.237192   -0.895515
     15          1           0        0.154855   -0.054433   -1.551439
     16          1           0        0.312357   -2.689774   -0.024122
     17          1           0        1.508866   -2.104328   -1.213297
     18          1           0        0.474875    0.384976    1.425818
     19          1           0        3.338227    2.745182   -0.584039
 ---------------------------------------------------------------------

 SCF Done:  E(RB3LYP) =  -423.108730821     A.U. after    1 cycles

 The electronic state is 1-A.
 Alpha  occ. eigenvalues --  -19.14765 -19.13654 -10.25472 -10.23747 -10.23458
 Alpha  occ. eigenvalues --  -10.22973 -10.20056 -10.17996 -10.17616  -1.04441
 Alpha  occ. eigenvalues --   -1.03818  -0.78979  -0.76116  -0.70123  -0.69299
 Alpha  occ. eigenvalues --   -0.63884  -0.57708  -0.53635  -0.50559  -0.49738
 Alpha  occ. eigenvalues --   -0.49253  -0.46705  -0.44934  -0.43625  -0.42258
 Alpha  occ. eigenvalues --   -0.40041  -0.36830  -0.34680  -0.32620  -0.31124
 Alpha  occ. eigenvalues --   -0.27377  -0.26654  -0.26344  -0.25302
 Alpha virt. eigenvalues --    0.02530   0.04969   0.08142   0.10311   0.11701
 Alpha virt. eigenvalues --    0.12028   0.12511   0.13053   0.15313   0.15870
 Alpha virt. eigenvalues --    0.16505   0.17381   0.17805   0.18342   0.19939

 Mulliken charges:
               1
     1  C   -0.227523
     2  O   -0.232558
     3  C   -0.073252
     4  C   -0.071246
     5  C   -0.096084
     6  O   -0.277179
     7  C   -0.062210
     8  C    0.344397
     9  C   -0.450558
    10  H    0.106319
    11  H    0.131554
    12  H    0.105611
    13  H    0.091495
    14  H    0.088979
    15  H    0.102034
    16  H    0.100780
    17  H    0.109749
    18  H    0.109380
    19  H    0.200313
 Sum of Mulliken charges =   0.00000

 Dipole moment (field-independent basis, Debye):
    X=             -2.1900    Y=             -0.3674    Z=             -0.8852  Tot=              2.3906
 Quadrupole moment (field-independent basis, Debye-Ang):
   XX=            -50.4974   YY=            -50.9618   ZZ=            -53.2635
   XY=              4.5218   XZ=             -4.0857   YZ=              1.6640

  Exact polarizability:  89.475  11.325  85.767  -4.972  -0.849  61.350
 Approx polarizability: 113.975  21.643 125.596  -8.085  -7.363  94.740

                      1                      2                      3
                      A                      A                      A
 Frequencies --     39.9680                77.0393                97.3725
 Red. masses --      4.2361                 3.5174                 2.2094
 Frc consts  --      0.0040                 0.0123                 0.0123
 IR Inten    --      1.8305                 0.1052                 4.7887

                      4                      5                      6
                      A                      A                      A
 Frequencies --    154.0543               177.7731               208.5710
 Red. masses --      2.9417                 2.5824                 3.9168
 Frc consts  --      0.0411                 0.0481                 0.1004
 IR Inten    --      1.0278                 0.1987                 1.3253

                      7                      8                      9
                      A                      A                      A
 Frequencies --    236.9251               322.2131               378.5507
 Red. masses --      1.3723                 2.9578                 3.4747
 Frc consts  --      0.0454                 0.1809                 0.2934
 IR Inten    --      2.8685                 1.3582                 3.3353

                     10                     11                     12
                      A                      A                      A
 Frequencies --    445.9527               522.4266               537.1812
 Red. masses --      3.5763                 3.9232                 7.0398
 Frc consts  --      0.4190                 0.6309                 1.1969
 IR Inten    --      2.6443                 3.3107                 4.0677

                     13                     14                     15
                      A                      A                      A
 Frequencies --    622.2428               668.6776               799.0052
 Red. masses --      1.2255                 1.2582                 4.7644
 Frc consts  --      0.2796                 0.3315                 1.7921
 IR Inten    --     42.1132                34.8207                 6.6745

                     16                     17                     18
                      A                      A                      A
 Frequencies --    857.0305               901.2721               940.0999
 Red. masses --      2.0137                 1.5349                 4.0504
 Frc consts  --      0.8714                 0.7346                 2.1091
 IR Inten    --      5.9635                 2.3935                32.6114

                     19                     20                     21
                      A                      A                      A
 Frequencies --    982.5136              1020.1764              1039.4310
 Red. masses --      4.3159                 8.6224                 3.0872
 Frc consts  --      2.4547                 5.2872                 1.9652
 IR Inten    --     12.5930               110.5905                31.4295

                     22                     23                     24
                      A                      A                      A
 Frequencies --   1065.8297              1100.0873              1136.6515
 Red. masses --      2.3626                 2.3122                 2.0378
 Frc consts  --      1.5813                 1.6487                 1.5512
 IR Inten    --      1.4250                 0.9948                21.0973

                     25                     26                     27
                      A                      A                      A
 Frequencies --   1160.8469              1177.3553              1187.4864
 Red. masses --      1.8130                 1.5645                 1.4911
 Frc consts  --      1.4394                 1.2777                 1.2389
 IR Inten    --     83.6943                40.7530                25.4273

                     28                     29                     30
                      A                      A                      A
 Frequencies --   1225.0014              1228.7452              1246.7228
 Red. masses --      1.3701                 1.4631                 1.4807
 Frc consts  --      1.2114                 1.3015                 1.3560
 IR Inten    --     10.1357                28.8755                 9.1065

                     31                     32                     33
                      A                      A                      A
 Frequencies --   1280.0685              1326.7175              1358.2258
 Red. masses --      1.2864                 1.2326                 1.3657
 Frc consts  --      1.2419                 1.2783                 1.4844
 IR Inten    --      0.9609                16.1203                 6.4168

                     34                     35                     36
                      A                      A                      A
 Frequencies --   1378.8294              1426.8210              1482.2967
 Red. masses --      1.4525                 1.4917                 1.1536
 Frc consts  --      1.6270                 1.7892                 1.4933
 IR Inten    --      9.0695                32.2734                 0.9971

                     37                     38                     39
                      A                      A                      A
 Frequencies --   1487.3011              1503.0796              1526.0650
 Red. masses --      1.0545                 1.0631                 1.0923
 Frc consts  --      1.3744                 1.4151                 1.4988
 IR Inten    --      4.7226                 9.9061                 1.4910

                     40                     41                     42
                      A                      A                      A
 Frequencies --   1527.3623              2235.1318              2940.1004
 Red. masses --      1.0988                 5.9262                 1.0535
 Frc consts  --      1.5102                17.4435                 5.3654
 IR Inten    --      1.1840                 1.7324                33.8744

                     43                     44                     45
                      A                      A                      A
 Frequencies --   2968.0282              2973.1462              3014.1333
 Red. masses --      1.1040                 1.0383                 1.0565
 Frc consts  --      5.7299                 5.4074                 5.6552
 IR Inten    --     54.4470                73.8199                79.6618

                     46                     47                     48
                      A                      A                      A
 Frequencies --   3017.1803              3028.8732              3057.1270
 Red. masses --      1.1030                 1.0829                 1.1101
 Frc consts  --      5.9162                 5.8533                 6.1127
 IR Inten    --     57.0020                19.1635                37.1518

                     49                     50                     51
                      A                      A                      A
 Frequencies --   3111.7143              3118.0314              3503.0242
 Red. masses --      1.0874                 1.0960                 1.1623
 Frc consts  --      6.2035                 6.2782                 8.4031
 IR Inten    --     17.2782                25.7190                63.7929

 - Thermochemistry -
 -------------------
 Temperature   298.150 Kelvin.  Pressure   1.00000 Atm.
 Atom     1 has atomic number  6 and mass  12.00000

 Molecular mass:   126.06808 amu.
 Principal axes and moments of inertia in atomic units:
                           1         2         3
     Eigenvalues --   719.229981767.616832284.40359
           X            0.99990   0.00426  -0.01346
           Y           -0.00402   0.99983   0.01780
           Z            0.01354  -0.01775   0.99975
 This molecule is an asymmetric top.
 Rotational symmetry number  1.
 Warning -- assumption of classical behavior for rotation
           may cause significant error
 Rotational temperatures (Kelvin)      0.12043     0.04900     0.03792
 Rotational constants (GHZ):           2.50927     1.02100     0.79003
 Zero-point vibrational energy     411637.8 (Joules/Mol)
                                   98.38379 (Kcal/Mol)
 Warning -- explicit consideration of  12 degrees of freedom as
           vibrations may cause significant error
 Vibrational temperatures:     57.50   110.84   140.10   221.65   255.78
          (Kelvin)            300.09   340.88   463.59   544.65   641.63
                              751.65   772.88   895.27   962.08  1149.59
                             1233.07  1296.73  1352.59  1413.62  1467.80
                             1495.51  1533.49  1582.78  1635.39  1670.20
                             1693.95  1708.53  1762.50  1767.89  1793.75
                             1841.73  1908.85  1954.18  1983.83  2052.87
                             2132.69  2139.89  2162.59  2195.66  2197.53
                             3215.85  4230.14  4270.33  4277.69  4336.66
                             4341.04  4357.87  4398.52  4477.06  4486.15
                             5040.06

 Zero-point correction=                           0.156785 (Hartree/Particle)
 Thermal correction to Energy=                    0.166541
 Thermal correction to Enthalpy=                  0.167485
 Thermal correction to Gibbs Free Energy=         0.120905
 Sum of electronic and zero-point Energies=           -422.951946
 Sum of electronic and thermal Energies=              -422.942190
 Sum of electronic and thermal Enthalpies=            -422.941246
 Sum of electronic and thermal Free Energies=         -422.987825

                     E (Thermal)             CV                S
                      KCal/Mol        Cal/Mol-Kelvin    Cal/Mol-Kelvin
 Total                  104.506             34.305             98.035
 Electronic               0.000              0.000              0.000
 Translational            0.889              2.981             40.409
 Rotational               0.889              2.981             29.453
 Vibrational            102.729             28.343             28.174
 Vibration     1          0.594              1.981              5.261
 Vibration     2          0.599              1.964              3.965
 Vibration     3          0.603              1.951              3.506
 Vibration     4          0.620              1.898              2.622
 Vibration     5          0.628              1.870              2.352
 Vibration     6          0.642              1.828              2.056
 Vibration     7          0.656              1.784              1.826
 Vibration     8          0.707              1.631              1.299
 Vibration     9          0.749              1.516              1.045
 Vibration    10          0.805              1.370              0.808
 Vibration    11          0.877              1.200              0.604
 Vibration    12          0.892              1.168              0.571

 Normal termination of Gaussian 09 at Tue Jan 28 15:06:37 2020.
