 Gaussian 09, Revision D.01,
 Gaussian 09:  ES64L-G09RevD.01 24-Apr-2013

 -----------------------------
 # b3lyp 6-31G(2df,p) opt Freq
 -----------------------------

 -----
 titel
 -----
 Symbolic Z-matrix:
 Charge =  0 Multiplicity = 1

 SCF Done:  E(RB3LYP) =  -423.106383323     A.U. after   13 cycles
 Optimization completed.
    -- Stationary point found.
 Normal termination of Gaussian 09 at Tue Jan 28 01:52:41 2020.

 ----------------------------------------------------------------------
 #N Geom=AllCheck Guess=TCheck SCRF=Check GenChk RB3LYP/6-31G(2df,p) Fr
 eq
 ----------------------------------------------------------------------

 Structure from the checkpoint file:  "/scratch/puck/g09_cd825a47-1289-45ca-bd15-c7f9804ffc24/Gau-37985.chk"
 -----
 titel
 -----
 Charge =  0 Multiplicity = 1

                         Standard orientation:
 ---------------------------------------------------------------------
 Center     Atomic      Atomic             Coordinates (Angstroms)
 Number     Number       Type             X           Y           Z
 ---------------------------------------------------------------------
      1          6           0       -2.662710   -1.051499    0.331113
      2          6           0       -1.817253   -0.154883   -0.534327
      3          8           0       -1.582231    1.192890   -0.029690
      4          6           0       -0.493766    0.312441   -0.148634
      5          6           0        0.537625   -0.032034    0.936062
      6          6           0        1.260152    1.283045    0.484055
      7          6           0        0.838937    0.591238   -0.856909
      8          6           0        1.298268   -0.767063   -0.221965
      9          8           0        2.651014   -1.095678   -0.107968
     10          1           0       -3.716291   -0.758635    0.275216
     11          1           0       -2.585098   -2.091146   -0.005437
     12          1           0       -2.345149   -0.997540    1.375374
     13          1           0       -2.058841   -0.169670   -1.598665
     14          1           0        0.360634   -0.382335    1.952507
     15          1           0        0.753501    2.218578    0.724200
     16          1           0        2.329980    1.369401    0.694664
     17          1           0        0.998700    0.946675   -1.874438
     18          1           0        0.806858   -1.659993   -0.615472
     19          1           0        3.137928   -0.340503    0.236951
 ---------------------------------------------------------------------

 SCF Done:  E(RB3LYP) =  -423.106383323     A.U. after    1 cycles

 The electronic state is 1-A.
 Alpha  occ. eigenvalues --  -19.14576 -19.14365 -10.24500 -10.24421 -10.23703
 Alpha  occ. eigenvalues --  -10.20191 -10.20112 -10.19976 -10.18484  -1.06926
 Alpha  occ. eigenvalues --   -1.03083  -0.90429  -0.74808  -0.67887  -0.64171
 Alpha  occ. eigenvalues --   -0.63196  -0.60173  -0.54908  -0.50700  -0.50406
 Alpha  occ. eigenvalues --   -0.46996  -0.46218  -0.42565  -0.40135  -0.38674
 Alpha  occ. eigenvalues --   -0.38265  -0.37726  -0.36273  -0.33724  -0.32950
 Alpha  occ. eigenvalues --   -0.31865  -0.28284  -0.27286  -0.24520
 Alpha virt. eigenvalues --    0.06536   0.09865   0.10695   0.11779   0.13054
 Alpha virt. eigenvalues --    0.13569   0.14105   0.15145   0.15750   0.16396
 Alpha virt. eigenvalues --    0.17042   0.17579   0.17850   0.18834   0.21020

 Mulliken charges:
               1
     1  C   -0.414692
     2  C   -0.093998
     3  O   -0.327419
     4  C    0.567483
     5  C   -0.212664
     6  C   -0.267135
     7  C   -0.214262
     8  C    0.196865
     9  O   -0.451028
    10  H    0.131242
    11  H    0.124082
    12  H    0.127149
    13  H    0.094817
    14  H    0.081972
    15  H    0.123424
    16  H    0.079808
    17  H    0.082526
    18  H    0.087717
    19  H    0.284112
 Sum of Mulliken charges =   0.00000

 Dipole moment (field-independent basis, Debye):
    X=              0.0794    Y=             -0.3071    Z=              0.0766  Tot=              0.3263
 Quadrupole moment (field-independent basis, Debye-Ang):
   XX=            -52.5899   YY=            -56.7069   ZZ=            -51.6181
   XY=              8.3492   XZ=              2.4260   YZ=             -0.1758

  Exact polarizability:  90.645   5.992  70.895   2.371   0.995  66.289
 Approx polarizability: 119.392   2.824 110.527   3.376   3.356 102.521

                      1                      2                      3
                      A                      A                      A
 Frequencies --    126.0740               166.1523               191.0507
 Red. masses --      3.7132                 2.7723                 1.2080
 Frc consts  --      0.0348                 0.0451                 0.0260
 IR Inten    --      2.3612                 3.1292                 2.0613

                      4                      5                      6
                      A                      A                      A
 Frequencies --    214.8195               249.9687               338.2669
 Red. masses --      1.4386                 1.7676                 3.9734
 Frc consts  --      0.0391                 0.0651                 0.2679
 IR Inten    --     19.1609                41.0571                21.0991

                      7                      8                      9
                      A                      A                      A
 Frequencies --    365.9690               437.1573               469.1698
 Red. masses --      3.2466                 3.3288                 3.3709
 Frc consts  --      0.2562                 0.3748                 0.4372
 IR Inten    --      1.9021                 3.8648                 1.8304

                     10                     11                     12
                      A                      A                      A
 Frequencies --    497.3584               608.0342               669.0376
 Red. masses --      4.4546                 3.5341                 2.5078
 Frc consts  --      0.6492                 0.7698                 0.6614
 IR Inten    --      7.1922                 2.4866                 1.7680

                     13                     14                     15
                      A                      A                      A
 Frequencies --    745.4510               796.4046               810.0588
 Red. masses --      3.4377                 3.5066                 2.9879
 Frc consts  --      1.1255                 1.3104                 1.1552
 IR Inten    --      2.4939                17.9175                 5.9465

                     16                     17                     18
                      A                      A                      A
 Frequencies --    855.9670               892.9000               950.2448
 Red. masses --      2.2306                 2.3675                 1.6403
 Frc consts  --      0.9629                 1.1121                 0.8726
 IR Inten    --     14.2725                 2.0439                 7.7997

                     19                     20                     21
                      A                      A                      A
 Frequencies --    987.6868               996.2215              1004.8046
 Red. masses --      2.3300                 2.1824                 1.2776
 Frc consts  --      1.3392                 1.2761                 0.7600
 IR Inten    --     21.5596                73.5945                 8.0836

                     22                     23                     24
                      A                      A                      A
 Frequencies --   1056.6620              1063.5082              1088.2079
 Red. masses --      1.3632                 1.7637                 1.7918
 Frc consts  --      0.8968                 1.1753                 1.2501
 IR Inten    --      4.2757                23.1565                32.5255

                     25                     26                     27
                      A                      A                      A
 Frequencies --   1116.7958              1126.9454              1128.3087
 Red. masses --      4.4586                 2.0934                 2.2002
 Frc consts  --      3.2764                 1.5664                 1.6503
 IR Inten    --     12.5072                 5.8868                40.2974

                     28                     29                     30
                      A                      A                      A
 Frequencies --   1137.7700              1180.8830              1192.2476
 Red. masses --      1.4555                 1.7938                 1.3850
 Frc consts  --      1.1101                 1.4738                 1.1599
 IR Inten    --      1.4409                18.9477                 0.0662

                     31                     32                     33
                      A                      A                      A
 Frequencies --   1218.0211              1237.5495              1258.5883
 Red. masses --      1.6057                 1.7669                 1.8608
 Frc consts  --      1.4036                 1.5943                 1.7367
 IR Inten    --     36.7468                 2.8091                58.8242

                     34                     35                     36
                      A                      A                      A
 Frequencies --   1286.0957              1355.6221              1409.9416
 Red. masses --      1.5925                 1.3137                 1.2734
 Frc consts  --      1.5519                 1.4224                 1.4915
 IR Inten    --      9.1745                28.8265                 6.4932

                     37                     38                     39
                      A                      A                      A
 Frequencies --   1450.6759              1478.1005              1492.6715
 Red. masses --      1.2248                 1.0905                 1.0584
 Frc consts  --      1.5187                 1.4037                 1.3894
 IR Inten    --     79.3853                 1.9417                 4.5749

                     40                     41                     42
                      A                      A                      A
 Frequencies --   1525.1711              1563.5948              3036.7659
 Red. masses --      1.2149                 3.4273                 1.0359
 Frc consts  --      1.6650                 4.9369                 5.6285
 IR Inten    --      1.8056                16.9614                19.3273

                     43                     44                     45
                      A                      A                      A
 Frequencies --   3056.8335              3088.9483              3092.1846
 Red. masses --      1.0603                 1.0857                 1.0873
 Frc consts  --      5.8374                 6.1036                 6.1251
 IR Inten    --     59.9004                31.0342                18.5140

                     46                     47                     48
                      A                      A                      A
 Frequencies --   3100.5693              3121.1358              3125.2535
 Red. masses --      1.1006                 1.0912                 1.0960
 Frc consts  --      6.2339                 6.2632                 6.3069
 IR Inten    --     17.9971                55.3368                11.1721

                     49                     50                     51
                      A                      A                      A
 Frequencies --   3127.6922              3132.1598              3819.0451
 Red. masses --      1.1005                 1.1028                 1.0648
 Frc consts  --      6.3428                 6.3746                 9.1504
 IR Inten    --     36.3966                16.8425                13.1736

 - Thermochemistry -
 -------------------
 Temperature   298.150 Kelvin.  Pressure   1.00000 Atm.
 Atom     1 has atomic number  6 and mass  12.00000

 Molecular mass:   126.06808 amu.
 Principal axes and moments of inertia in atomic units:
                           1         2         3
     Eigenvalues --   518.164041505.231571728.29145
           X            0.99870   0.05099   0.00060
           Y           -0.05099   0.99869  -0.00516
           Z           -0.00086   0.00512   0.99999
 This molecule is an asymmetric top.
 Rotational symmetry number  1.
 Warning -- assumption of classical behavior for rotation
           may cause significant error
 Rotational temperatures (Kelvin)      0.16716     0.05754     0.05012
 Rotational constants (GHZ):           3.48295     1.19898     1.04423
 Zero-point vibrational energy     415347.9 (Joules/Mol)
                                   99.27053 (Kcal/Mol)
 Warning -- explicit consideration of  11 degrees of freedom as
           vibrations may cause significant error
 Vibrational temperatures:    181.39   239.06   274.88   309.08   359.65
          (Kelvin)            486.69   526.55   628.97   675.03   715.59
                              874.82   962.59  1072.54  1145.85  1165.49
                             1231.54  1284.68  1367.19  1421.06  1433.34
                             1445.69  1520.30  1530.15  1565.69  1606.82
                             1621.42  1623.38  1637.00  1699.03  1715.38
                             1752.46  1780.56  1810.83  1850.40  1950.44
                             2028.59  2087.20  2126.65  2147.62  2194.38
                             2249.66  4369.22  4398.10  4444.30  4448.96
                             4461.02  4490.61  4496.54  4500.05  4506.47
                             5494.75

 Zero-point correction=                           0.158198 (Hartree/Particle)
 Thermal correction to Energy=                    0.166512
 Thermal correction to Enthalpy=                  0.167456
 Thermal correction to Gibbs Free Energy=         0.125643
 Sum of electronic and zero-point Energies=           -422.948186
 Sum of electronic and thermal Energies=              -422.939872
 Sum of electronic and thermal Enthalpies=            -422.938927
 Sum of electronic and thermal Free Energies=         -422.980740

                     E (Thermal)             CV                S
                      KCal/Mol        Cal/Mol-Kelvin    Cal/Mol-Kelvin
 Total                  104.488             32.584             88.003
 Electronic               0.000              0.000              0.000
 Translational            0.889              2.981             40.409
 Rotational               0.889              2.981             28.690
 Vibrational            102.710             26.622             18.904
 Vibration     1          0.611              1.927              3.005
 Vibration     2          0.624              1.884              2.479
 Vibration     3          0.634              1.852              2.218
 Vibration     4          0.645              1.818              2.002
 Vibration     5          0.663              1.763              1.731
 Vibration     6          0.719              1.599              1.220
 Vibration     7          0.739              1.542              1.097
 Vibration     8          0.797              1.389              0.836
 Vibration     9          0.826              1.318              0.740
 Vibration    10          0.853              1.256              0.665
 Vibration    11          0.967              1.015              0.436

 Optimization completed.
    -- Stationary point found.
 Normal termination of Gaussian 09 at Tue Jan 28 02:41:23 2020.
