 Gaussian 09, Revision D.01,
 Gaussian 09:  ES64L-G09RevD.01 24-Apr-2013

 -----------------------------
 # b3lyp 6-31G(2df,p) opt Freq
 -----------------------------

 -----
 titel
 -----
 Symbolic Z-matrix:
 Charge =  0 Multiplicity = 1

 SCF Done:  E(RB3LYP) =  -423.211839895     A.U. after   14 cycles
 Optimization completed.
    -- Stationary point found.
 Normal termination of Gaussian 09 at Mon Jan 27 11:12:32 2020.

 ----------------------------------------------------------------------
 #N Geom=AllCheck Guess=TCheck SCRF=Check GenChk RB3LYP/6-31G(2df,p) Fr
 eq
 ----------------------------------------------------------------------

 Structure from the checkpoint file:  "/scratch/puck/g09_a46de5da-d480-4a25-bb63-7d9ff76211ec/Gau-69577.chk"
 -----
 titel
 -----
 Charge =  0 Multiplicity = 1

                         Standard orientation:
 ---------------------------------------------------------------------
 Center     Atomic      Atomic             Coordinates (Angstroms)
 Number     Number       Type             X           Y           Z
 ---------------------------------------------------------------------
      1          6           0       -3.479513    0.307315    0.000437
      2          6           0       -2.193766   -0.499781    0.000256
      3          8           0       -1.105146    0.414159   -0.001041
      4          6           0        0.141934   -0.124654   -0.000400
      5          6           0        1.284274    0.624854   -0.000164
      6          6           0        1.527968    2.087832    0.000260
      7          8           0        2.365050   -0.217609    0.000153
      8          6           0        1.898151   -1.488160    0.000419
      9          6           0        0.539043   -1.505546   -0.000243
     10          1           0       -4.344937   -0.361823    0.001441
     11          1           0       -3.532512    0.945920    0.886546
     12          1           0       -3.533593    0.944635   -0.886530
     13          1           0       -2.138618   -1.146470    0.888293
     14          1           0       -2.139706   -1.147748   -0.886925
     15          1           0        2.099325    2.408781   -0.879019
     16          1           0        0.566440    2.606259   -0.009155
     17          1           0        2.083162    2.411812    0.888848
     18          1           0        2.644007   -2.265655    0.000692
     19          1           0       -0.091336   -2.379274   -0.000479
 ---------------------------------------------------------------------

 SCF Done:  E(RB3LYP) =  -423.211839895     A.U. after    1 cycles

 The electronic state is 1-A.
 Alpha  occ. eigenvalues --  -19.19118 -19.15980 -10.23757 -10.22192 -10.22087
 Alpha  occ. eigenvalues --  -10.21310 -10.18123 -10.18053 -10.17421  -1.09525
 Alpha  occ. eigenvalues --   -1.05351  -0.79392  -0.76839  -0.74944  -0.67549
 Alpha  occ. eigenvalues --   -0.63481  -0.57434  -0.55511  -0.52190  -0.48060
 Alpha  occ. eigenvalues --   -0.45957  -0.44807  -0.44435  -0.40759  -0.39249
 Alpha  occ. eigenvalues --   -0.39086  -0.38853  -0.38239  -0.38181  -0.35098
 Alpha  occ. eigenvalues --   -0.32442  -0.32318  -0.24640  -0.19085
 Alpha virt. eigenvalues --    0.02540   0.09841   0.10062   0.11083   0.12795
 Alpha virt. eigenvalues --    0.13270   0.14594   0.15068   0.15695   0.16920
 Alpha virt. eigenvalues --    0.18712   0.18979   0.19689   0.19734   0.22241

 Mulliken charges:
               1
     1  C   -0.390801
     2  C   -0.049077
     3  O   -0.277977
     4  C    0.236236
     5  C    0.248577
     6  C   -0.498202
     7  O   -0.177343
     8  C   -0.010181
     9  C   -0.313349
    10  H    0.118158
    11  H    0.130487
    12  H    0.130484
    13  H    0.101874
    14  H    0.101856
    15  H    0.131749
    16  H    0.143520
    17  H    0.131676
    18  H    0.130532
    19  H    0.111780
 Sum of Mulliken charges =   0.00000

 Dipole moment (field-independent basis, Debye):
    X=             -1.2877    Y=             -0.8381    Z=              0.0013  Tot=              1.5364
 Quadrupole moment (field-independent basis, Debye-Ang):
   XX=            -50.2632   YY=            -48.9458   ZZ=            -54.5033
   XY=              1.0444   XZ=             -0.0016   YZ=             -0.0009

  Exact polarizability:  99.115   2.132  90.303   0.008   0.015  51.752
 Approx polarizability: 138.045   4.785 134.418   0.021   0.016  79.118

                      1                      2                      3
                      A                      A                      A
 Frequencies --     40.2399                84.0946               112.7812
 Red. masses --      3.5163                 1.9090                 1.0363
 Frc consts  --      0.0034                 0.0080                 0.0078
 IR Inten    --      2.2775                 0.1800                 0.0005

                      4                      5                      6
                      A                      A                      A
 Frequencies --    135.9845               217.6786               244.5592
 Red. masses --      3.1444                 3.3347                 1.1375
 Frc consts  --      0.0343                 0.0931                 0.0401
 IR Inten    --      0.3010                 3.9044                 0.7054

                      7                      8                      9
                      A                      A                      A
 Frequencies --    269.9908               328.4377               348.6036
 Red. masses --      3.0530                 6.3089                 3.0904
 Frc consts  --      0.1311                 0.4010                 0.2213
 IR Inten    --      0.4052                 0.0012                 0.9753

                     10                     11                     12
                      A                      A                      A
 Frequencies --    491.0561               613.4762               637.4192
 Red. masses --      3.9128                 4.3774                 4.8512
 Frc consts  --      0.5559                 0.9706                 1.1613
 IR Inten    --      8.2880                 5.2259                 2.8646

                     13                     14                     15
                      A                      A                      A
 Frequencies --    677.2949               722.7823               755.0271
 Red. masses --      4.2293                 1.3728                 4.3761
 Frc consts  --      1.1431                 0.4226                 1.4698
 IR Inten    --      0.4360                33.5049                 8.0299

                     16                     17                     18
                      A                      A                      A
 Frequencies --    795.3886               828.6557               906.9923
 Red. masses --      1.2477                 1.0875                 4.5187
 Frc consts  --      0.4651                 0.4400                 2.1901
 IR Inten    --      6.0458                 0.0020                17.1512

                     19                     20                     21
                      A                      A                      A
 Frequencies --    922.3956               965.9130              1061.3178
 Red. masses --      2.5017                 1.6488                 2.1382
 Frc consts  --      1.2540                 0.9063                 1.4190
 IR Inten    --      0.1226                 8.0784                 9.0876

                     22                     23                     24
                      A                      A                      A
 Frequencies --   1064.4726              1099.3482              1124.4963
 Red. masses --      1.4268                 2.5270                 2.2529
 Frc consts  --      0.9525                 1.7994                 1.6784
 IR Inten    --      0.2718                32.2138                 5.6610

                     25                     26                     27
                      A                      A                      A
 Frequencies --   1178.1789              1186.0032              1194.5122
 Red. masses --      3.1260                 1.5198                 2.1788
 Frc consts  --      2.5566                 1.2595                 1.8317
 IR Inten    --    105.4861                 3.7195                27.6298

                     28                     29                     30
                      A                      A                      A
 Frequencies --   1251.3286              1296.5704              1314.0926
 Red. masses --      5.3640                 1.1066                 2.5047
 Frc consts  --      4.9486                 1.0961                 2.5484
 IR Inten    --     29.1623                 0.4932               161.7106

                     31                     32                     33
                      A                      A                      A
 Frequencies --   1400.1374              1407.5698              1424.2933
 Red. masses --      1.2338                 1.2966                 1.4138
 Frc consts  --      1.4251                 1.5135                 1.6898
 IR Inten    --      7.2577                 4.7622                55.9569

                     34                     35                     36
                      A                      A                      A
 Frequencies --   1463.1546              1475.5345              1483.4168
 Red. masses --      3.8347                 1.0428                 1.0399
 Frc consts  --      4.8368                 1.3377                 1.3482
 IR Inten    --     63.6805                 5.0227                 3.8877

                     37                     38                     39
                      A                      A                      A
 Frequencies --   1490.4131              1500.7033              1529.0638
 Red. masses --      1.1283                 1.0486                 1.1001
 Frc consts  --      1.4767                 1.3914                 1.5154
 IR Inten    --      3.3135                 2.6100                 3.8948

                     40                     41                     42
                      A                      A                      A
 Frequencies --   1542.4085              1685.5011              2986.5652
 Red. masses --      4.0656                 7.7248                 1.0550
 Frc consts  --      5.6987                12.9300                 5.5444
 IR Inten    --     14.6760                74.4879                44.9242

                     43                     44                     45
                      A                      A                      A
 Frequencies --   3020.7145              3021.5619              3046.9106
 Red. masses --      1.1069                 1.0388                 1.0347
 Frc consts  --      5.9508                 5.5876                 5.6598
 IR Inten    --     38.0224                44.8839                16.2765

                     46                     47                     48
                      A                      A                      A
 Frequencies --   3067.5756              3122.0205              3124.6974
 Red. masses --      1.1005                 1.1015                 1.1029
 Frc consts  --      6.1015                 6.3255                 6.3448
 IR Inten    --     20.0833                22.3520                25.1573

                     49                     50                     51
                      A                      A                      A
 Frequencies --   3128.9766              3261.5989              3284.9384
 Red. masses --      1.0965                 1.0890                 1.1059
 Frc consts  --      6.3252                 6.8255                 7.0312
 IR Inten    --      7.7635                 1.5691                 0.4974

 - Thermochemistry -
 -------------------
 Temperature   298.150 Kelvin.  Pressure   1.00000 Atm.
 Atom     1 has atomic number  6 and mass  12.00000

 Molecular mass:   126.06808 amu.
 Principal axes and moments of inertia in atomic units:
                           1         2         3
     Eigenvalues --   561.486731716.618812244.19972
           X            0.99986   0.01671  -0.00001
           Y           -0.01671   0.99986   0.00002
           Z            0.00001  -0.00002   1.00000
 This molecule is an asymmetric top.
 Rotational symmetry number  1.
 Warning -- assumption of classical behavior for rotation
           may cause significant error
 Rotational temperatures (Kelvin)      0.15426     0.05046     0.03859
 Rotational constants (GHZ):           3.21422     1.05133     0.80418
 Zero-point vibrational energy     414726.4 (Joules/Mol)
                                   99.12200 (Kcal/Mol)
 Warning -- explicit consideration of  11 degrees of freedom as
           vibrations may cause significant error
 Vibrational temperatures:     57.90   120.99   162.27   195.65   313.19
          (Kelvin)            351.87   388.46   472.55   501.56   706.52
                              882.65   917.10   974.48  1039.92  1086.31
                             1144.39  1192.25  1304.96  1327.12  1389.73
                             1527.00  1531.54  1581.71  1617.90  1695.13
                             1706.39  1718.63  1800.38  1865.47  1890.68
                             2014.48  2025.18  2049.24  2105.15  2122.96
                             2134.30  2144.37  2159.17  2199.98  2219.18
                             2425.06  4297.00  4346.13  4347.35  4383.82
                             4413.55  4491.89  4495.74  4501.89  4692.71
                             4726.29

 Zero-point correction=                           0.157961 (Hartree/Particle)
 Thermal correction to Energy=                    0.167418
 Thermal correction to Enthalpy=                  0.168362
 Thermal correction to Gibbs Free Energy=         0.122644
 Sum of electronic and zero-point Energies=           -423.053879
 Sum of electronic and thermal Energies=              -423.044422
 Sum of electronic and thermal Enthalpies=            -423.043478
 Sum of electronic and thermal Free Energies=         -423.089196

                     E (Thermal)             CV                S
                      KCal/Mol        Cal/Mol-Kelvin    Cal/Mol-Kelvin
 Total                  105.056             33.675             96.222
 Electronic               0.000              0.000              0.000
 Translational            0.889              2.981             40.409
 Rotational               0.889              2.981             29.160
 Vibrational            103.279             27.713             26.654
 Vibration     1          0.594              1.981              5.247
 Vibration     2          0.601              1.960              3.793
 Vibration     3          0.607              1.939              3.220
 Vibration     4          0.614              1.917              2.860
 Vibration     5          0.646              1.814              1.978
 Vibration     6          0.660              1.772              1.769
 Vibration     7          0.674              1.728              1.596
 Vibration     8          0.712              1.619              1.268
 Vibration     9          0.726              1.578              1.172
 Vibration    10          0.847              1.270              0.681
 Vibration    11          0.973              1.003              0.427

 Normal termination of Gaussian 09 at Mon Jan 27 11:46:38 2020.
