 Gaussian 09, Revision D.01,
 Gaussian 09:  ES64L-G09RevD.01 24-Apr-2013

 -----------------------------
 # b3lyp 6-31G(2df,p) opt Freq
 -----------------------------

 -----
 titel
 -----
 Symbolic Z-matrix:
 Charge =  0 Multiplicity = 1

 SCF Done:  E(RB3LYP) =  -423.200367448     A.U. after   14 cycles
 Optimization completed.
    -- Stationary point found.
 Normal termination of Gaussian 09 at Mon Jan 27 13:05:32 2020.

 ----------------------------------------------------------------------
 #N Geom=AllCheck Guess=TCheck SCRF=Check GenChk RB3LYP/6-31G(2df,p) Fr
 eq
 ----------------------------------------------------------------------

 Structure from the checkpoint file:  "/scratch/puck/g09_bfd5931a-ebc9-4610-9b5e-c3e80c082fd2/Gau-74394.chk"
 -----
 titel
 -----
 Charge =  0 Multiplicity = 1

                         Standard orientation:
 ---------------------------------------------------------------------
 Center     Atomic      Atomic             Coordinates (Angstroms)
 Number     Number       Type             X           Y           Z
 ---------------------------------------------------------------------
      1          8           0        2.612953   -0.102070   -0.110332
      2          6           0        1.416804    0.019860    0.019811
      3          6           0        0.785260    1.363999    0.385935
      4          6           0       -0.560390    1.710194   -0.278065
      5          6           0       -1.762285    0.839503    0.127312
      6          6           0       -1.512129   -0.664773   -0.043777
      7          6           0       -0.562022   -1.319977    0.984192
      8          6           0        0.490559   -1.187595   -0.137484
      9          8           0       -0.552846   -0.925836   -1.109016
     10          1           0        0.670778    1.373823    1.480386
     11          1           0        1.534972    2.125063    0.153366
     12          1           0       -0.797445    2.753283   -0.041612
     13          1           0       -0.440613    1.653577   -1.363800
     14          1           0       -2.047900    1.028466    1.170838
     15          1           0       -2.620256    1.137560   -0.485814
     16          1           0       -2.450189   -1.198594   -0.225736
     17          1           0       -0.381950   -0.794006    1.923421
     18          1           0       -0.813971   -2.360462    1.193013
     19          1           0        1.090941   -2.062727   -0.396821
 ---------------------------------------------------------------------

 SCF Done:  E(RB3LYP) =  -423.200367448     A.U. after    1 cycles

 The electronic state is 1-A.
 Alpha  occ. eigenvalues --  -19.14407 -19.13096 -10.26619 -10.24477 -10.24113
 Alpha  occ. eigenvalues --  -10.19987 -10.19366 -10.19304 -10.19189  -1.05289
 Alpha  occ. eigenvalues --   -1.03614  -0.80809  -0.75508  -0.75315  -0.67051
 Alpha  occ. eigenvalues --   -0.63343  -0.55503  -0.53430  -0.50939  -0.48138
 Alpha  occ. eigenvalues --   -0.46825  -0.45738  -0.43030  -0.42765  -0.40772
 Alpha  occ. eigenvalues --   -0.39875  -0.37091  -0.36464  -0.35460  -0.33498
 Alpha  occ. eigenvalues --   -0.32236  -0.31391  -0.27599  -0.23182
 Alpha virt. eigenvalues --   -0.02366   0.07042   0.09288   0.10200   0.11068
 Alpha virt. eigenvalues --    0.12415   0.14489   0.14910   0.15652   0.17135
 Alpha virt. eigenvalues --    0.17554   0.18304   0.20226   0.20549   0.22707

 Mulliken charges:
               1
     1  O   -0.311350
     2  C    0.402327
     3  C   -0.309426
     4  C   -0.198961
     5  C   -0.223988
     6  C    0.119378
     7  C   -0.293235
     8  C    0.014075
     9  O   -0.289289
    10  H    0.120794
    11  H    0.126855
    12  H    0.099854
    13  H    0.124713
    14  H    0.100509
    15  H    0.107334
    16  H    0.083284
    17  H    0.110108
    18  H    0.120477
    19  H    0.096542
 Sum of Mulliken charges =   0.00000

 Dipole moment (field-independent basis, Debye):
    X=             -2.8854    Y=              0.5267    Z=              1.8897  Tot=              3.4891
 Quadrupole moment (field-independent basis, Debye-Ang):
   XX=            -60.1744   YY=            -49.9896   ZZ=            -53.9207
   XY=              0.4393   XZ=             -0.2839   YZ=             -1.6926

  Exact polarizability:  84.603  -1.212  76.686  -1.167  -0.390  61.233
 Approx polarizability: 124.302  -2.882 103.073  -2.348   1.893  99.697

                      1                      2                      3
                      A                      A                      A
 Frequencies --     79.9835               214.6135               233.8655
 Red. masses --      4.4252                 2.7425                 2.0956
 Frc consts  --      0.0167                 0.0744                 0.0675
 IR Inten    --      3.4388                 1.1595                 0.5817

                      4                      5                      6
                      A                      A                      A
 Frequencies --    303.4455               349.4841               372.5843
 Red. masses --      4.4003                 3.4646                 2.2222
 Frc consts  --      0.2387                 0.2493                 0.1818
 IR Inten    --      6.4481                 2.8283                 0.1378

                      7                      8                      9
                      A                      A                      A
 Frequencies --    435.7018               493.6180               564.9607
 Red. masses --      6.2392                 2.2759                 2.6988
 Frc consts  --      0.6978                 0.3267                 0.5075
 IR Inten    --      5.0659                 8.5256                 3.3282

                     10                     11                     12
                      A                      A                      A
 Frequencies --    650.2184               729.0104               777.0362
 Red. masses --      3.3285                 2.2827                 2.8048
 Frc consts  --      0.8291                 0.7148                 0.9978
 IR Inten    --      1.3861                 5.3538                 1.8396

                     13                     14                     15
                      A                      A                      A
 Frequencies --    837.8622               875.4936               884.9688
 Red. masses --      2.1180                 1.9490                 2.1353
 Frc consts  --      0.8760                 0.8802                 0.9853
 IR Inten    --      9.8615                14.2576                 4.9551

                     16                     17                     18
                      A                      A                      A
 Frequencies --    893.8782               921.4554               950.6637
 Red. masses --      4.1341                 2.6093                 2.3321
 Frc consts  --      1.9462                 1.3053                 1.2418
 IR Inten    --      8.8615                11.2870                10.2622

                     19                     20                     21
                      A                      A                      A
 Frequencies --    988.5563              1028.1295              1053.7014
 Red. masses --      2.9077                 2.2614                 1.9588
 Frc consts  --      1.6742                 1.4084                 1.2814
 IR Inten    --     42.7469                27.0004                 9.4123

                     22                     23                     24
                      A                      A                      A
 Frequencies --   1069.6151              1105.7585              1136.8280
 Red. masses --      2.2111                 2.0373                 1.3964
 Frc consts  --      1.4904                 1.4677                 1.0633
 IR Inten    --      6.6711                 4.7369                 1.1110

                     25                     26                     27
                      A                      A                      A
 Frequencies --   1167.7297              1209.0424              1234.3717
 Red. masses --      1.2986                 2.1090                 1.4374
 Frc consts  --      1.0433                 1.8164                 1.2904
 IR Inten    --      0.3114                 8.7770                 5.4678

                     28                     29                     30
                      A                      A                      A
 Frequencies --   1253.7072              1267.1280              1282.9495
 Red. masses --      1.4525                 1.4341                 1.3554
 Frc consts  --      1.3451                 1.3567                 1.3144
 IR Inten    --     10.6990                 4.2657                 5.0829

                     31                     32                     33
                      A                      A                      A
 Frequencies --   1320.1308              1329.9436              1349.4852
 Red. masses --      1.5256                 1.3686                 1.6343
 Frc consts  --      1.5665                 1.4262                 1.7535
 IR Inten    --      6.1687                 2.9868                 5.5116

                     34                     35                     36
                      A                      A                      A
 Frequencies --   1365.9434              1383.1357              1396.2128
 Red. masses --      1.3736                 1.3571                 1.4067
 Frc consts  --      1.5100                 1.5296                 1.6157
 IR Inten    --      0.4753                 1.8642                 9.3138

                     37                     38                     39
                      A                      A                      A
 Frequencies --   1460.1757              1477.7056              1488.1930
 Red. masses --      1.0875                 1.0814                 1.0974
 Frc consts  --      1.3661                 1.3913                 1.4320
 IR Inten    --      6.7296                 1.4748                 6.1041

                     40                     41                     42
                      A                      A                      A
 Frequencies --   1496.3769              1807.9817              3007.3090
 Red. masses --      1.1080                11.5802                 1.0691
 Frc consts  --      1.4617                22.3025                 5.6970
 IR Inten    --      7.9969               168.0298                10.1560

                     43                     44                     45
                      A                      A                      A
 Frequencies --   3020.8431              3045.1010              3051.2607
 Red. masses --      1.0627                 1.0653                 1.0887
 Frc consts  --      5.7137                 5.8199                 5.9722
 IR Inten    --     17.1316                23.5113                38.1285

                     46                     47                     48
                      A                      A                      A
 Frequencies --   3067.3093              3079.6852              3090.0459
 Red. masses --      1.0958                 1.0620                 1.0886
 Frc consts  --      6.0740                 5.9347                 6.1242
 IR Inten    --     51.1755                22.3851                30.8251

                     49                     50                     51
                      A                      A                      A
 Frequencies --   3093.1552              3097.5153              3137.0498
 Red. masses --      1.0942                 1.0956                 1.1081
 Frc consts  --      6.1679                 6.1934                 6.4252
 IR Inten    --     13.7609                21.2404                18.8836

 - Thermochemistry -
 -------------------
 Temperature   298.150 Kelvin.  Pressure   1.00000 Atm.
 Atom     1 has atomic number  8 and mass  15.99491

 Molecular mass:   126.06808 amu.
 Principal axes and moments of inertia in atomic units:
                           1         2         3
     Eigenvalues --   712.951171031.780271419.02434
           X            0.99991  -0.01242  -0.00496
           Y            0.01230   0.99966  -0.02292
           Z            0.00524   0.02285   0.99973
 This molecule is an asymmetric top.
 Rotational symmetry number  1.
 Warning -- assumption of classical behavior for rotation
           may cause significant error
 Rotational temperatures (Kelvin)      0.12149     0.08395     0.06104
 Rotational constants (GHZ):           2.53137     1.74915     1.27182
 Zero-point vibrational energy     424261.1 (Joules/Mol)
                                  101.40084 (Kcal/Mol)
 Warning -- explicit consideration of   9 degrees of freedom as
           vibrations may cause significant error
 Vibrational temperatures:    115.08   308.78   336.48   436.59   502.83
          (Kelvin)            536.07   626.88   710.21   812.85   935.52
                             1048.88  1117.98  1205.50  1259.64  1273.27
                             1286.09  1325.77  1367.79  1422.31  1479.25
                             1516.04  1538.94  1590.94  1635.64  1680.10
                             1739.54  1775.98  1803.80  1823.11  1845.88
                             1899.37  1913.49  1941.61  1965.29  1990.02
                             2008.84  2100.86  2126.09  2141.18  2152.95
                             2601.28  4326.84  4346.31  4381.22  4390.08
                             4413.17  4430.97  4445.88  4450.35  4456.63
                             4513.51

 Zero-point correction=                           0.161593 (Hartree/Particle)
 Thermal correction to Energy=                    0.169042
 Thermal correction to Enthalpy=                  0.169986
 Thermal correction to Gibbs Free Energy=         0.129679
 Sum of electronic and zero-point Energies=           -423.038775
 Sum of electronic and thermal Energies=              -423.031326
 Sum of electronic and thermal Enthalpies=            -423.030382
 Sum of electronic and thermal Free Energies=         -423.070689

                     E (Thermal)             CV                S
                      KCal/Mol        Cal/Mol-Kelvin    Cal/Mol-Kelvin
 Total                  106.075             29.597             84.833
 Electronic               0.000              0.000              0.000
 Translational            0.889              2.981             40.409
 Rotational               0.889              2.981             28.436
 Vibrational            104.298             23.635             15.988
 Vibration     1          0.600              1.963              3.891
 Vibration     2          0.645              1.819              2.004
 Vibration     3          0.654              1.789              1.849
 Vibration     4          0.695              1.667              1.398
 Vibration     5          0.727              1.576              1.169
 Vibration     6          0.744              1.528              1.069
 Vibration     7          0.796              1.392              0.840
 Vibration     8          0.849              1.264              0.674
 Vibration     9          0.921              1.107              0.514

 Optimization completed.
    -- Stationary point found.
 Normal termination of Gaussian 09 at Mon Jan 27 13:51:23 2020.
