 Gaussian 09, Revision D.01,
 Gaussian 09:  ES64L-G09RevD.01 24-Apr-2013

 -----------------------------
 # b3lyp 6-31G(2df,p) opt Freq
 -----------------------------

 -----
 titel
 -----
 Symbolic Z-matrix:
 Charge =  0 Multiplicity = 1

 SCF Done:  E(RB3LYP) =  -423.124003215     A.U. after   13 cycles
 Optimization completed.
    -- Stationary point found.
 Normal termination of Gaussian 09 at Mon Jan 27 14:10:54 2020.

 ----------------------------------------------------------------------
 #N Geom=AllCheck Guess=TCheck SCRF=Check GenChk RB3LYP/6-31G(2df,p) Fr
 eq
 ----------------------------------------------------------------------

 Structure from the checkpoint file:  "/scratch/puck/g09_83bf47b6-83f2-42ad-a0c5-bac5cd54992d/Gau-64280.chk"
 -----
 titel
 -----
 Charge =  0 Multiplicity = 1

                         Standard orientation:
 ---------------------------------------------------------------------
 Center     Atomic      Atomic             Coordinates (Angstroms)
 Number     Number       Type             X           Y           Z
 ---------------------------------------------------------------------
      1          6           0       -2.396177   -0.979975   -0.746420
      2          6           0       -1.448884   -0.115108    0.053182
      3          8           0       -1.355014   -0.475872    1.409464
      4          6           0       -1.267857    1.344485   -0.283841
      5          6           0       -0.154747    0.351497   -0.560615
      6          6           0        1.119502    0.426385    0.268213
      7          8           0        1.856700    1.624931    0.026609
      8          6           0        1.951115   -0.762443    0.050005
      9          6           0        2.642215   -1.718365   -0.182791
     10          1           0       -2.396482   -0.695925   -1.802852
     11          1           0       -2.108483   -2.033003   -0.668642
     12          1           0       -3.423093   -0.879525   -0.373834
     13          1           0       -2.166917   -0.195823    1.845803
     14          1           0       -1.806900    1.767382   -1.124913
     15          1           0       -1.108103    2.026210    0.544823
     16          1           0        0.005496    0.069900   -1.598138
     17          1           0        0.835732    0.475386    1.323169
     18          1           0        2.229425    1.561463   -0.859769
     19          1           0        3.254833   -2.567395   -0.360629
 ---------------------------------------------------------------------

 SCF Done:  E(RB3LYP) =  -423.124003215     A.U. after    1 cycles

 The electronic state is 1-A.
 Alpha  occ. eigenvalues --  -19.14542 -19.13545 -10.25059 -10.24490 -10.19223
 Alpha  occ. eigenvalues --  -10.18401 -10.18165 -10.17777 -10.17275  -1.03237
 Alpha  occ. eigenvalues --   -1.01769  -0.85521  -0.76250  -0.72145  -0.68774
 Alpha  occ. eigenvalues --   -0.59845  -0.57883  -0.54485  -0.51009  -0.49355
 Alpha  occ. eigenvalues --   -0.48242  -0.45481  -0.43092  -0.41241  -0.40048
 Alpha  occ. eigenvalues --   -0.38957  -0.36469  -0.34868  -0.32584  -0.29533
 Alpha  occ. eigenvalues --   -0.27733  -0.26722  -0.25864  -0.25548
 Alpha virt. eigenvalues --    0.03730   0.05670   0.07086   0.10014   0.10972
 Alpha virt. eigenvalues --    0.12433   0.12892   0.14089   0.14209   0.16718
 Alpha virt. eigenvalues --    0.17374   0.18035   0.19365   0.21028   0.24269

 Mulliken charges:
               1
     1  C   -0.445002
     2  C    0.404875
     3  O   -0.457842
     4  C   -0.368257
     5  C   -0.059895
     6  C   -0.074274
     7  O   -0.416689
     8  C    0.311925
     9  C   -0.464053
    10  H    0.117145
    11  H    0.132100
    12  H    0.108808
    13  H    0.283990
    14  H    0.108572
    15  H    0.121913
    16  H    0.087659
    17  H    0.131166
    18  H    0.281175
    19  H    0.196685
 Sum of Mulliken charges =   0.00000

 Dipole moment (field-independent basis, Debye):
    X=             -1.8666    Y=             -0.2500    Z=             -1.3358  Tot=              2.3089
 Quadrupole moment (field-independent basis, Debye-Ang):
   XX=            -48.0062   YY=            -54.0866   ZZ=            -50.4925
   XY=             -4.0922   XZ=             -5.0658   YZ=              0.1309

  Exact polarizability:  88.923 -10.283  81.753  -3.286   1.826  63.761
 Approx polarizability: 115.548 -20.238 126.202  -8.819   4.837  97.568

                      1                      2                      3
                      A                      A                      A
 Frequencies --     45.6732                98.8283               161.1303
 Red. masses --      4.2733                 3.8120                 4.3312
 Frc consts  --      0.0053                 0.0219                 0.0663
 IR Inten    --      1.4007                 0.7600                 0.9889

                      4                      5                      6
                      A                      A                      A
 Frequencies --    197.6031               226.0251               238.6839
 Red. masses --      2.6851                 1.7348                 1.3320
 Frc consts  --      0.0618                 0.0522                 0.0447
 IR Inten    --      4.9061                12.8812                 4.5502

                      7                      8                      9
                      A                      A                      A
 Frequencies --    268.1693               297.5993               312.8487
 Red. masses --      1.1104                 1.6775                 2.7956
 Frc consts  --      0.0470                 0.0875                 0.1612
 IR Inten    --     85.9322                49.3914                37.7678

                     10                     11                     12
                      A                      A                      A
 Frequencies --    366.0744               407.3079               466.4801
 Red. masses --      2.5028                 3.6920                 2.8521
 Frc consts  --      0.1976                 0.3609                 0.3657
 IR Inten    --      1.5030                 6.3736                20.5150

                     13                     14                     15
                      A                      A                      A
 Frequencies --    513.8649               534.1601               597.2819
 Red. masses --      4.1739                 4.2394                 4.7459
 Frc consts  --      0.6494                 0.7127                 0.9975
 IR Inten    --     12.4687                 9.2927                 3.8352

                     16                     17                     18
                      A                      A                      A
 Frequencies --    630.8809               664.1081               722.7621
 Red. masses --      1.2272                 1.2470                 3.8581
 Frc consts  --      0.2878                 0.3240                 1.1875
 IR Inten    --     43.8543                35.4475                 9.8661

                     19                     20                     21
                      A                      A                      A
 Frequencies --    837.3758               866.3970               919.1768
 Red. masses --      1.8376                 1.9213                 1.7737
 Frc consts  --      0.7592                 0.8497                 0.8829
 IR Inten    --      4.4243                 5.1324                 8.0817

                     22                     23                     24
                      A                      A                      A
 Frequencies --    949.7577               988.8482              1023.6279
 Red. masses --      2.5758                 2.1264                 2.6993
 Frc consts  --      1.3689                 1.2250                 1.6664
 IR Inten    --     24.2327                37.2167                20.3008

                     25                     26                     27
                      A                      A                      A
 Frequencies --   1052.4670              1060.3812              1096.2517
 Red. masses --      1.3683                 2.9924                 2.0512
 Frc consts  --      0.8930                 1.9824                 1.4524
 IR Inten    --     28.5807                85.0914                14.3566

                     28                     29                     30
                      A                      A                      A
 Frequencies --   1107.4613              1152.0082              1233.6614
 Red. masses --      1.5100                 1.8153                 1.5571
 Frc consts  --      1.0911                 1.4194                 1.3962
 IR Inten    --     10.5463                12.1557                22.8357

                     31                     32                     33
                      A                      A                      A
 Frequencies --   1268.8625              1279.0278              1303.9505
 Red. masses --      1.7845                 1.5717                 1.5010
 Frc consts  --      1.6928                 1.5149                 1.5036
 IR Inten    --     97.1727                27.9873                11.0034

                     34                     35                     36
                      A                      A                      A
 Frequencies --   1359.7063              1408.9305              1417.0417
 Red. masses --      1.4855                 1.2368                 1.2438
 Frc consts  --      1.6181                 1.4465                 1.4715
 IR Inten    --      5.9723                11.7420                46.4562

                     37                     38                     39
                      A                      A                      A
 Frequencies --   1429.5310              1482.2996              1484.6246
 Red. masses --      1.5202                 1.2743                 1.0681
 Frc consts  --      1.8304                 1.6496                 1.3871
 IR Inten    --     14.2086                 5.6210                 1.9725

                     40                     41                     42
                      A                      A                      A
 Frequencies --   1505.4932              2232.0082              3025.3279
 Red. masses --      1.2978                 5.9167                 1.0381
 Frc consts  --      1.7331                17.3670                 5.5981
 IR Inten    --      5.8747                 0.8569                30.6922

                     43                     44                     45
                      A                      A                      A
 Frequencies --   3082.0389              3090.6826              3114.8379
 Red. masses --      1.0829                 1.0972                 1.1019
 Frc consts  --      6.0604                 6.1753                 6.2986
 IR Inten    --      1.3354                23.1785                16.3122

                     46                     47                     48
                      A                      A                      A
 Frequencies --   3129.7401              3141.7058              3219.4268
 Red. masses --      1.0544                 1.0885                 1.1170
 Frc consts  --      6.0851                 6.3301                 6.8210
 IR Inten    --     10.7718                11.0819                 7.2070

                     49                     50                     51
                      A                      A                      A
 Frequencies --   3503.8898              3800.5521              3804.3372
 Red. masses --      1.1620                 1.0662                 1.0662
 Frc consts  --      8.4057                 9.0735                 9.0917
 IR Inten    --     62.0607                18.9926                22.7477

 - Thermochemistry -
 -------------------
 Temperature   298.150 Kelvin.  Pressure   1.00000 Atm.
 Atom     1 has atomic number  6 and mass  12.00000

 Molecular mass:   126.06808 amu.
 Principal axes and moments of inertia in atomic units:
                           1         2         3
     Eigenvalues --   735.376501601.881041919.44907
           X            0.99997  -0.00219   0.00774
           Y            0.00204   0.99980   0.02011
           Z           -0.00778  -0.02009   0.99977
 This molecule is an asymmetric top.
 Rotational symmetry number  1.
 Warning -- assumption of classical behavior for rotation
           may cause significant error
 Rotational temperatures (Kelvin)      0.11778     0.05407     0.04512
 Rotational constants (GHZ):           2.45417     1.12664     0.94024
 Zero-point vibrational energy     407453.5 (Joules/Mol)
                                   97.38373 (Kcal/Mol)
 Warning -- explicit consideration of  15 degrees of freedom as
           vibrations may cause significant error
 Vibrational temperatures:     65.71   142.19   231.83   284.31   325.20
          (Kelvin)            343.41   385.84   428.18   450.12   526.70
                              586.02   671.16   739.34   768.54   859.35
                              907.70   955.50  1039.89  1204.80  1246.55
                             1322.49  1366.49  1422.73  1472.77  1514.26
                             1525.65  1577.26  1593.39  1657.48  1774.96
                             1825.61  1840.23  1876.09  1956.31  2027.13
                             2038.80  2056.77  2132.70  2136.04  2166.07
                             3211.36  4352.77  4434.36  4446.80  4481.55
                             4502.99  4520.21  4632.03  5041.31  5468.14
                             5473.59

 Zero-point correction=                           0.155191 (Hartree/Particle)
 Thermal correction to Energy=                    0.165474
 Thermal correction to Enthalpy=                  0.166418
 Thermal correction to Gibbs Free Energy=         0.120010
 Sum of electronic and zero-point Energies=           -422.968812
 Sum of electronic and thermal Energies=              -422.958529
 Sum of electronic and thermal Enthalpies=            -422.957585
 Sum of electronic and thermal Free Energies=         -423.003994

                     E (Thermal)             CV                S
                      KCal/Mol        Cal/Mol-Kelvin    Cal/Mol-Kelvin
 Total                  103.837             38.205             97.675
 Electronic               0.000              0.000              0.000
 Translational            0.889              2.981             40.409
 Rotational               0.889              2.981             29.204
 Vibrational            102.059             32.244             28.062
 Vibration     1          0.595              1.979              4.996
 Vibration     2          0.604              1.950              3.477
 Vibration     3          0.622              1.890              2.536
 Vibration     4          0.637              1.843              2.155
 Vibration     5          0.650              1.801              1.910
 Vibration     6          0.657              1.781              1.813
 Vibration     7          0.673              1.732              1.608
 Vibration     8          0.691              1.678              1.430
 Vibration     9          0.701              1.649              1.347
 Vibration    10          0.739              1.542              1.096
 Vibration    11          0.772              1.454              0.936
 Vibration    12          0.824              1.324              0.747
 Vibration    13          0.869              1.219              0.624
 Vibration    14          0.889              1.174              0.578
 Vibration    15          0.955              1.038              0.454

 Normal termination of Gaussian 09 at Mon Jan 27 15:00:39 2020.
