 Gaussian 09, Revision D.01,
 Gaussian 09:  ES64L-G09RevD.01 24-Apr-2013

 -----------------------------
 # b3lyp 6-31G(2df,p) opt Freq
 -----------------------------

 -----
 titel
 -----
 Symbolic Z-matrix:
 Charge =  0 Multiplicity = 1

 SCF Done:  E(RB3LYP) =  -423.106330861     A.U. after   14 cycles
 Optimization completed.
    -- Stationary point found.
 Normal termination of Gaussian 09 at Tue Jan 28 14:09:19 2020.

 ----------------------------------------------------------------------
 #N Geom=AllCheck Guess=TCheck SCRF=Check GenChk RB3LYP/6-31G(2df,p) Fr
 eq
 ----------------------------------------------------------------------

 Structure from the checkpoint file:  "/scratch/puck/g09_8df6a521-cb7d-47ed-ab24-24d81689d833/Gau-147305.chk"
 -----
 titel
 -----
 Charge =  0 Multiplicity = 1

                         Standard orientation:
 ---------------------------------------------------------------------
 Center     Atomic      Atomic             Coordinates (Angstroms)
 Number     Number       Type             X           Y           Z
 ---------------------------------------------------------------------
      1          8           0       -3.548992   -0.138265   -0.172506
      2          6           0       -2.188745    0.060840   -0.520413
      3          6           0       -1.245347   -0.076823    0.681378
      4          6           0        0.200767    0.085671    0.314060
      5          6           0        0.937653    1.340666   -0.172713
      6          6           0        2.228070    0.513895    0.047442
      7          8           0        2.150060   -0.521712   -0.974565
      8          6           0        1.082140   -1.072607   -0.206271
      9          6           0        1.444149   -0.392873    1.069250
     10          1           0       -3.804971    0.567110    0.430244
     11          1           0       -1.954670   -0.707314   -1.264598
     12          1           0       -2.037367    1.037007   -1.007624
     13          1           0       -1.522849    0.668721    1.441724
     14          1           0       -1.409719   -1.059804    1.140415
     15          1           0        0.766711    1.708108   -1.189981
     16          1           0        0.848500    2.155673    0.551543
     17          1           0        3.217194    0.955386    0.146315
     18          1           0        0.725027   -2.069270   -0.431476
     19          1           0        1.611487   -0.728419    2.083599
 ---------------------------------------------------------------------

 SCF Done:  E(RB3LYP) =  -423.106330861     A.U. after    1 cycles

 The electronic state is 1-A.
 Alpha  occ. eigenvalues --  -19.13462 -19.13459 -10.24507 -10.23867 -10.22732
 Alpha  occ. eigenvalues --  -10.20340 -10.19384 -10.18960 -10.18821  -1.06050
 Alpha  occ. eigenvalues --   -1.01565  -0.86321  -0.75889  -0.72745  -0.64934
 Alpha  occ. eigenvalues --   -0.62747  -0.55306  -0.54190  -0.51306  -0.50486
 Alpha  occ. eigenvalues --   -0.46967  -0.44781  -0.43873  -0.42334  -0.40628
 Alpha  occ. eigenvalues --   -0.39124  -0.37178  -0.35564  -0.33272  -0.32285
 Alpha  occ. eigenvalues --   -0.29477  -0.27853  -0.25175  -0.22866
 Alpha virt. eigenvalues --    0.07020   0.08377   0.09393   0.10612   0.12043
 Alpha virt. eigenvalues --    0.13240   0.13530   0.14826   0.15063   0.16448
 Alpha virt. eigenvalues --    0.17074   0.17776   0.18842   0.20455   0.21634

 Mulliken charges:
               1
     1  O   -0.416393
     2  C   -0.053164
     3  C   -0.350807
     4  C    0.303579
     5  C   -0.288288
     6  C    0.069088
     7  O   -0.296138
     8  C    0.058094
     9  C   -0.209893
    10  H    0.280782
    11  H    0.117498
    12  H    0.092429
    13  H    0.088481
    14  H    0.107832
    15  H    0.100843
    16  H    0.100075
    17  H    0.088196
    18  H    0.108888
    19  H    0.098898
 Sum of Mulliken charges =   0.00000

 Dipole moment (field-independent basis, Debye):
    X=             -0.0668    Y=              1.4519    Z=              2.0918  Tot=              2.5471
 Quadrupole moment (field-independent basis, Debye-Ang):
   XX=            -59.3912   YY=            -50.3616   ZZ=            -53.7769
   XY=             -1.9477   XZ=              0.4635   YZ=             -0.0744

  Exact polarizability:  85.877   0.606  71.087  -0.623  -0.019  66.408
 Approx polarizability: 112.768   0.240 108.398  -2.472   3.301 105.045

                      1                      2                      3
                      A                      A                      A
 Frequencies --     79.2318                98.0406               114.6677
 Red. masses --      3.1614                 2.1095                 4.7420
 Frc consts  --      0.0117                 0.0119                 0.0367
 IR Inten    --      0.9055                 3.3021                 0.5985

                      4                      5                      6
                      A                      A                      A
 Frequencies --    282.8992               306.0834               337.0889
 Red. masses --      1.6430                 1.4906                 3.3886
 Frc consts  --      0.0775                 0.0823                 0.2269
 IR Inten    --     42.9515                46.8361                 1.2324

                      7                      8                      9
                      A                      A                      A
 Frequencies --    351.6334               456.4143               534.6488
 Red. masses --      4.6857                 1.9776                 4.2026
 Frc consts  --      0.3414                 0.2427                 0.7078
 IR Inten    --     28.6213                 1.7945                 6.6733

                     10                     11                     12
                      A                      A                      A
 Frequencies --    686.9066               746.2536               774.0500
 Red. masses --      3.2107                 3.4313                 2.1802
 Frc consts  --      0.8926                 1.1258                 0.7696
 IR Inten    --      3.7954                12.3849                 3.9871

                     13                     14                     15
                      A                      A                      A
 Frequencies --    789.2693               807.7641               827.3313
 Red. masses --      1.3399                 2.5322                 1.5504
 Frc consts  --      0.4918                 0.9735                 0.6252
 IR Inten    --      5.5888                10.3192                 7.0470

                     16                     17                     18
                      A                      A                      A
 Frequencies --    908.5236               919.5455               944.0127
 Red. masses --      2.2471                 2.5594                 2.1768
 Frc consts  --      1.0928                 1.2751                 1.1429
 IR Inten    --      6.7530                30.6230                 8.6303

                     19                     20                     21
                      A                      A                      A
 Frequencies --    966.3420               989.6671              1014.9437
 Red. masses --      2.8638                 2.5477                 2.0722
 Frc consts  --      1.5756                 1.4702                 1.2577
 IR Inten    --      3.2301                39.0008                16.9790

                     22                     23                     24
                      A                      A                      A
 Frequencies --   1041.5336              1053.2410              1064.9503
 Red. masses --      2.1693                 2.1465                 2.0247
 Frc consts  --      1.3865                 1.4029                 1.3529
 IR Inten    --      8.2537                 5.0252                 4.0955

                     25                     26                     27
                      A                      A                      A
 Frequencies --   1078.0317              1125.8993              1145.8939
 Red. masses --      3.5256                 1.4168                 1.6389
 Frc consts  --      2.4140                 1.0582                 1.2679
 IR Inten    --    122.0461                 1.0881                 6.6306

                     28                     29                     30
                      A                      A                      A
 Frequencies --   1161.4470              1182.6597              1212.7157
 Red. masses --      1.9126                 1.4514                 1.3773
 Frc consts  --      1.5201                 1.1961                 1.1935
 IR Inten    --      0.3556                 5.5323                 7.1240

                     31                     32                     33
                      A                      A                      A
 Frequencies --   1241.8360              1276.0707              1305.7113
 Red. masses --      1.6678                 1.5381                 2.0087
 Frc consts  --      1.5153                 1.4756                 2.0177
 IR Inten    --      0.5453                 1.5459                23.5260

                     34                     35                     36
                      A                      A                      A
 Frequencies --   1314.8746              1331.3797              1394.5403
 Red. masses --      1.5117                 1.3373                 1.4561
 Frc consts  --      1.5399                 1.3966                 1.6684
 IR Inten    --      1.3177                 3.1365                 6.8348

                     37                     38                     39
                      A                      A                      A
 Frequencies --   1409.3443              1422.3540              1482.3077
 Red. masses --      1.8579                 1.5537                 1.0938
 Frc consts  --      2.1742                 1.8519                 1.4160
 IR Inten    --     27.4827                20.7801                 1.4233

                     40                     41                     42
                      A                      A                      A
 Frequencies --   1489.3513              1512.6397              2982.1108
 Red. masses --      1.1723                 1.0906                 1.0707
 Frc consts  --      1.5321                 1.4703                 5.6099
 IR Inten    --      1.1709                 0.5492                43.3355

                     43                     44                     45
                      A                      A                      A
 Frequencies --   2994.1613              3041.9378              3048.9403
 Red. masses --      1.0659                 1.0567                 1.0910
 Frc consts  --      5.6300                 5.7609                 5.9755
 IR Inten    --     38.3256                38.8156                18.2826

                     46                     47                     48
                      A                      A                      A
 Frequencies --   3080.6899              3102.9966              3146.9493
 Red. masses --      1.0956                 1.1077                 1.0927
 Frc consts  --      6.1263                 6.2840                 6.3756
 IR Inten    --     35.8117                23.4861                40.2685

                     49                     50                     51
                      A                      A                      A
 Frequencies --   3198.6485              3212.4646              3816.2319
 Red. masses --      1.0901                 1.1028                 1.0661
 Frc consts  --      6.5710                 6.7052                 9.1479
 IR Inten    --     12.6818                 8.8947                17.1796

 - Thermochemistry -
 -------------------
 Temperature   298.150 Kelvin.  Pressure   1.00000 Atm.
 Atom     1 has atomic number  8 and mass  15.99491

 Molecular mass:   126.06808 amu.
 Principal axes and moments of inertia in atomic units:
                           1         2         3
     Eigenvalues --   410.279521983.873532018.60307
           X            0.99999   0.00304   0.00422
           Y           -0.00238   0.98899  -0.14798
           Z           -0.00462   0.14797   0.98898
 This molecule is an asymmetric top.
 Rotational symmetry number  1.
 Rotational temperatures (Kelvin)      0.21111     0.04366     0.04291
 Rotational constants (GHZ):           4.39881     0.90971     0.89405
 Zero-point vibrational energy     417540.0 (Joules/Mol)
                                   99.79445 (Kcal/Mol)
 Warning -- explicit consideration of   9 degrees of freedom as
           vibrations may cause significant error
 Vibrational temperatures:    114.00   141.06   164.98   407.03   440.39
          (Kelvin)            485.00   505.92   656.68   769.24   988.30
                             1073.69  1113.68  1135.58  1162.19  1190.34
                             1307.16  1323.02  1358.22  1390.35  1423.91
                             1460.28  1498.53  1515.38  1532.22  1551.05
                             1619.92  1648.68  1671.06  1701.58  1744.83
                             1786.72  1835.98  1878.62  1891.81  1915.56
                             2006.43  2027.73  2046.45  2132.71  2142.84
                             2176.35  4290.59  4307.92  4376.66  4386.74
                             4432.42  4464.51  4527.75  4602.14  4622.01
                             5490.70

 Zero-point correction=                           0.159033 (Hartree/Particle)
 Thermal correction to Energy=                    0.167233
 Thermal correction to Enthalpy=                  0.168178
 Thermal correction to Gibbs Free Energy=         0.125714
 Sum of electronic and zero-point Energies=           -422.947298
 Sum of electronic and thermal Energies=              -422.939098
 Sum of electronic and thermal Enthalpies=            -422.938153
 Sum of electronic and thermal Free Energies=         -422.980617

                     E (Thermal)             CV                S
                      KCal/Mol        Cal/Mol-Kelvin    Cal/Mol-Kelvin
 Total                  104.941             31.360             89.373
 Electronic               0.000              0.000              0.000
 Translational            0.889              2.981             40.409
 Rotational               0.889              2.981             28.887
 Vibrational            103.163             25.399             20.078
 Vibration     1          0.600              1.963              3.910
 Vibration     2          0.603              1.951              3.493
 Vibration     3          0.608              1.937              3.188
 Vibration     4          0.682              1.705              1.516
 Vibration     5          0.696              1.662              1.383
 Vibration     6          0.718              1.601              1.226
 Vibration     7          0.728              1.572              1.159
 Vibration     8          0.815              1.347              0.777
 Vibration     9          0.890              1.173              0.577

 Optimization completed.
    -- Stationary point found.
 Normal termination of Gaussian 09 at Tue Jan 28 14:49:28 2020.
