 Gaussian 09, Revision D.01,
 Gaussian 09:  ES64L-G09RevD.01 24-Apr-2013

 -----------------------------
 # b3lyp 6-31G(2df,p) opt Freq
 -----------------------------

 -----
 titel
 -----
 Symbolic Z-matrix:
 Charge =  0 Multiplicity = 1

 SCF Done:  E(RB3LYP) =  -423.136119805     A.U. after   14 cycles
 Optimization completed.
    -- Stationary point found.
 Normal termination of Gaussian 09 at Mon Jan 27 11:57:09 2020.

 ----------------------------------------------------------------------
 #N Geom=AllCheck Guess=TCheck SCRF=Check GenChk RB3LYP/6-31G(2df,p) Fr
 eq
 ----------------------------------------------------------------------

 Structure from the checkpoint file:  "/scratch/puck/g09_eb879359-3d8b-4d00-ae3a-e6307754f426/Gau-71293.chk"
 -----
 titel
 -----
 Charge =  0 Multiplicity = 1

                         Standard orientation:
 ---------------------------------------------------------------------
 Center     Atomic      Atomic             Coordinates (Angstroms)
 Number     Number       Type             X           Y           Z
 ---------------------------------------------------------------------
      1          6           0        1.633522   -1.239481   -0.633148
      2          8           0        1.440686   -1.233433    0.793482
      3          6           0        1.006598   -0.111421    0.052085
      4          6           0        1.477427    1.337374    0.200074
      5          6           0        0.085924    1.765915   -0.361450
      6          6           0       -0.447216    0.336650   -0.079272
      7          6           0       -1.437332    0.045762    1.069941
      8          6           0       -2.294675   -0.606534   -0.030785
      9          8           0       -1.297253   -0.310715   -1.035684
     10          1           0        2.669266   -1.164087   -0.961456
     11          1           0        1.007053   -1.937573   -1.184483
     12          1           0        1.612146    1.615377    1.248996
     13          1           0        2.362530    1.637854   -0.363501
     14          1           0       -0.426788    2.591488    0.136235
     15          1           0        0.114337    1.953588   -1.437594
     16          1           0       -1.050068   -0.640753    1.824097
     17          1           0       -1.868613    0.924459    1.552294
     18          1           0       -2.464432   -1.684302    0.068527
     19          1           0       -3.248374   -0.112466   -0.250173
 ---------------------------------------------------------------------

 SCF Done:  E(RB3LYP) =  -423.136119805     A.U. after    1 cycles

 The electronic state is 1-A.
 Alpha  occ. eigenvalues --  -19.15036 -19.13459 -10.23761 -10.23447 -10.23124
 Alpha  occ. eigenvalues --  -10.23041 -10.18859 -10.18795 -10.18597  -1.07103
 Alpha  occ. eigenvalues --   -1.03893  -0.83622  -0.74001  -0.67318  -0.66399
 Alpha  occ. eigenvalues --   -0.63341  -0.59139  -0.51993  -0.49991  -0.49443
 Alpha  occ. eigenvalues --   -0.47697  -0.46975  -0.43861  -0.42089  -0.39281
 Alpha  occ. eigenvalues --   -0.38105  -0.36925  -0.35446  -0.33766  -0.31652
 Alpha  occ. eigenvalues --   -0.30967  -0.28854  -0.27320  -0.23887
 Alpha virt. eigenvalues --    0.05507   0.09520   0.10232   0.11050   0.11943
 Alpha virt. eigenvalues --    0.12540   0.13905   0.15302   0.15835   0.16198
 Alpha virt. eigenvalues --    0.17568   0.18216   0.19330   0.20368   0.21312

 Mulliken charges:
               1
     1  C   -0.259991
     2  O   -0.282900
     3  C    0.404581
     4  C   -0.337177
     5  C   -0.308527
     6  C    0.381770
     7  C   -0.350125
     8  C   -0.077083
     9  O   -0.319578
    10  H    0.114785
    11  H    0.128167
    12  H    0.117931
    13  H    0.111591
    14  H    0.102925
    15  H    0.120613
    16  H    0.130171
    17  H    0.109897
    18  H    0.109012
    19  H    0.103937
 Sum of Mulliken charges =   0.00000

 Dipole moment (field-independent basis, Debye):
    X=             -0.4145    Y=              1.1545    Z=              0.0996  Tot=              1.2307
 Quadrupole moment (field-independent basis, Debye-Ang):
   XX=            -50.2237   YY=            -52.4256   ZZ=            -55.1519
   XY=              1.4470   XZ=             -5.1032   YZ=              2.1086

  Exact polarizability:  84.027   0.721  76.966  -3.469   3.218  64.474
 Approx polarizability: 108.187  -1.214 108.503  -2.443   2.849 102.839

                      1                      2                      3
                      A                      A                      A
 Frequencies --     86.1976                95.0152               172.8635
 Red. masses --      2.2423                 2.7679                 3.4033
 Frc consts  --      0.0098                 0.0147                 0.0599
 IR Inten    --      0.7220                 2.4702                 7.5904

                      4                      5                      6
                      A                      A                      A
 Frequencies --    228.6087               285.6800               327.5612
 Red. masses --      4.0721                 2.2512                 2.5435
 Frc consts  --      0.1254                 0.1082                 0.1608
 IR Inten    --      1.5013                 2.2085                 0.8685

                      7                      8                      9
                      A                      A                      A
 Frequencies --    429.6403               494.6152               544.5339
 Red. masses --      3.6125                 3.2066                 3.8766
 Frc consts  --      0.3929                 0.4622                 0.6772
 IR Inten    --      0.0064                 4.5398                 5.4622

                     10                     11                     12
                      A                      A                      A
 Frequencies --    590.4701               747.0634               787.1784
 Red. masses --      4.3225                 1.3218                 1.1571
 Frc consts  --      0.8879                 0.4346                 0.4224
 IR Inten    --      7.1090                 0.3236                 0.9973

                     13                     14                     15
                      A                      A                      A
 Frequencies --    859.3234               863.6213               878.5701
 Red. masses --      2.5712                 3.1133                 2.0155
 Frc consts  --      1.1187                 1.3681                 0.9166
 IR Inten    --     14.3156                15.8644                11.4177

                     16                     17                     18
                      A                      A                      A
 Frequencies --    894.6802               908.1166               934.3934
 Red. masses --      2.5311                 2.7410                 1.9101
 Frc consts  --      1.1937                 1.3318                 0.9826
 IR Inten    --      3.6976                 5.1402                21.5176

                     19                     20                     21
                      A                      A                      A
 Frequencies --    948.9186               978.6552              1023.3327
 Red. masses --      2.4925                 3.0094                 7.6615
 Frc consts  --      1.3223                 1.6982                 4.7272
 IR Inten    --      5.5774                 9.4918               105.3296

                     22                     23                     24
                      A                      A                      A
 Frequencies --   1094.9636              1120.6484              1133.4145
 Red. masses --      2.1921                 1.4667                 1.6943
 Frc consts  --      1.5485                 1.0852                 1.2824
 IR Inten    --     28.1738                16.1086                 2.1088

                     25                     26                     27
                      A                      A                      A
 Frequencies --   1153.1555              1158.1129              1166.3980
 Red. masses --      1.7150                 1.7836                 1.6369
 Frc consts  --      1.3436                 1.4094                 1.3121
 IR Inten    --     12.1323                 2.5493                 9.0628

                     28                     29                     30
                      A                      A                      A
 Frequencies --   1169.9490              1191.7887              1220.8927
 Red. masses --      1.4166                 1.9148                 1.3254
 Frc consts  --      1.1424                 1.6024                 1.1640
 IR Inten    --      7.6161                 4.2577                 0.7285

                     31                     32                     33
                      A                      A                      A
 Frequencies --   1231.8330              1251.7614              1260.9644
 Red. masses --      1.2605                 1.5500                 1.4952
 Frc consts  --      1.1269                 1.4309                 1.4007
 IR Inten    --      5.4905                 0.3855                 3.0053

                     34                     35                     36
                      A                      A                      A
 Frequencies --   1302.1845              1353.3908              1431.2075
 Red. masses --      2.9724                 1.4277                 2.1524
 Frc consts  --      2.9696                 1.5408                 2.5976
 IR Inten    --     17.4206                 2.2302                11.8459

                     37                     38                     39
                      A                      A                      A
 Frequencies --   1471.2599              1483.5457              1490.5705
 Red. masses --      1.0878                 1.1075                 1.1382
 Frc consts  --      1.3873                 1.4362                 1.4899
 IR Inten    --      3.1511                 3.7504                 5.2280

                     40                     41                     42
                      A                      A                      A
 Frequencies --   1531.1393              1532.3182              3025.4258
 Red. masses --      1.1177                 1.6676                 1.0556
 Frc consts  --      1.5438                 2.3070                 5.6930
 IR Inten    --      1.5216                 8.8649                87.8531

                     43                     44                     45
                      A                      A                      A
 Frequencies --   3065.5751              3068.5988              3070.1010
 Red. masses --      1.0574                 1.1111                 1.0599
 Frc consts  --      5.8550                 6.1644                 5.8861
 IR Inten    --     22.6798                31.5746                19.9178

                     46                     47                     48
                      A                      A                      A
 Frequencies --   3080.7063              3087.3744              3116.1031
 Red. masses --      1.0590                 1.0504                 1.1079
 Frc consts  --      5.9216                 5.8993                 6.3384
 IR Inten    --     20.6330                25.4709                 6.8558

                     49                     50                     51
                      A                      A                      A
 Frequencies --   3130.9474              3140.2882              3181.7836
 Red. masses --      1.1079                 1.1090                 1.1194
 Frc consts  --      6.3989                 6.4436                 6.6768
 IR Inten    --     24.7944                15.7917                15.3301

 - Thermochemistry -
 -------------------
 Temperature   298.150 Kelvin.  Pressure   1.00000 Atm.
 Atom     1 has atomic number  6 and mass  12.00000

 Molecular mass:   126.06808 amu.
 Principal axes and moments of inertia in atomic units:
                           1         2         3
     Eigenvalues --   692.372281139.042091405.58630
           X            0.99887   0.03317  -0.03413
           Y           -0.03207   0.99896   0.03234
           Z            0.03517  -0.03121   0.99889
 This molecule is an asymmetric top.
 Rotational symmetry number  1.
 Warning -- assumption of classical behavior for rotation
           may cause significant error
 Rotational temperatures (Kelvin)      0.12510     0.07604     0.06162
 Rotational constants (GHZ):           2.60661     1.58444     1.28398
 Zero-point vibrational energy     417469.4 (Joules/Mol)
                                   99.77759 (Kcal/Mol)
 Warning -- explicit consideration of  10 degrees of freedom as
           vibrations may cause significant error
 Vibrational temperatures:    124.02   136.71   248.71   328.92   411.03
          (Kelvin)            471.29   618.16   711.64   783.46   849.55
                             1074.86  1132.57  1236.37  1242.56  1264.06
                             1287.24  1306.58  1344.38  1365.28  1408.06
                             1472.35  1575.41  1612.36  1630.73  1659.13
                             1666.26  1678.18  1683.29  1714.72  1756.59
                             1772.33  1801.00  1814.24  1873.55  1947.23
                             2059.19  2116.81  2134.49  2144.60  2202.97
                             2204.66  4352.91  4410.67  4415.02  4417.19
                             4432.44  4442.04  4483.37  4504.73  4518.17
                             4577.87

 Zero-point correction=                           0.159006 (Hartree/Particle)
 Thermal correction to Energy=                    0.167067
 Thermal correction to Enthalpy=                  0.168011
 Thermal correction to Gibbs Free Energy=         0.126129
 Sum of electronic and zero-point Energies=           -422.977114
 Sum of electronic and thermal Energies=              -422.969053
 Sum of electronic and thermal Enthalpies=            -422.968109
 Sum of electronic and thermal Free Energies=         -423.009991

                     E (Thermal)             CV                S
                      KCal/Mol        Cal/Mol-Kelvin    Cal/Mol-Kelvin
 Total                  104.836             30.827             88.149
 Electronic               0.000              0.000              0.000
 Translational            0.889              2.981             40.409
 Rotational               0.889              2.981             28.496
 Vibrational            103.059             24.866             19.244
 Vibration     1          0.601              1.959              3.745
 Vibration     2          0.603              1.953              3.554
 Vibration     3          0.626              1.876              2.404
 Vibration     4          0.651              1.797              1.890
 Vibration     5          0.683              1.700              1.499
 Vibration     6          0.711              1.620              1.272
 Vibration     7          0.791              1.406              0.860
 Vibration     8          0.850              1.262              0.672
 Vibration     9          0.900              1.152              0.556
 Vibration    10          0.948              1.052              0.466

 Normal termination of Gaussian 09 at Mon Jan 27 12:38:55 2020.
