 Gaussian 09, Revision D.01,
 Gaussian 09:  ES64L-G09RevD.01 24-Apr-2013

 -----------------------------
 # b3lyp 6-31G(2df,p) opt Freq
 -----------------------------

 -----
 titel
 -----
 Symbolic Z-matrix:
 Charge =  0 Multiplicity = 1

 SCF Done:  E(RB3LYP) =  -423.159386072     A.U. after   14 cycles
 Optimization completed.
    -- Stationary point found.
 Normal termination of Gaussian 09 at Mon Jan 27 11:25:25 2020.

 ----------------------------------------------------------------------
 #N Geom=AllCheck Guess=TCheck SCRF=Check GenChk RB3LYP/6-31G(2df,p) Fr
 eq
 ----------------------------------------------------------------------

 Structure from the checkpoint file:  "/scratch/puck/g09_978cf58e-a2c6-483a-b1f6-c1fee9437dd5/Gau-61434.chk"
 -----
 titel
 -----
 Charge =  0 Multiplicity = 1

                         Standard orientation:
 ---------------------------------------------------------------------
 Center     Atomic      Atomic             Coordinates (Angstroms)
 Number     Number       Type             X           Y           Z
 ---------------------------------------------------------------------
      1          6           0       -2.067964   -1.032874    0.059732
      2          8           0       -3.075959    0.004662    0.051024
      3          6           0       -2.076028    1.047132   -0.036995
      4          6           0       -0.976745    0.010622   -0.023092
      5          6           0        0.344025    0.014221   -0.061539
      6          6           0        1.255497    1.222030   -0.135409
      7          6           0        2.605840    0.613496    0.276922
      8          8           0        2.568312   -0.724268   -0.201866
      9          6           0        1.246239   -1.207346   -0.006926
     10          1           0       -2.100226   -1.634004    0.979913
     11          1           0       -2.162230   -1.708798   -0.802535
     12          1           0       -2.176521    1.638800   -0.958109
     13          1           0       -2.112596    1.730758    0.823600
     14          1           0        1.310607    1.604058   -1.162302
     15          1           0        0.935361    2.044422    0.510716
     16          1           0        3.472621    1.104992   -0.171125
     17          1           0        2.720102    0.634184    1.373234
     18          1           0        1.034499   -1.943538   -0.790275
     19          1           0        1.154382   -1.717719    0.967457
 ---------------------------------------------------------------------

 SCF Done:  E(RB3LYP) =  -423.159386072     A.U. after    1 cycles

 The electronic state is 1-A.
 Alpha  occ. eigenvalues --  -19.14038 -19.13327 -10.23432 -10.23413 -10.23376
 Alpha  occ. eigenvalues --  -10.23193 -10.19508 -10.19414 -10.19096  -1.03989
 Alpha  occ. eigenvalues --   -1.03795  -0.80910  -0.75307  -0.71125  -0.69583
 Alpha  occ. eigenvalues --   -0.60804  -0.60635  -0.53410  -0.51223  -0.49672
 Alpha  occ. eigenvalues --   -0.48190  -0.45399  -0.44603  -0.41429  -0.40501
 Alpha  occ. eigenvalues --   -0.39741  -0.38594  -0.37956  -0.34076  -0.31841
 Alpha  occ. eigenvalues --   -0.30779  -0.26839  -0.25571  -0.23187
 Alpha virt. eigenvalues --    0.00589   0.07456   0.08707   0.10853   0.11393
 Alpha virt. eigenvalues --    0.12980   0.13992   0.14215   0.15915   0.16470
 Alpha virt. eigenvalues --    0.16724   0.18226   0.18926   0.19668   0.21763

 Mulliken charges:
               1
     1  C   -0.170408
     2  O   -0.275103
     3  C   -0.168226
     4  C    0.180052
     5  C    0.146602
     6  C   -0.331699
     7  C   -0.080044
     8  O   -0.249463
     9  C   -0.159805
    10  H    0.111440
    11  H    0.111888
    12  H    0.111607
    13  H    0.110356
    14  H    0.123015
    15  H    0.112874
    16  H    0.112082
    17  H    0.092253
    18  H    0.119810
    19  H    0.102769
 Sum of Mulliken charges =   0.00000

 Dipole moment (field-independent basis, Debye):
    X=              0.8679    Y=              0.8849    Z=              0.3195  Tot=              1.2800
 Quadrupole moment (field-independent basis, Debye-Ang):
   XX=            -65.2032   YY=            -49.0424   ZZ=            -52.4642
   XY=              3.7683   XZ=              1.3858   YZ=             -0.2978

  Exact polarizability:  99.968   3.584  80.075   0.263  -0.632  59.460
 Approx polarizability: 134.343   3.046 112.342  -2.132  -0.076  90.625

                      1                      2                      3
                      A                      A                      A
 Frequencies --     55.5069               126.1395               126.5502
 Red. masses --      3.4092                 3.2332                 3.8814
 Frc consts  --      0.0062                 0.0303                 0.0366
 IR Inten    --      3.7596                 1.9415                 2.4375

                      4                      5                      6
                      A                      A                      A
 Frequencies --    168.0048               248.2750               294.4120
 Red. masses --      2.4568                 1.9160                 2.0064
 Frc consts  --      0.0409                 0.0696                 0.1025
 IR Inten    --      1.0338                 7.0313                 4.3954

                      7                      8                      9
                      A                      A                      A
 Frequencies --    379.8897               472.1578               478.1332
 Red. masses --      5.3420                 3.8044                 2.3862
 Frc consts  --      0.4542                 0.4997                 0.3214
 IR Inten    --      0.0429                 0.6516                 0.0595

                     10                     11                     12
                      A                      A                      A
 Frequencies --    652.9791               752.2110               867.7101
 Red. masses --      2.4638                 4.0103                 2.9887
 Frc consts  --      0.6189                 1.3369                 1.3258
 IR Inten    --      5.3995                 1.8209                 5.9906

                     13                     14                     15
                      A                      A                      A
 Frequencies --    879.3976               911.6119               940.1922
 Red. masses --      2.5240                 1.3614                 3.2421
 Frc consts  --      1.1500                 0.6666                 1.6885
 IR Inten    --      2.9694                 1.6980                12.1311

                     16                     17                     18
                      A                      A                      A
 Frequencies --    948.9493               965.1122              1008.8808
 Red. masses --      2.6594                 2.8445                 1.5577
 Frc consts  --      1.4110                 1.5610                 0.9341
 IR Inten    --      6.2210                22.8507                 1.8990

                     19                     20                     21
                      A                      A                      A
 Frequencies --   1020.9644              1039.9151              1069.3889
 Red. masses --     10.4645                 4.4551                 1.7965
 Frc consts  --      6.4267                 2.8386                 1.2105
 IR Inten    --     81.8189                41.1067                 4.6533

                     22                     23                     24
                      A                      A                      A
 Frequencies --   1085.2695              1093.4812              1122.0848
 Red. masses --      2.7615                 2.5137                 6.4312
 Frc consts  --      1.9163                 1.7709                 4.7708
 IR Inten    --      0.3802                 6.9972                69.1420

                     25                     26                     27
                      A                      A                      A
 Frequencies --   1135.8396              1136.6801              1202.5782
 Red. masses --      1.0639                 1.1564                 2.0685
 Frc consts  --      0.8087                 0.8803                 1.7625
 IR Inten    --      0.0681                 0.2233                16.7264

                     28                     29                     30
                      A                      A                      A
 Frequencies --   1206.8863              1235.1845              1260.3376
 Red. masses --      1.1414                 2.2127                 1.3067
 Frc consts  --      0.9795                 1.9890                 1.2229
 IR Inten    --      2.2242                 1.3458                 2.8779

                     31                     32                     33
                      A                      A                      A
 Frequencies --   1296.6297              1301.0686              1348.5772
 Red. masses --      1.3370                 1.3264                 1.2742
 Frc consts  --      1.3244                 1.3229                 1.3653
 IR Inten    --      0.7521                 0.3378                 1.8896

                     34                     35                     36
                      A                      A                      A
 Frequencies --   1360.6426              1396.3544              1473.9197
 Red. masses --      1.4812                 1.3622                 1.0935
 Frc consts  --      1.6156                 1.5649                 1.3997
 IR Inten    --     22.0133                19.9909                 3.3900

                     37                     38                     39
                      A                      A                      A
 Frequencies --   1494.1589              1501.3784              1520.9329
 Red. masses --      1.0787                 1.0816                 1.1056
 Frc consts  --      1.4189                 1.4365                 1.5068
 IR Inten    --      0.9528                 0.4483                 0.4481

                     40                     41                     42
                      A                      A                      A
 Frequencies --   1521.9451              1827.0035              2951.6319
 Red. masses --      1.1038                11.5493                 1.0719
 Frc consts  --      1.5063                22.7135                 5.5021
 IR Inten    --      0.4870                 0.3423                46.9989

                     43                     44                     45
                      A                      A                      A
 Frequencies --   2971.1857              2982.3676              2994.8848
 Red. masses --      1.0723                 1.0517                 1.0573
 Frc consts  --      5.5771                 5.5115                 5.5873
 IR Inten    --     75.3952               112.5784                 8.6289

                     46                     47                     48
                      A                      A                      A
 Frequencies --   3020.2708              3021.8808              3030.4136
 Red. masses --      1.1093                 1.1081                 1.0649
 Frc consts  --      5.9618                 5.9619                 5.7619
 IR Inten    --     50.4226                32.9609                17.9098

                     49                     50                     51
                      A                      A                      A
 Frequencies --   3055.2392              3088.3667              3101.4994
 Red. masses --      1.0894                 1.0962                 1.0944
 Frc consts  --      5.9916                 6.1604                 6.2028
 IR Inten    --     26.0791                17.2096                38.0001

 - Thermochemistry -
 -------------------
 Temperature   298.150 Kelvin.  Pressure   1.00000 Atm.
 Atom     1 has atomic number  6 and mass  12.00000

 Molecular mass:   126.06808 amu.
 Principal axes and moments of inertia in atomic units:
                           1         2         3
     Eigenvalues --   396.582101946.887472270.05919
           X            0.99991   0.01262   0.00452
           Y           -0.01259   0.99990  -0.00660
           Z           -0.00460   0.00654   0.99997
 This molecule is an asymmetric top.
 Rotational symmetry number  1.
 Rotational temperatures (Kelvin)      0.21840     0.04449     0.03815
 Rotational constants (GHZ):           4.55074     0.92699     0.79502
 Zero-point vibrational energy     419560.7 (Joules/Mol)
                                  100.27742 (Kcal/Mol)
 Warning -- explicit consideration of   9 degrees of freedom as
           vibrations may cause significant error
 Vibrational temperatures:     79.86   181.49   182.08   241.72   357.21
          (Kelvin)            423.59   546.58   679.33   687.93   939.49
                             1082.26  1248.44  1265.26  1311.60  1352.73
                             1365.32  1388.58  1451.55  1468.94  1496.20
                             1538.61  1561.46  1573.27  1614.43  1634.22
                             1635.43  1730.24  1736.44  1777.15  1813.34
                             1865.56  1871.95  1940.30  1957.66  2009.04
                             2120.64  2149.76  2160.15  2188.28  2189.74
                             2628.65  4246.73  4274.87  4290.96  4308.97
                             4345.49  4347.81  4360.08  4395.80  4443.47
                             4462.36

 Zero-point correction=                           0.159802 (Hartree/Particle)
 Thermal correction to Energy=                    0.168086
 Thermal correction to Enthalpy=                  0.169030
 Thermal correction to Gibbs Free Energy=         0.126050
 Sum of electronic and zero-point Energies=           -422.999584
 Sum of electronic and thermal Energies=              -422.991300
 Sum of electronic and thermal Enthalpies=            -422.990356
 Sum of electronic and thermal Free Energies=         -423.033336

                     E (Thermal)             CV                S
                      KCal/Mol        Cal/Mol-Kelvin    Cal/Mol-Kelvin
 Total                  105.475             30.269             90.458
 Electronic               0.000              0.000              0.000
 Translational            0.889              2.981             40.409
 Rotational               0.889              2.981             28.951
 Vibrational            103.698             24.308             21.098
 Vibration     1          0.596              1.975              4.611
 Vibration     2          0.611              1.927              3.004
 Vibration     3          0.611              1.927              2.998
 Vibration     4          0.625              1.882              2.458
 Vibration     5          0.662              1.766              1.743
 Vibration     6          0.689              1.684              1.448
 Vibration     7          0.750              1.513              1.040
 Vibration     8          0.829              1.312              0.732
 Vibration     9          0.835              1.299              0.715

 Optimization completed.
    -- Stationary point found.
 Normal termination of Gaussian 09 at Mon Jan 27 13:11:28 2020.
