 Gaussian 09, Revision D.01,
 Gaussian 09:  ES64L-G09RevD.01 24-Apr-2013

 -----------------------------
 # b3lyp 6-31G(2df,p) opt Freq
 -----------------------------

 -----
 titel
 -----
 Symbolic Z-matrix:
 Charge =  0 Multiplicity = 1

 SCF Done:  E(RB3LYP) =  -423.156205984     A.U. after   13 cycles
 Optimization completed.
    -- Stationary point found.
 Normal termination of Gaussian 09 at Mon Jan 27 18:25:44 2020.

 ----------------------------------------------------------------------
 #N Geom=AllCheck Guess=TCheck SCRF=Check GenChk RB3LYP/6-31G(2df,p) Fr
 eq
 ----------------------------------------------------------------------

 Structure from the checkpoint file:  "/scratch/puck/g09_f6b7d9cd-f8ed-4946-8d56-cda561fb47a8/Gau-4466.chk"
 -----
 titel
 -----
 Charge =  0 Multiplicity = 1

                         Standard orientation:
 ---------------------------------------------------------------------
 Center     Atomic      Atomic             Coordinates (Angstroms)
 Number     Number       Type             X           Y           Z
 ---------------------------------------------------------------------
      1          8           0       -2.560569    0.382525   -0.327886
      2          6           0       -1.240719    0.027357   -0.121511
      3          6           0       -0.535797   -1.138730   -0.812773
      4          6           0        0.417901   -1.250628    0.429106
      5          6           0        1.828914   -0.735585    0.151963
      6          8           0        1.795245    0.415249   -0.677780
      7          6           0        1.034549    1.488036   -0.145256
      8          6           0       -0.311114    1.073141    0.419760
      9          6           0       -0.457368   -0.225152    1.180113
     10          1           0       -3.100095   -0.412955   -0.252819
     11          1           0       -1.199134   -2.008830   -0.868960
     12          1           0       -0.083592   -0.963065   -1.791460
     13          1           0        0.444670   -2.243368    0.882764
     14          1           0        2.348442   -0.520658    1.101719
     15          1           0        2.421431   -1.472804   -0.399437
     16          1           0        1.604036    1.990238    0.657368
     17          1           0        0.917609    2.203671   -0.966136
     18          1           0       -0.867933    1.896186    0.861715
     19          1           0       -0.781035   -0.281245    2.212175
 ---------------------------------------------------------------------

 SCF Done:  E(RB3LYP) =  -423.156205984     A.U. after    1 cycles

 The electronic state is 1-A.
 Alpha  occ. eigenvalues --  -19.14824 -19.13375 -10.23911 -10.22386 -10.22211
 Alpha  occ. eigenvalues --  -10.19111 -10.18842 -10.18287 -10.18167  -1.03562
 Alpha  occ. eigenvalues --   -1.02675  -0.88522  -0.76962  -0.69462  -0.67202
 Alpha  occ. eigenvalues --   -0.62443  -0.56064  -0.52992  -0.52406  -0.48258
 Alpha  occ. eigenvalues --   -0.47069  -0.45941  -0.43335  -0.41164  -0.39507
 Alpha  occ. eigenvalues --   -0.39020  -0.37441  -0.35758  -0.34703  -0.30688
 Alpha  occ. eigenvalues --   -0.29370  -0.27122  -0.25551  -0.22399
 Alpha virt. eigenvalues --    0.07551   0.09222   0.10814   0.11975   0.13764
 Alpha virt. eigenvalues --    0.14026   0.14832   0.15937   0.16177   0.17377
 Alpha virt. eigenvalues --    0.17728   0.18946   0.19126   0.20870   0.22848

 Mulliken charges:
               1
     1  O   -0.461591
     2  C    0.392977
     3  C   -0.308560
     4  C   -0.039062
     5  C   -0.083451
     6  O   -0.245026
     7  C   -0.108974
     8  C   -0.074560
     9  C   -0.187196
    10  H    0.281618
    11  H    0.085489
    12  H    0.112121
    13  H    0.071301
    14  H    0.085302
    15  H    0.104577
    16  H    0.085301
    17  H    0.110542
    18  H    0.096453
    19  H    0.082741
 Sum of Mulliken charges =   0.00000

 Dipole moment (field-independent basis, Debye):
    X=             -0.6967    Y=             -1.4784    Z=              1.3020  Tot=              2.0895
 Quadrupole moment (field-independent basis, Debye-Ang):
   XX=            -53.9472   YY=            -49.9672   ZZ=            -53.8150
   XY=              2.9846   XZ=              0.9704   YZ=              0.8335

  Exact polarizability:  79.364   0.635  77.575   2.359   1.095  66.605
 Approx polarizability: 109.299  -0.111 112.345   4.198  -0.732 105.652

                      1                      2                      3
                      A                      A                      A
 Frequencies --    180.1015               239.3218               283.6938
 Red. masses --      3.5573                 2.4214                 3.3607
 Frc consts  --      0.0680                 0.0817                 0.1594
 IR Inten    --      0.3355                 3.1376                 9.1807

                      4                      5                      6
                      A                      A                      A
 Frequencies --    313.3911               361.4789               411.6732
 Red. masses --      1.6607                 1.4048                 4.1765
 Frc consts  --      0.0961                 0.1082                 0.4170
 IR Inten    --     29.1098                49.3505                14.5886

                      7                      8                      9
                      A                      A                      A
 Frequencies --    412.9799               500.5567               556.4150
 Red. masses --      2.6343                 3.0567                 3.2847
 Frc consts  --      0.2647                 0.4512                 0.5992
 IR Inten    --     12.6337                 0.6343                 4.6586

                     10                     11                     12
                      A                      A                      A
 Frequencies --    634.9379               719.0412               745.5278
 Red. masses --      3.5303                 3.2917                 3.3522
 Frc consts  --      0.8385                 1.0027                 1.0977
 IR Inten    --      8.8851                 1.0668                 6.3727

                     13                     14                     15
                      A                      A                      A
 Frequencies --    797.8954               830.2312               880.9743
 Red. masses --      3.2328                 2.6466                 2.6701
 Frc consts  --      1.2126                 1.0748                 1.2209
 IR Inten    --      3.9154                 2.4042                16.6752

                     16                     17                     18
                      A                      A                      A
 Frequencies --    905.8510               933.6529               958.1450
 Red. masses --      2.1929                 1.7048                 2.3687
 Frc consts  --      1.0602                 0.8756                 1.2812
 IR Inten    --      1.3636                 1.8838                13.8099

                     19                     20                     21
                      A                      A                      A
 Frequencies --    983.5528              1019.1954              1039.6140
 Red. masses --      1.6574                 1.7667                 1.7053
 Frc consts  --      0.9446                 1.0813                 1.0859
 IR Inten    --      9.6736                 6.9190                 6.1728

                     22                     23                     24
                      A                      A                      A
 Frequencies --   1058.4847              1087.4446              1109.0950
 Red. masses --      2.0172                 1.8083                 2.2353
 Frc consts  --      1.3316                 1.2599                 1.6200
 IR Inten    --     13.0851                 3.6696                 5.9570

                     25                     26                     27
                      A                      A                      A
 Frequencies --   1130.9122              1149.1838              1188.3125
 Red. masses --      1.3918                 2.9499                 1.5682
 Frc consts  --      1.0488                 2.2953                 1.3047
 IR Inten    --     15.2016                30.5374                59.9754

                     28                     29                     30
                      A                      A                      A
 Frequencies --   1217.2055              1234.9215              1264.0900
 Red. masses --      1.6203                 1.8293                 1.4423
 Frc consts  --      1.4144                 1.6437                 1.3579
 IR Inten    --      6.8022                57.9408                 7.9821

                     31                     32                     33
                      A                      A                      A
 Frequencies --   1276.3902              1313.2591              1317.0412
 Red. masses --      1.2942                 2.0325                 1.6410
 Frc consts  --      1.2423                 2.0653                 1.6771
 IR Inten    --      9.1623                76.8757                 1.2627

                     34                     35                     36
                      A                      A                      A
 Frequencies --   1330.2623              1357.3611              1385.8504
 Red. masses --      1.4258                 1.5189                 1.3619
 Frc consts  --      1.4865                 1.6488                 1.5411
 IR Inten    --      6.2424                56.4803                19.8379

                     37                     38                     39
                      A                      A                      A
 Frequencies --   1420.6827              1467.1867              1491.3293
 Red. masses --      1.4027                 1.5531                 1.0916
 Frc consts  --      1.6681                 1.9698                 1.4305
 IR Inten    --     18.7420                 9.1368                 1.1078

                     40                     41                     42
                      A                      A                      A
 Frequencies --   1501.8340              1509.0956              2944.2282
 Red. masses --      1.1003                 1.7018                 1.0715
 Frc consts  --      1.4622                 2.2834                 5.4725
 IR Inten    --      2.2330                 7.4043                71.7774

                     43                     44                     45
                      A                      A                      A
 Frequencies --   2960.5393              3041.6129              3063.8356
 Red. masses --      1.0702                 1.0617                 1.0898
 Frc consts  --      5.5266                 5.7870                 6.0273
 IR Inten    --     82.3987                42.6540                35.2290

                     46                     47                     48
                      A                      A                      A
 Frequencies --   3070.3279              3087.7747              3106.8414
 Red. masses --      1.0925                 1.0875                 1.1030
 Frc consts  --      6.0681                 6.1090                 6.2728
 IR Inten    --     24.0478                43.5666                25.8389

                     49                     50                     51
                      A                      A                      A
 Frequencies --   3146.2491              3186.3928              3787.3161
 Red. masses --      1.0864                 1.0936                 1.0657
 Frc consts  --      6.3361                 6.5422                 9.0062
 IR Inten    --      9.1287                14.9421                15.4185

 - Thermochemistry -
 -------------------
 Temperature   298.150 Kelvin.  Pressure   1.00000 Atm.
 Atom     1 has atomic number  8 and mass  15.99491

 Molecular mass:   126.06808 amu.
 Principal axes and moments of inertia in atomic units:
                           1         2         3
     Eigenvalues --   586.272631130.832551346.12730
           X            0.99991   0.01103   0.00815
           Y           -0.01127   0.99950   0.02950
           Z           -0.00782  -0.02959   0.99953
 This molecule is an asymmetric top.
 Rotational symmetry number  1.
 Warning -- assumption of classical behavior for rotation
           may cause significant error
 Rotational temperatures (Kelvin)      0.14774     0.07659     0.06434
 Rotational constants (GHZ):           3.07833     1.59594     1.34069
 Zero-point vibrational energy     424155.7 (Joules/Mol)
                                  101.37564 (Kcal/Mol)
 Warning -- explicit consideration of   9 degrees of freedom as
           vibrations may cause significant error
 Vibrational temperatures:    259.13   344.33   408.17   450.90   520.09
          (Kelvin)            592.31   594.19   720.19   800.56   913.53
                             1034.54  1072.65  1147.99  1194.52  1267.52
                             1303.32  1343.32  1378.56  1415.11  1466.39
                             1495.77  1522.92  1564.59  1595.74  1627.13
                             1653.42  1709.71  1751.29  1776.77  1818.74
                             1836.44  1889.48  1894.93  1913.95  1952.94
                             1993.93  2044.04  2110.95  2145.69  2160.80
                             2171.25  4236.08  4259.55  4376.20  4408.17
                             4417.51  4442.61  4470.05  4526.75  4584.50
                             5449.10

 Zero-point correction=                           0.161552 (Hartree/Particle)
 Thermal correction to Energy=                    0.168745
 Thermal correction to Enthalpy=                  0.169690
 Thermal correction to Gibbs Free Energy=         0.130444
 Sum of electronic and zero-point Energies=           -422.994654
 Sum of electronic and thermal Energies=              -422.987461
 Sum of electronic and thermal Enthalpies=            -422.986516
 Sum of electronic and thermal Free Energies=         -423.025762

                     E (Thermal)             CV                S
                      KCal/Mol        Cal/Mol-Kelvin    Cal/Mol-Kelvin
 Total                  105.889             29.863             82.600
 Electronic               0.000              0.000              0.000
 Translational            0.889              2.981             40.409
 Rotational               0.889              2.981             28.281
 Vibrational            104.112             23.902             13.911
 Vibration     1          0.629              1.867              2.327
 Vibration     2          0.657              1.780              1.808
 Vibration     3          0.682              1.704              1.511
 Vibration     4          0.701              1.648              1.344
 Vibration     5          0.736              1.552              1.116
 Vibration     6          0.776              1.445              0.921
 Vibration     7          0.777              1.442              0.916
 Vibration     8          0.856              1.249              0.657
 Vibration     9          0.912              1.126              0.531

 Optimization completed.
    -- Stationary point found.
 Normal termination of Gaussian 09 at Mon Jan 27 19:15:25 2020.
