 Gaussian 09, Revision D.01,
 Gaussian 09:  ES64L-G09RevD.01 24-Apr-2013

 -----------------------------
 # b3lyp 6-31G(2df,p) opt Freq
 -----------------------------

 -----
 titel
 -----
 Symbolic Z-matrix:
 Charge =  0 Multiplicity = 1

 SCF Done:  E(RB3LYP) =  -423.191043107     A.U. after   14 cycles
 Optimization completed.
    -- Stationary point found.
 Normal termination of Gaussian 09 at Tue Jan 28 08:10:07 2020.

 ----------------------------------------------------------------------
 #N Geom=AllCheck Guess=TCheck SCRF=Check GenChk RB3LYP/6-31G(2df,p) Fr
 eq
 ----------------------------------------------------------------------

 Structure from the checkpoint file:  "/scratch/puck/g09_e242d6f0-fd93-4aa3-88ca-80dc96da35f6/Gau-127743.chk"
 -----
 titel
 -----
 Charge =  0 Multiplicity = 1

                         Standard orientation:
 ---------------------------------------------------------------------
 Center     Atomic      Atomic             Coordinates (Angstroms)
 Number     Number       Type             X           Y           Z
 ---------------------------------------------------------------------
      1          6           0       -2.437711   -1.136811   -0.128723
      2          6           0       -1.462898   -0.103071    0.423674
      3          6           0       -1.297498    1.166101   -0.468893
      4          8           0       -0.024725    1.749193   -0.155207
      5          6           0        0.782882    0.788698    0.509492
      6          8           0        2.012885    0.491597   -0.115620
      7          6           0        2.122723   -0.926800   -0.280405
      8          6           0        0.741765   -1.469046   -0.002891
      9          6           0       -0.019571   -0.482095    0.452961
     10          1           0       -2.497307   -2.011246    0.526405
     11          1           0       -3.445462   -0.718573   -0.216640
     12          1           0       -2.123789   -1.477513   -1.120798
     13          1           0       -1.790492    0.222715    1.420512
     14          1           0       -1.334090    0.874268   -1.528725
     15          1           0       -2.069826    1.920224   -0.288913
     16          1           0        0.997871    1.191488    1.511597
     17          1           0        2.443329   -1.154529   -1.306565
     18          1           0        2.896346   -1.318377    0.398089
     19          1           0        0.439993   -2.476642   -0.259635
 ---------------------------------------------------------------------

 SCF Done:  E(RB3LYP) =  -423.191043107     A.U. after    1 cycles

 The electronic state is 1-A.
 Alpha  occ. eigenvalues --  -19.13613 -19.13545 -10.26798 -10.23513 -10.23180
 Alpha  occ. eigenvalues --  -10.20570 -10.19346 -10.18958 -10.18741  -1.06017
 Alpha  occ. eigenvalues --   -1.00809  -0.82469  -0.76485  -0.73038  -0.68443
 Alpha  occ. eigenvalues --   -0.62144  -0.57791  -0.55333  -0.50908  -0.48818
 Alpha  occ. eigenvalues --   -0.46041  -0.45977  -0.44207  -0.41832  -0.41285
 Alpha  occ. eigenvalues --   -0.40517  -0.37494  -0.36144  -0.35278  -0.32824
 Alpha  occ. eigenvalues --   -0.30079  -0.26888  -0.25712  -0.24932
 Alpha virt. eigenvalues --    0.00209   0.08239   0.10870   0.12208   0.12800
 Alpha virt. eigenvalues --    0.13496   0.15100   0.15451   0.15787   0.16815
 Alpha virt. eigenvalues --    0.17300   0.17656   0.19370   0.20053   0.22634

 Mulliken charges:
               1
     1  C   -0.413116
     2  C   -0.100322
     3  C   -0.074771
     4  O   -0.273689
     5  C    0.189744
     6  O   -0.274218
     7  C   -0.111048
     8  C   -0.235595
     9  C    0.216546
    10  H    0.124088
    11  H    0.121352
    12  H    0.123100
    13  H    0.091832
    14  H    0.099393
    15  H    0.108128
    16  H    0.073490
    17  H    0.116351
    18  H    0.110196
    19  H    0.108538
 Sum of Mulliken charges =   0.00000

 Dipole moment (field-independent basis, Debye):
    X=             -1.8086    Y=             -2.5076    Z=              0.3752  Tot=              3.1144
 Quadrupole moment (field-independent basis, Debye-Ang):
   XX=            -51.9420   YY=            -54.8773   ZZ=            -52.3256
   XY=             -4.2434   XZ=              0.2903   YZ=              1.9945

  Exact polarizability:  91.650  -9.476  78.273  -1.726   5.004  61.347
 Approx polarizability: 122.002 -17.097 120.066  -6.473  10.343  96.313

                      1                      2                      3
                      A                      A                      A
 Frequencies --     99.7411               136.7543               163.1160
 Red. masses --      4.7906                 2.4135                 2.6772
 Frc consts  --      0.0281                 0.0266                 0.0420
 IR Inten    --      0.9408                 3.3298                 0.2397

                      4                      5                      6
                      A                      A                      A
 Frequencies --    221.1933               257.1794               344.9132
 Red. masses --      1.1715                 1.9523                 2.6152
 Frc consts  --      0.0338                 0.0761                 0.1833
 IR Inten    --      0.0494                 0.5870                 1.5667

                      7                      8                      9
                      A                      A                      A
 Frequencies --    436.9933               484.0574               603.3715
 Red. masses --      5.8782                 3.2560                 2.7722
 Frc consts  --      0.6614                 0.4495                 0.5946
 IR Inten    --      2.1306                 4.2683                 4.6469

                     10                     11                     12
                      A                      A                      A
 Frequencies --    613.2218               708.2398               788.4077
 Red. masses --      4.9348                 6.5490                 5.9516
 Frc consts  --      1.0933                 1.9355                 2.1797
 IR Inten    --      4.5771                12.5407                 5.7202

                     13                     14                     15
                      A                      A                      A
 Frequencies --    823.9290               886.4230               900.1989
 Red. masses --      1.3739                 2.0396                 2.8947
 Frc consts  --      0.5495                 0.9442                 1.3821
 IR Inten    --      2.9815                 1.9637                20.4140

                     16                     17                     18
                      A                      A                      A
 Frequencies --    934.9834               951.9779               961.9438
 Red. masses --      1.9201                 2.0155                 2.1046
 Frc consts  --      0.9890                 1.0762                 1.1474
 IR Inten    --      4.3394                25.5855                18.2074

                     19                     20                     21
                      A                      A                      A
 Frequencies --    988.6037              1025.1112              1042.3269
 Red. masses --      3.6916                 2.3325                 2.5866
 Frc consts  --      2.1258                 1.4442                 1.6557
 IR Inten    --      4.7387                26.7917               127.1053

                     22                     23                     24
                      A                      A                      A
 Frequencies --   1056.3761              1085.6996              1120.7567
 Red. masses --      5.0330                 2.4719                 2.3796
 Frc consts  --      3.3092                 1.7167                 1.7611
 IR Inten    --    120.2220                34.6518                33.1861

                     25                     26                     27
                      A                      A                      A
 Frequencies --   1137.4362              1184.2920              1194.7569
 Red. masses --      2.0648                 2.0626                 1.1350
 Frc consts  --      1.5739                 1.7044                 0.9546
 IR Inten    --      4.7588                 4.0912                 2.2186

                     28                     29                     30
                      A                      A                      A
 Frequencies --   1221.9389              1269.0378              1297.4322
 Red. masses --      1.2165                 1.5175                 1.2986
 Frc consts  --      1.0702                 1.4399                 1.2879
 IR Inten    --      4.4236                 3.1778                 1.0808

                     31                     32                     33
                      A                      A                      A
 Frequencies --   1330.4077              1356.1991              1371.8720
 Red. masses --      1.4726                 1.4741                 1.6937
 Frc consts  --      1.5357                 1.5974                 1.8781
 IR Inten    --      6.7748                11.6567                14.5729

                     34                     35                     36
                      A                      A                      A
 Frequencies --   1405.2843              1407.1978              1413.1437
 Red. masses --      1.4012                 1.2910                 1.2436
 Frc consts  --      1.6303                 1.5063                 1.4632
 IR Inten    --      6.2201                 8.7180                 4.8092

                     37                     38                     39
                      A                      A                      A
 Frequencies --   1495.8139              1500.5283              1514.9875
 Red. masses --      1.0467                 1.0478                 1.0870
 Frc consts  --      1.3799                 1.3900                 1.4699
 IR Inten    --      3.7248                 3.4730                 0.4413

                     40                     41                     42
                      A                      A                      A
 Frequencies --   1520.7146              1744.7779              2974.6420
 Red. masses --      1.0864                 8.2849                 1.0819
 Frc consts  --      1.4802                14.8599                 5.6402
 IR Inten    --      1.4323                 0.6431                74.4402

                     43                     44                     45
                      A                      A                      A
 Frequencies --   2986.1756              2995.5827              3012.7932
 Red. masses --      1.0654                 1.0691                 1.0794
 Frc consts  --      5.5973                 5.6522                 5.7729
 IR Inten    --     84.8699                29.4399                34.6166

                     46                     47                     48
                      A                      A                      A
 Frequencies --   3021.4392              3036.2672              3077.7830
 Red. masses --      1.0970                 1.0352                 1.0982
 Frc consts  --      5.9007                 5.6226                 6.1290
 IR Inten    --     38.0302                24.2743                41.7941

                     49                     50                     51
                      A                      A                      A
 Frequencies --   3105.8067              3108.0468              3214.7097
 Red. masses --      1.1015                 1.1016                 1.0957
 Frc consts  --      6.2604                 6.2698                 6.6714
 IR Inten    --     23.3777                26.5662                 5.0117

 - Thermochemistry -
 -------------------
 Temperature   298.150 Kelvin.  Pressure   1.00000 Atm.
 Atom     1 has atomic number  6 and mass  12.00000

 Molecular mass:   126.06808 amu.
 Principal axes and moments of inertia in atomic units:
                           1         2         3
     Eigenvalues --   626.624521142.388561609.29062
           X            0.99995  -0.00833   0.00462
           Y            0.00824   0.99977   0.01998
           Z           -0.00478  -0.01994   0.99979
 This molecule is an asymmetric top.
 Rotational symmetry number  1.
 Warning -- assumption of classical behavior for rotation
           may cause significant error
 Rotational temperatures (Kelvin)      0.13822     0.07582     0.05382
 Rotational constants (GHZ):           2.88010     1.57980     1.12145
 Zero-point vibrational energy     421890.5 (Joules/Mol)
                                  100.83425 (Kcal/Mol)
 Warning -- explicit consideration of  10 degrees of freedom as
           vibrations may cause significant error
 Vibrational temperatures:    143.50   196.76   234.69   318.25   370.02
          (Kelvin)            496.25   628.74   696.45   868.12   882.29
                             1019.00  1134.34  1185.45  1275.36  1295.18
                             1345.23  1369.68  1384.02  1422.38  1474.90
                             1499.67  1519.89  1562.08  1612.52  1636.51
                             1703.93  1718.99  1758.10  1825.86  1866.71
                             1914.16  1951.27  1973.82  2021.89  2024.64
                             2033.20  2152.14  2158.92  2179.73  2187.97
                             2510.34  4279.84  4296.44  4309.97  4334.73
                             4347.17  4368.51  4428.24  4468.56  4471.78
                             4625.24

 Zero-point correction=                           0.160690 (Hartree/Particle)
 Thermal correction to Energy=                    0.168594
 Thermal correction to Enthalpy=                  0.169538
 Thermal correction to Gibbs Free Energy=         0.128113
 Sum of electronic and zero-point Energies=           -423.030353
 Sum of electronic and thermal Energies=              -423.022449
 Sum of electronic and thermal Enthalpies=            -423.021505
 Sum of electronic and thermal Free Energies=         -423.062930

                     E (Thermal)             CV                S
                      KCal/Mol        Cal/Mol-Kelvin    Cal/Mol-Kelvin
 Total                  105.794             30.117             87.186
 Electronic               0.000              0.000              0.000
 Translational            0.889              2.981             40.409
 Rotational               0.889              2.981             28.534
 Vibrational            104.017             24.155             18.244
 Vibration     1          0.604              1.949              3.459
 Vibration     2          0.614              1.917              2.849
 Vibration     3          0.623              1.888              2.513
 Vibration     4          0.648              1.809              1.949
 Vibration     5          0.667              1.751              1.681
 Vibration     6          0.723              1.586              1.189
 Vibration     7          0.797              1.390              0.836
 Vibration     8          0.840              1.285              0.699
 Vibration     9          0.962              1.025              0.444
 Vibration    10          0.973              1.004              0.427

 Optimization completed.
    -- Stationary point found.
 Normal termination of Gaussian 09 at Tue Jan 28 08:51:00 2020.
