 Gaussian 09, Revision D.01,
 Gaussian 09:  ES64L-G09RevD.01 24-Apr-2013

 -----------------------------
 # b3lyp 6-31G(2df,p) opt Freq
 -----------------------------

 -----
 titel
 -----
 Symbolic Z-matrix:
 Charge =  0 Multiplicity = 1

 SCF Done:  E(RB3LYP) =  -423.202095434     A.U. after   14 cycles
 Optimization completed.
    -- Stationary point found.
 Normal termination of Gaussian 09 at Tue Jan 28 13:29:29 2020.

 ----------------------------------------------------------------------
 #N Geom=AllCheck Guess=TCheck SCRF=Check GenChk RB3LYP/6-31G(2df,p) Fr
 eq
 ----------------------------------------------------------------------

 Structure from the checkpoint file:  "/scratch/puck/g09_e2365be3-a410-40c6-b140-f6e16bb78fa8/Gau-93846.chk"
 -----
 titel
 -----
 Charge =  0 Multiplicity = 1

                         Standard orientation:
 ---------------------------------------------------------------------
 Center     Atomic      Atomic             Coordinates (Angstroms)
 Number     Number       Type             X           Y           Z
 ---------------------------------------------------------------------
      1          8           0        2.896373    0.396904    0.114454
      2          6           0        1.879829   -0.314837   -0.572400
      3          6           0        0.729874   -0.557402    0.404754
      4          6           0        0.081671    0.773204    0.848667
      5          6           0       -1.149913    0.957774   -0.052783
      6          8           0       -1.670302    2.010570   -0.328721
      7          6           0       -1.545514   -0.384849   -0.578947
      8          6           0       -1.676692   -1.482227    0.472145
      9          6           0       -0.396368   -1.338466   -0.279160
     10          1           0        3.575266    0.644483   -0.519614
     11          1           0        1.509689    0.252664   -1.442179
     12          1           0        2.253971   -1.281937   -0.945468
     13          1           0        1.133924   -1.112466    1.258684
     14          1           0       -0.246350    0.747227    1.894016
     15          1           0        0.761535    1.621152    0.754407
     16          1           0       -2.158211   -0.432912   -1.469821
     17          1           0       -1.719123   -1.202559    1.519783
     18          1           0       -2.328642   -2.306402    0.205958
     19          1           0       -0.127937   -2.108228   -0.995283
 ---------------------------------------------------------------------

 SCF Done:  E(RB3LYP) =  -423.202095434     A.U. after    1 cycles

 The electronic state is 1-A.
 Alpha  occ. eigenvalues --  -19.14197 -19.11840 -10.26033 -10.23396 -10.20713
 Alpha  occ. eigenvalues --  -10.20375 -10.19862 -10.19842 -10.18302  -1.02981
 Alpha  occ. eigenvalues --   -1.02315  -0.89379  -0.78221  -0.71243  -0.64682
 Alpha  occ. eigenvalues --   -0.62323  -0.56650  -0.54369  -0.51075  -0.49698
 Alpha  occ. eigenvalues --   -0.48192  -0.44489  -0.42705  -0.41318  -0.40415
 Alpha  occ. eigenvalues --   -0.39811  -0.37292  -0.35623  -0.34801  -0.33272
 Alpha  occ. eigenvalues --   -0.30375  -0.29259  -0.27498  -0.23249
 Alpha virt. eigenvalues --   -0.00740   0.07000   0.09077   0.09441   0.11301
 Alpha virt. eigenvalues --    0.13668   0.14381   0.15093   0.16208   0.16694
 Alpha virt. eigenvalues --    0.18353   0.19990   0.20182   0.20741   0.23608

 Mulliken charges:
               1
     1  O   -0.419852
     2  C   -0.087605
     3  C    0.001119
     4  C   -0.356054
     5  C    0.417603
     6  O   -0.335443
     7  C   -0.136521
     8  C   -0.311362
     9  C   -0.039728
    10  H    0.290034
    11  H    0.093113
    12  H    0.086964
    13  H    0.086351
    14  H    0.124833
    15  H    0.143194
    16  H    0.103996
    17  H    0.123224
    18  H    0.125505
    19  H    0.090628
 Sum of Mulliken charges =   0.00000

 Dipole moment (field-independent basis, Debye):
    X=              1.5778    Y=             -2.9923    Z=             -0.7323  Tot=              3.4611
 Quadrupole moment (field-independent basis, Debye-Ang):
   XX=            -52.1412   YY=            -57.8518   ZZ=            -50.6747
   XY=              6.9106   XZ=             -5.4958   YZ=              1.3300

  Exact polarizability:  81.766   1.178  78.816   0.924  -0.182  65.094
 Approx polarizability: 109.110  -4.456 122.282   3.449  -4.207 101.548

                      1                      2                      3
                      A                      A                      A
 Frequencies --     77.5709               120.5955               168.3543
 Red. masses --      4.9292                 3.0419                 3.4361
 Frc consts  --      0.0175                 0.0261                 0.0574
 IR Inten    --      2.5432                 5.7976                 4.2095

                      4                      5                      6
                      A                      A                      A
 Frequencies --    227.2328               258.4624               332.1734
 Red. masses --      2.7505                 1.1347                 2.4323
 Frc consts  --      0.0837                 0.0447                 0.1581
 IR Inten    --      8.1610                87.8404                 3.5441

                      7                      8                      9
                      A                      A                      A
 Frequencies --    386.3366               448.8332               465.4419
 Red. masses --      4.0728                 4.5171                 2.4097
 Frc consts  --      0.3582                 0.5361                 0.3076
 IR Inten    --      1.5484                15.8682                 2.6543

                     10                     11                     12
                      A                      A                      A
 Frequencies --    534.9275               637.0758               676.8160
 Red. masses --      3.0071                 3.9276                 3.4424
 Frc consts  --      0.5070                 0.9392                 0.9291
 IR Inten    --      1.6707                 2.9427                 1.6421

                     13                     14                     15
                      A                      A                      A
 Frequencies --    761.5654               828.6836               842.5925
 Red. masses --      2.6016                 1.5971                 3.2613
 Frc consts  --      0.8890                 0.6462                 1.3642
 IR Inten    --      4.1357                 9.0016                 3.0364

                     16                     17                     18
                      A                      A                      A
 Frequencies --    864.5294               904.5422               937.9293
 Red. masses --      2.0950                 1.6415                 1.6691
 Frc consts  --      0.9226                 0.7913                 0.8651
 IR Inten    --      6.5299                 7.1541                 8.3901

                     19                     20                     21
                      A                      A                      A
 Frequencies --    970.4249              1023.0859              1026.4102
 Red. masses --      2.8478                 1.8292                 2.1196
 Frc consts  --      1.5801                 1.1280                 1.3157
 IR Inten    --     15.8943                 1.1468                49.8523

                     22                     23                     24
                      A                      A                      A
 Frequencies --   1067.1877              1073.0248              1098.6976
 Red. masses --      1.2314                 2.4872                 2.5700
 Frc consts  --      0.8263                 1.6873                 1.8278
 IR Inten    --     10.2591                35.2102                26.4031

                     25                     26                     27
                      A                      A                      A
 Frequencies --   1105.5675              1115.2275              1178.3381
 Red. masses --      1.2006                 1.5038                 1.2836
 Frc consts  --      0.8646                 1.1020                 1.0501
 IR Inten    --      2.0190                 1.6740                15.9394

                     28                     29                     30
                      A                      A                      A
 Frequencies --   1183.5226              1203.1166              1231.3180
 Red. masses --      1.7040                 1.9243                 1.3712
 Frc consts  --      1.4063                 1.6411                 1.2248
 IR Inten    --     13.2374                13.9650                12.8824

                     31                     32                     33
                      A                      A                      A
 Frequencies --   1249.5570              1279.0172              1311.9219
 Red. masses --      1.3813                 1.3118                 1.6005
 Frc consts  --      1.2707                 1.2643                 1.6230
 IR Inten    --     35.6913                13.2526                 1.6407

                     34                     35                     36
                      A                      A                      A
 Frequencies --   1331.5942              1347.9390              1392.1460
 Red. masses --      1.8266                 1.6202                 1.7280
 Frc consts  --      1.9083                 1.7345                 1.9731
 IR Inten    --     12.8826                 5.0607                 0.6650

                     37                     38                     39
                      A                      A                      A
 Frequencies --   1455.9725              1465.3330              1493.2986
 Red. masses --      1.4214                 1.1420                 1.1890
 Frc consts  --      1.7754                 1.4448                 1.5622
 IR Inten    --      3.2612                 8.7916                 5.1428

                     40                     41                     42
                      A                      A                      A
 Frequencies --   1519.6966              1832.6085              2960.3125
 Red. masses --      1.0835                12.2616                 1.0543
 Frc consts  --      1.4743                24.2625                 5.4437
 IR Inten    --      3.8669               271.6468                50.3681

                     43                     44                     45
                      A                      A                      A
 Frequencies --   2989.9165              3043.8521              3057.3052
 Red. masses --      1.1056                 1.0810                 1.0738
 Frc consts  --      5.8232                 5.9007                 5.9138
 IR Inten    --     45.0275                32.7880                15.9281

                     46                     47                     48
                      A                      A                      A
 Frequencies --   3128.6053              3133.4790              3163.6408
 Red. masses --      1.0933                 1.0546                 1.0903
 Frc consts  --      6.3051                 6.1009                 6.4297
 IR Inten    --      1.8069                14.0455                12.9591

                     49                     50                     51
                      A                      A                      A
 Frequencies --   3201.0821              3220.3142              3835.7024
 Red. masses --      1.0942                 1.1144                 1.0665
 Frc consts  --      6.6062                 6.8088                 9.2446
 IR Inten    --      3.5505                 7.6308                27.9292

 - Thermochemistry -
 -------------------
 Temperature   298.150 Kelvin.  Pressure   1.00000 Atm.
 Atom     1 has atomic number  8 and mass  15.99491

 Molecular mass:   126.06808 amu.
 Principal axes and moments of inertia in atomic units:
                           1         2         3
     Eigenvalues --   700.369591364.988601789.33796
           X            0.99895   0.04366  -0.01392
           Y           -0.04342   0.99891   0.01712
           Z            0.01466  -0.01650   0.99976
 This molecule is an asymmetric top.
 Rotational symmetry number  1.
 Warning -- assumption of classical behavior for rotation
           may cause significant error
 Rotational temperatures (Kelvin)      0.12367     0.06345     0.04841
 Rotational constants (GHZ):           2.57684     1.32217     1.00861
 Zero-point vibrational energy     419667.2 (Joules/Mol)
                                  100.30287 (Kcal/Mol)
 Warning -- explicit consideration of  10 degrees of freedom as
           vibrations may cause significant error
 Vibrational temperatures:    111.61   173.51   242.22   326.94   371.87
          (Kelvin)            477.92   555.85   645.77   669.67   769.64
                              916.61   973.79  1095.72  1192.29  1212.30
                             1243.86  1301.43  1349.47  1396.22  1471.99
                             1476.77  1535.44  1543.84  1580.78  1590.66
                             1604.56  1695.36  1702.82  1731.01  1771.59
                             1797.83  1840.22  1887.56  1915.86  1939.38
                             2002.99  2094.82  2108.28  2148.52  2186.50
                             2636.71  4259.22  4301.82  4379.42  4398.77
                             4501.36  4508.37  4551.77  4605.64  4633.31
                             5518.71

 Zero-point correction=                           0.159843 (Hartree/Particle)
 Thermal correction to Energy=                    0.168218
 Thermal correction to Enthalpy=                  0.169162
 Thermal correction to Gibbs Free Energy=         0.126633
 Sum of electronic and zero-point Energies=           -423.042253
 Sum of electronic and thermal Energies=              -423.033877
 Sum of electronic and thermal Enthalpies=            -423.032933
 Sum of electronic and thermal Free Energies=         -423.075463

                     E (Thermal)             CV                S
                      KCal/Mol        Cal/Mol-Kelvin    Cal/Mol-Kelvin
 Total                  105.558             32.046             89.511
 Electronic               0.000              0.000              0.000
 Translational            0.889              2.981             40.409
 Rotational               0.889              2.981             28.927
 Vibrational            103.781             26.085             20.175
 Vibration     1          0.599              1.964              3.951
 Vibration     2          0.609              1.932              3.091
 Vibration     3          0.625              1.881              2.454
 Vibration     4          0.651              1.800              1.901
 Vibration     5          0.667              1.748              1.672
 Vibration     6          0.714              1.611              1.249
 Vibration     7          0.755              1.499              1.014
 Vibration     8          0.808              1.363              0.799
 Vibration     9          0.823              1.327              0.750
 Vibration    10          0.890              1.173              0.576

 Optimization completed.
    -- Stationary point found.
 Normal termination of Gaussian 09 at Tue Jan 28 14:59:55 2020.
