 Gaussian 09, Revision D.01,
 Gaussian 09:  ES64L-G09RevD.01 24-Apr-2013

 -----------------------------
 # b3lyp 6-31G(2df,p) opt Freq
 -----------------------------

 -----
 titel
 -----
 Symbolic Z-matrix:
 Charge =  0 Multiplicity = 1

 SCF Done:  E(RB3LYP) =  -423.229500548     A.U. after   14 cycles
 Optimization completed.
    -- Stationary point found.
 Normal termination of Gaussian 09 at Tue Jan 28 00:33:34 2020.

 ----------------------------------------------------------------------
 #N Geom=AllCheck Guess=TCheck SCRF=Check GenChk RB3LYP/6-31G(2df,p) Fr
 eq
 ----------------------------------------------------------------------

 Structure from the checkpoint file:  "/scratch/puck/g09_e42a2068-f12f-466c-b850-74ee0c3aca0c/Gau-196303.chk"
 -----
 titel
 -----
 Charge =  0 Multiplicity = 1

                         Standard orientation:
 ---------------------------------------------------------------------
 Center     Atomic      Atomic             Coordinates (Angstroms)
 Number     Number       Type             X           Y           Z
 ---------------------------------------------------------------------
      1          6           0       -1.523044    1.960849    0.430984
      2          6           0       -1.210007    0.661980   -0.317970
      3          6           0       -2.196509   -0.465429   -0.100487
      4          6           0       -1.595553   -1.641197    0.075289
      5          6           0       -0.091669   -1.524094    0.006482
      6          6           0        0.120015    0.002347    0.107796
      7          8           0        1.183999    0.500139   -0.735343
      8          6           0        2.432372    0.320757   -0.287326
      9          8           0        2.751282   -0.230152    0.731244
     10          1           0       -1.602741    1.783122    1.508935
     11          1           0       -0.735968    2.703621    0.265082
     12          1           0       -2.468874    2.394686    0.091154
     13          1           0       -1.147864    0.890086   -1.392581
     14          1           0       -3.268730   -0.302757   -0.121834
     15          1           0       -2.100423   -2.589971    0.218406
     16          1           0        0.436778   -2.065411    0.795995
     17          1           0        0.294858   -1.900015   -0.951182
     18          1           0        0.363238    0.268671    1.140075
     19          1           0        3.133850    0.766795   -1.009870
 ---------------------------------------------------------------------

 SCF Done:  E(RB3LYP) =  -423.229500548     A.U. after    1 cycles

 The electronic state is 1-A.
 Alpha  occ. eigenvalues --  -19.18796 -19.13269 -10.30724 -10.24348 -10.19602
 Alpha  occ. eigenvalues --  -10.18828 -10.18612 -10.18357 -10.17971  -1.10423
 Alpha  occ. eigenvalues --   -1.02029  -0.85342  -0.75315  -0.72657  -0.66776
 Alpha  occ. eigenvalues --   -0.61804  -0.56268  -0.54795  -0.51546  -0.49468
 Alpha  occ. eigenvalues --   -0.47234  -0.44615  -0.43418  -0.42095  -0.40912
 Alpha  occ. eigenvalues --   -0.38301  -0.37174  -0.36545  -0.35901  -0.33949
 Alpha  occ. eigenvalues --   -0.33125  -0.29726  -0.27857  -0.24758
 Alpha virt. eigenvalues --    0.00864   0.01688   0.09819   0.10510   0.12023
 Alpha virt. eigenvalues --    0.13646   0.14031   0.15064   0.16027   0.16447
 Alpha virt. eigenvalues --    0.16944   0.18799   0.19164   0.20853   0.21991

 Mulliken charges:
               1
     1  C   -0.410114
     2  C   -0.039390
     3  C   -0.070947
     4  C   -0.080971
     5  C   -0.287285
     6  C    0.135746
     7  O   -0.218933
     8  C    0.178177
     9  O   -0.307290
    10  H    0.119257
    11  H    0.122125
    12  H    0.115614
    13  H    0.093155
    14  H    0.095180
    15  H    0.097975
    16  H    0.126419
    17  H    0.114079
    18  H    0.108124
    19  H    0.109078
 Sum of Mulliken charges =   0.00000

 Dipole moment (field-independent basis, Debye):
    X=             -1.6314    Y=              0.4249    Z=             -1.0547  Tot=              1.9885
 Quadrupole moment (field-independent basis, Debye-Ang):
   XX=            -55.1481   YY=            -51.0364   ZZ=            -54.7674
   XY=              2.0343   XZ=             -4.4904   YZ=              0.3351

  Exact polarizability:  90.669  -2.766  81.826  -0.209  -4.105  59.727
 Approx polarizability: 119.555 -10.806 119.809   5.162 -11.934 100.025

                      1                      2                      3
                      A                      A                      A
 Frequencies --     51.1579                62.2510               166.7198
 Red. masses --      5.8865                 2.8553                 4.4569
 Frc consts  --      0.0091                 0.0065                 0.0730
 IR Inten    --      1.4658                 0.3023                 3.4982

                      4                      5                      6
                      A                      A                      A
 Frequencies --    218.6602               234.5580               250.7037
 Red. masses --      2.4908                 1.1453                 2.7265
 Frc consts  --      0.0702                 0.0371                 0.1010
 IR Inten    --      3.7600                 0.2713                 3.6683

                      7                      8                      9
                      A                      A                      A
 Frequencies --    330.8984               387.1549               452.9506
 Red. masses --      2.7044                 3.0877                 2.6540
 Frc consts  --      0.1745                 0.2727                 0.3208
 IR Inten    --      8.1032                 2.9162                 4.8894

                     10                     11                     12
                      A                      A                      A
 Frequencies --    528.5561               560.1430               733.0090
 Red. masses --      3.2478                 3.2607                 1.5818
 Frc consts  --      0.5346                 0.6028                 0.5008
 IR Inten    --      2.6024                 1.1796                21.5079

                     13                     14                     15
                      A                      A                      A
 Frequencies --    757.0687               777.7631               865.4489
 Red. masses --      2.9929                 3.6264                 2.8473
 Frc consts  --      1.0107                 1.2925                 1.2565
 IR Inten    --      3.1959                10.7631                10.2260

                     16                     17                     18
                      A                      A                      A
 Frequencies --    897.0273               959.1807               974.2490
 Red. masses --      1.9640                 2.0172                 1.2921
 Frc consts  --      0.9311                 1.0934                 0.7226
 IR Inten    --      5.4118                 6.9616                 1.0568

                     19                     20                     21
                      A                      A                      A
 Frequencies --    982.9256              1004.0524              1039.0291
 Red. masses --      1.6694                 2.6445                 2.4562
 Frc consts  --      0.9503                 1.5708                 1.5623
 IR Inten    --      9.8799                18.9687                 3.3468

                     22                     23                     24
                      A                      A                      A
 Frequencies --   1047.8744              1094.5919              1099.3639
 Red. masses --      1.8310                 1.6408                 1.7066
 Frc consts  --      1.1846                 1.1583                 1.2152
 IR Inten    --      0.8625                 2.8102                 3.4014

                     25                     26                     27
                      A                      A                      A
 Frequencies --   1131.5793              1148.5579              1197.1780
 Red. masses --      1.5421                 1.4604                 1.5048
 Frc consts  --      1.1634                 1.1351                 1.2707
 IR Inten    --      0.2186                 0.6172                10.6757

                     28                     29                     30
                      A                      A                      A
 Frequencies --   1213.0593              1277.5833              1291.1251
 Red. masses --      7.6863                 1.4539                 1.4804
 Frc consts  --      6.6639                 1.3982                 1.4540
 IR Inten    --    392.8695                 1.7072                10.9659

                     31                     32                     33
                      A                      A                      A
 Frequencies --   1322.0141              1339.4294              1386.3851
 Red. masses --      1.4115                 1.4072                 1.5949
 Frc consts  --      1.4535                 1.4875                 1.8062
 IR Inten    --      1.2397                 0.8838                 1.7477

                     34                     35                     36
                      A                      A                      A
 Frequencies --   1391.4032              1408.3373              1411.5937
 Red. masses --      1.4197                 1.1569                 1.2410
 Frc consts  --      1.6194                 1.3520                 1.4570
 IR Inten    --     11.8710                 1.2168                 1.6269

                     37                     38                     39
                      A                      A                      A
 Frequencies --   1488.0467              1498.5933              1498.8753
 Red. masses --      1.0933                 1.0455                 1.0531
 Frc consts  --      1.4263                 1.3834                 1.3940
 IR Inten    --      1.6960                 4.1794                 3.4913

                     40                     41                     42
                      A                      A                      A
 Frequencies --   1685.0288              1816.4582              2994.1138
 Red. masses --      6.4566                 9.5400                 1.0815
 Frc consts  --     10.8010                18.5460                 5.7124
 IR Inten    --      2.8121               260.7534                16.3248

                     43                     44                     45
                      A                      A                      A
 Frequencies --   3015.8425              3025.8066              3030.8084
 Red. masses --      1.0697                 1.0900                 1.0351
 Frc consts  --      5.7325                 5.8798                 5.6019
 IR Inten    --     22.3953                71.6982                23.0181

                     46                     47                     48
                      A                      A                      A
 Frequencies --   3072.5519              3090.1299              3101.9185
 Red. masses --      1.0851                 1.0924                 1.1016
 Frc consts  --      6.0355                 6.1458                 6.2448
 IR Inten    --     11.5634                12.6353                30.9594

                     49                     50                     51
                      A                      A                      A
 Frequencies --   3104.1344              3181.9008              3207.1181
 Red. masses --      1.1015                 1.0846                 1.1039
 Frc consts  --      6.2536                 6.4697                 6.6901
 IR Inten    --     22.6350                 5.2614                23.1350

 - Thermochemistry -
 -------------------
 Temperature   298.150 Kelvin.  Pressure   1.00000 Atm.
 Atom     1 has atomic number  6 and mass  12.00000

 Molecular mass:   126.06808 amu.
 Principal axes and moments of inertia in atomic units:
                           1         2         3
     Eigenvalues --   653.382491480.781401918.64632
           X            0.99976  -0.01872  -0.01139
           Y            0.01886   0.99974   0.01301
           Z            0.01114  -0.01322   0.99985
 This molecule is an asymmetric top.
 Rotational symmetry number  1.
 Warning -- assumption of classical behavior for rotation
           may cause significant error
 Rotational temperatures (Kelvin)      0.13256     0.05849     0.04514
 Rotational constants (GHZ):           2.76215     1.21878     0.94063
 Zero-point vibrational energy     417526.1 (Joules/Mol)
                                   99.79113 (Kcal/Mol)
 Warning -- explicit consideration of  11 degrees of freedom as
           vibrations may cause significant error
 Vibrational temperatures:     73.60    89.57   239.87   314.60   337.48
          (Kelvin)            360.71   476.09   557.03   651.69   760.47
                              805.92  1054.64  1089.25  1119.03  1245.19
                             1290.62  1380.05  1401.73  1414.21  1444.61
                             1494.93  1507.66  1574.87  1581.74  1628.09
                             1652.52  1722.47  1745.32  1838.16  1857.64
                             1902.08  1927.14  1994.70  2001.92  2026.28
                             2030.97  2140.96  2156.14  2156.54  2424.38
                             2613.48  4307.86  4339.12  4353.46  4360.65
                             4420.71  4446.00  4462.96  4466.15  4578.04
                             4614.32

 Zero-point correction=                           0.159027 (Hartree/Particle)
 Thermal correction to Energy=                    0.167829
 Thermal correction to Enthalpy=                  0.168773
 Thermal correction to Gibbs Free Energy=         0.124636
 Sum of electronic and zero-point Energies=           -423.070473
 Sum of electronic and thermal Energies=              -423.061672
 Sum of electronic and thermal Enthalpies=            -423.060728
 Sum of electronic and thermal Free Energies=         -423.104865

                     E (Thermal)             CV                S
                      KCal/Mol        Cal/Mol-Kelvin    Cal/Mol-Kelvin
 Total                  105.314             32.183             92.894
 Electronic               0.000              0.000              0.000
 Translational            0.889              2.981             40.409
 Rotational               0.889              2.981             29.008
 Vibrational            103.537             26.221             23.478
 Vibration     1          0.595              1.977              4.772
 Vibration     2          0.597              1.972              4.385
 Vibration     3          0.624              1.883              2.472
 Vibration     4          0.646              1.813              1.970
 Vibration     5          0.654              1.788              1.844
 Vibration     6          0.663              1.762              1.726
 Vibration     7          0.713              1.614              1.256
 Vibration     8          0.756              1.498              1.011
 Vibration     9          0.812              1.354              0.787
 Vibration    10          0.884              1.187              0.590
 Vibration    11          0.916              1.118              0.524

 Optimization completed.
    -- Stationary point found.
 Normal termination of Gaussian 09 at Tue Jan 28 01:12:43 2020.
