 Gaussian 09, Revision D.01,
 Gaussian 09:  ES64L-G09RevD.01 24-Apr-2013

 -----------------------------
 # b3lyp 6-31G(2df,p) opt Freq
 -----------------------------

 -----
 titel
 -----
 Symbolic Z-matrix:
 Charge =  0 Multiplicity = 1

 SCF Done:  E(RB3LYP) =  -423.225410670     A.U. after   14 cycles
 Optimization completed.
    -- Stationary point found.
 Normal termination of Gaussian 09 at Tue Jan 28 12:39:52 2020.

 ----------------------------------------------------------------------
 #N Geom=AllCheck Guess=TCheck SCRF=Check GenChk RB3LYP/6-31G(2df,p) Fr
 eq
 ----------------------------------------------------------------------

 Structure from the checkpoint file:  "/scratch/puck/g09_e1ac3808-1b3b-4b46-9406-afaff58b71a0/Gau-29192.chk"
 -----
 titel
 -----
 Charge =  0 Multiplicity = 1

                         Standard orientation:
 ---------------------------------------------------------------------
 Center     Atomic      Atomic             Coordinates (Angstroms)
 Number     Number       Type             X           Y           Z
 ---------------------------------------------------------------------
      1          6           0        2.795827    0.145931    0.612509
      2          6           0        1.660367   -0.191627   -0.356377
      3          6           0        1.025503   -1.591431   -0.196257
      4          6           0       -0.457008   -1.327925   -0.120091
      5          6           0       -0.769406   -0.024811   -0.130541
      6          6           0       -2.124147    0.611644   -0.041093
      7          8           0       -3.161735   -0.296732    0.287646
      8          6           0        0.474793    0.779721   -0.212350
      9          8           0        0.552073    1.988149   -0.163030
     10          1           0        3.080265    1.195440    0.500028
     11          1           0        2.483489   -0.008161    1.651321
     12          1           0        3.675163   -0.478319    0.428088
     13          1           0        2.029197   -0.070541   -1.383062
     14          1           0        1.268796   -2.268706   -1.023567
     15          1           0        1.377287   -2.093067    0.715330
     16          1           0       -1.187728   -2.127251   -0.056480
     17          1           0       -2.075120    1.460458    0.657566
     18          1           0       -2.394459    1.040265   -1.013636
     19          1           0       -3.015164   -0.590467    1.192688
 ---------------------------------------------------------------------

 SCF Done:  E(RB3LYP) =  -423.225410670     A.U. after    1 cycles

 The electronic state is 1-A.
 Alpha  occ. eigenvalues --  -19.14317 -19.12241 -10.25878 -10.23630 -10.20778
 Alpha  occ. eigenvalues --  -10.19947 -10.19635 -10.19297 -10.18101  -1.03194
 Alpha  occ. eigenvalues --   -1.02382  -0.85538  -0.77058  -0.71819  -0.66268
 Alpha  occ. eigenvalues --   -0.65007  -0.56669  -0.52528  -0.49742  -0.47829
 Alpha  occ. eigenvalues --   -0.46932  -0.43925  -0.43348  -0.40870  -0.40469
 Alpha  occ. eigenvalues --   -0.39416  -0.38290  -0.36696  -0.34967  -0.34255
 Alpha  occ. eigenvalues --   -0.33413  -0.28558  -0.26269  -0.23661
 Alpha virt. eigenvalues --   -0.04239   0.05153   0.07497   0.09802   0.12353
 Alpha virt. eigenvalues --    0.12887   0.14285   0.15421   0.16227   0.16922
 Alpha virt. eigenvalues --    0.17426   0.17869   0.19130   0.19847   0.22799

 Mulliken charges:
               1
     1  C   -0.397355
     2  C   -0.086964
     3  C   -0.286622
     4  C   -0.153944
     5  C    0.154880
     6  C   -0.168802
     7  O   -0.409919
     8  C    0.324389
     9  O   -0.345265
    10  H    0.141099
    11  H    0.116420
    12  H    0.114431
    13  H    0.107753
    14  H    0.118139
    15  H    0.117817
    16  H    0.115848
    17  H    0.117819
    18  H    0.136169
    19  H    0.284108
 Sum of Mulliken charges =   0.00000

 Dipole moment (field-independent basis, Debye):
    X=              0.8160    Y=             -2.8347    Z=              0.8487  Tot=              3.0694
 Quadrupole moment (field-independent basis, Debye-Ang):
   XX=            -56.2481   YY=            -57.0881   ZZ=            -49.7911
   XY=             -2.7474   XZ=             -3.3676   YZ=             -0.6466

  Exact polarizability:  89.163  -2.337  88.964  -0.370  -0.609  57.254
 Approx polarizability: 111.296  -1.925 157.773  -1.252  -1.816  89.136

                      1                      2                      3
                      A                      A                      A
 Frequencies --     49.2277                81.4684               165.4348
 Red. masses --      3.4406                 2.8835                 4.6149
 Frc consts  --      0.0049                 0.0113                 0.0744
 IR Inten    --      0.4382                 6.2510                 1.3316

                      4                      5                      6
                      A                      A                      A
 Frequencies --    205.2993               232.1969               242.2760
 Red. masses --      1.9533                 1.1005                 3.5020
 Frc consts  --      0.0485                 0.0350                 0.1211
 IR Inten    --      5.6461                 0.5455                 6.7972

                      7                      8                      9
                      A                      A                      A
 Frequencies --    301.7264               330.3840               354.0050
 Red. masses --      1.8169                 1.6450                 4.2491
 Frc consts  --      0.0975                 0.1058                 0.3137
 IR Inten    --     56.2099                60.8818                 1.6308

                     10                     11                     12
                      A                      A                      A
 Frequencies --    413.0614               545.0365               598.2857
 Red. masses --      2.3022                 3.7759                 5.5348
 Frc consts  --      0.2314                 0.6609                 1.1673
 IR Inten    --      2.3760                 4.8199                 8.5540

                     13                     14                     15
                      A                      A                      A
 Frequencies --    673.8969               763.2482               780.5898
 Red. masses --      4.6660                 3.7674                 3.9064
 Frc consts  --      1.2485                 1.2931                 1.4024
 IR Inten    --      3.8124                 4.4456                 5.0704

                     16                     17                     18
                      A                      A                      A
 Frequencies --    844.9509               894.4941               925.7021
 Red. masses --      1.3036                 2.1304                 3.3501
 Frc consts  --      0.5484                 1.0043                 1.6914
 IR Inten    --     10.2603                 0.5489                29.7655

                     19                     20                     21
                      A                      A                      A
 Frequencies --    947.0527               990.9951              1014.5113
 Red. masses --      1.3184                 1.5811                 1.7850
 Frc consts  --      0.6967                 0.9149                 1.0824
 IR Inten    --     18.2879                28.3662                11.2397

                     22                     23                     24
                      A                      A                      A
 Frequencies --   1046.2890              1088.5324              1114.0416
 Red. masses --      2.0824                 3.1872                 2.5435
 Frc consts  --      1.3432                 2.2251                 1.8598
 IR Inten    --     15.7508                20.7735                 9.7459

                     25                     26                     27
                      A                      A                      A
 Frequencies --   1126.0744              1191.5135              1206.0090
 Red. masses --      1.8779                 1.5490                 1.1131
 Frc consts  --      1.4030                 1.2957                 0.9539
 IR Inten    --      2.3315                11.6191                14.7071

                     28                     29                     30
                      A                      A                      A
 Frequencies --   1227.0968              1272.9468              1301.3403
 Red. masses --      1.5432                 1.7786                 1.8451
 Frc consts  --      1.3691                 1.6981                 1.8410
 IR Inten    --     11.2400                14.4609                32.0248

                     31                     32                     33
                      A                      A                      A
 Frequencies --   1311.1908              1341.6438              1392.8655
 Red. masses --      1.4631                 1.8183                 1.3083
 Frc consts  --      1.4820                 1.9283                 1.4955
 IR Inten    --      2.8691                 6.1964                 4.3871

                     34                     35                     36
                      A                      A                      A
 Frequencies --   1404.4975              1416.5132              1477.4694
 Red. masses --      1.2166                 1.4793                 1.0956
 Frc consts  --      1.4140                 1.7488                 1.4091
 IR Inten    --      1.9517                76.4230                 4.3701

                     37                     38                     39
                      A                      A                      A
 Frequencies --   1486.8775              1496.4562              1500.9634
 Red. masses --      1.0791                 1.0457                 1.0502
 Frc consts  --      1.4055                 1.3797                 1.3940
 IR Inten    --      3.2131                 6.4585                 3.2538

                     40                     41                     42
                      A                      A                      A
 Frequencies --   1695.5433              1798.0730              2998.8637
 Red. masses --      7.2824                12.6752                 1.0685
 Frc consts  --     12.3350                24.1445                 5.6617
 IR Inten    --     13.2762               218.5592                27.6069

                     43                     44                     45
                      A                      A                      A
 Frequencies --   3020.4629              3026.6616              3036.2004
 Red. masses --      1.0632                 1.0831                 1.0368
 Frc consts  --      5.7147                 5.8457                 5.6313
 IR Inten    --     21.4990                 3.1794                28.8352

                     46                     47                     48
                      A                      A                      A
 Frequencies --   3054.9767              3056.0578              3103.0173
 Red. masses --      1.0966                 1.0922                 1.1010
 Frc consts  --      6.0299                 6.0101                 6.2463
 IR Inten    --     22.3050                13.2202                28.3697

                     49                     50                     51
                      A                      A                      A
 Frequencies --   3123.1217              3195.4951              3814.9262
 Red. masses --      1.1015                 1.0929                 1.0662
 Frc consts  --      6.3303                 6.5751                 9.1421
 IR Inten    --     10.9974                 6.6399                18.1501

 - Thermochemistry -
 -------------------
 Temperature   298.150 Kelvin.  Pressure   1.00000 Atm.
 Atom     1 has atomic number  6 and mass  12.00000

 Molecular mass:   126.06808 amu.
 Principal axes and moments of inertia in atomic units:
                           1         2         3
     Eigenvalues --   595.015341596.761852057.95330
           X            0.99981  -0.01901   0.00404
           Y            0.01899   0.99981   0.00421
           Z           -0.00412  -0.00413   0.99998
 This molecule is an asymmetric top.
 Rotational symmetry number  1.
 Warning -- assumption of classical behavior for rotation
           may cause significant error
 Rotational temperatures (Kelvin)      0.14557     0.05424     0.04209
 Rotational constants (GHZ):           3.03310     1.13025     0.87696
 Zero-point vibrational energy     416776.3 (Joules/Mol)
                                   99.61194 (Kcal/Mol)
 Warning -- explicit consideration of  12 degrees of freedom as
           vibrations may cause significant error
 Vibrational temperatures:     70.83   117.21   238.02   295.38   334.08
          (Kelvin)            348.58   434.12   475.35   509.33   594.30
                              784.18   860.80   969.59  1098.14  1123.09
                             1215.69  1286.98  1331.88  1362.60  1425.82
                             1459.65  1505.37  1566.15  1602.86  1620.17
                             1714.32  1735.18  1765.52  1831.48  1872.34
                             1886.51  1930.32  2004.02  2020.76  2038.04
                             2125.75  2139.28  2153.06  2159.55  2439.51
                             2587.02  4314.69  4345.77  4354.69  4368.41
                             4395.42  4396.98  4464.54  4493.47  4597.60
                             5488.82

 Zero-point correction=                           0.158742 (Hartree/Particle)
 Thermal correction to Energy=                    0.167997
 Thermal correction to Enthalpy=                  0.168941
 Thermal correction to Gibbs Free Energy=         0.124151
 Sum of electronic and zero-point Energies=           -423.066669
 Sum of electronic and thermal Energies=              -423.057414
 Sum of electronic and thermal Enthalpies=            -423.056470
 Sum of electronic and thermal Free Energies=         -423.101260

                     E (Thermal)             CV                S
                      KCal/Mol        Cal/Mol-Kelvin    Cal/Mol-Kelvin
 Total                  105.420             33.696             94.269
 Electronic               0.000              0.000              0.000
 Translational            0.889              2.981             40.409
 Rotational               0.889              2.981             29.060
 Vibrational            103.642             27.734             24.800
 Vibration     1          0.595              1.978              4.848
 Vibration     2          0.600              1.962              3.855
 Vibration     3          0.624              1.885              2.487
 Vibration     4          0.640              1.832              2.085
 Vibration     5          0.653              1.792              1.862
 Vibration     6          0.658              1.776              1.786
 Vibration     7          0.694              1.670              1.407
 Vibration     8          0.713              1.615              1.258
 Vibration     9          0.730              1.567              1.148
 Vibration    10          0.777              1.442              0.916
 Vibration    11          0.900              1.151              0.555
 Vibration    12          0.956              1.035              0.453

 Optimization completed.
    -- Stationary point found.
 Normal termination of Gaussian 09 at Tue Jan 28 13:20:51 2020.
