 Gaussian 09, Revision D.01,
 Gaussian 09:  ES64L-G09RevD.01 24-Apr-2013

 -----------------------------
 # b3lyp 6-31G(2df,p) opt Freq
 -----------------------------

 -----
 titel
 -----
 Symbolic Z-matrix:
 Charge =  0 Multiplicity = 1

 SCF Done:  E(RB3LYP) =  -423.165098926     A.U. after   14 cycles
 Optimization completed.
    -- Stationary point found.
 Normal termination of Gaussian 09 at Mon Jan 27 17:07:34 2020.

 ----------------------------------------------------------------------
 #N Geom=AllCheck Guess=TCheck SCRF=Check GenChk RB3LYP/6-31G(2df,p) Fr
 eq
 ----------------------------------------------------------------------

 Structure from the checkpoint file:  "/scratch/puck/g09_f5f4c442-bf06-482b-a1fb-afe94717dd6f/Gau-145774.chk"
 -----
 titel
 -----
 Charge =  0 Multiplicity = 1

                         Standard orientation:
 ---------------------------------------------------------------------
 Center     Atomic      Atomic             Coordinates (Angstroms)
 Number     Number       Type             X           Y           Z
 ---------------------------------------------------------------------
      1          8           0        1.594757    1.144594    0.758533
      2          6           0        0.641914    0.369938    0.091084
      3          6           0       -0.215496    1.174525   -0.954611
      4          6           0       -1.508844    0.852128   -0.175948
      5          6           0       -2.181634   -0.512038   -0.517261
      6          6           0       -1.479434   -1.166716    0.711247
      7          6           0       -0.669419    0.134817    0.937253
      8          6           0        1.306974   -0.857286   -0.481185
      9          8           0        2.484472   -1.081010   -0.319253
     10          1           0        2.428686    0.651186    0.690460
     11          1           0        0.077532    2.224578   -0.894204
     12          1           0       -0.170483    0.851346   -1.999921
     13          1           0       -2.183137    1.683033    0.030668
     14          1           0       -3.272555   -0.513186   -0.468906
     15          1           0       -1.890875   -0.918982   -1.491067
     16          1           0       -2.179167   -1.335132    1.533837
     17          1           0       -0.929589   -2.098355    0.552695
     18          1           0       -0.551920    0.509961    1.953642
     19          1           0        0.673308   -1.535329   -1.084919
 ---------------------------------------------------------------------

 SCF Done:  E(RB3LYP) =  -423.165098926     A.U. after    1 cycles

 The electronic state is 1-A.
 Alpha  occ. eigenvalues --  -19.15865 -19.13409 -10.27973 -10.24570 -10.19324
 Alpha  occ. eigenvalues --  -10.19250 -10.19113 -10.19007 -10.18964  -1.07000
 Alpha  occ. eigenvalues --   -1.01776  -0.87443  -0.75955  -0.69610  -0.65805
 Alpha  occ. eigenvalues --   -0.61736  -0.57882  -0.52861  -0.52375  -0.50045
 Alpha  occ. eigenvalues --   -0.47516  -0.45545  -0.44531  -0.41780  -0.41176
 Alpha  occ. eigenvalues --   -0.37721  -0.36501  -0.35196  -0.34905  -0.32270
 Alpha  occ. eigenvalues --   -0.30911  -0.29183  -0.26308  -0.25850
 Alpha virt. eigenvalues --   -0.03922   0.06953   0.08454   0.09683   0.10760
 Alpha virt. eigenvalues --    0.12770   0.14210   0.14510   0.16054   0.16758
 Alpha virt. eigenvalues --    0.17518   0.18809   0.20769   0.21264   0.22222

 Mulliken charges:
               1
     1  O   -0.479972
     2  C    0.325259
     3  C   -0.301652
     4  C   -0.006127
     5  C   -0.233231
     6  C   -0.242901
     7  C   -0.067304
     8  C    0.101849
     9  O   -0.281930
    10  H    0.289901
    11  H    0.128060
    12  H    0.097526
    13  H    0.072523
    14  H    0.107314
    15  H    0.097275
    16  H    0.110331
    17  H    0.099038
    18  H    0.083965
    19  H    0.100076
 Sum of Mulliken charges =   0.00000

 Dipole moment (field-independent basis, Debye):
    X=             -2.4157    Y=             -0.4194    Z=             -0.6563  Tot=              2.5382
 Quadrupole moment (field-independent basis, Debye-Ang):
   XX=            -57.1394   YY=            -55.1314   ZZ=            -52.5403
   XY=              1.1942   XZ=             -0.5474   YZ=             -1.2314

  Exact polarizability:  87.828  -0.499  72.159   1.483   0.369  66.372
 Approx polarizability: 125.959  -4.527 106.356   3.784   2.741 100.493

                      1                      2                      3
                      A                      A                      A
 Frequencies --     68.8835                89.8916               234.5783
 Red. masses --      2.8576                 5.1237                 2.3057
 Frc consts  --      0.0080                 0.0244                 0.0748
 IR Inten    --      0.5264                 0.0812                 1.2636

                      4                      5                      6
                      A                      A                      A
 Frequencies --    263.3350               320.7495               346.9041
 Red. masses --      2.9343                 3.7733                 3.2789
 Frc consts  --      0.1199                 0.2287                 0.2325
 IR Inten    --      4.2800                12.9137                10.4514

                      7                      8                      9
                      A                      A                      A
 Frequencies --    384.4351               425.4405               469.4892
 Red. masses --      2.1924                 2.1018                 3.4259
 Frc consts  --      0.1909                 0.2241                 0.4449
 IR Inten    --      7.8030                20.9884                 7.9030

                     10                     11                     12
                      A                      A                      A
 Frequencies --    509.4156               656.2021               745.2638
 Red. masses --      1.4724                 2.5184                 1.4349
 Frc consts  --      0.2251                 0.6389                 0.4696
 IR Inten    --     26.7936                 1.3003                 0.9028

                     13                     14                     15
                      A                      A                      A
 Frequencies --    791.1545               819.3819               839.3535
 Red. masses --      2.0648                 2.4883                 2.5845
 Frc consts  --      0.7615                 0.9843                 1.0728
 IR Inten    --      0.8119                12.8998                20.1632

                     16                     17                     18
                      A                      A                      A
 Frequencies --    860.0846               880.4687               921.4583
 Red. masses --      2.6723                 2.9883                 2.0456
 Frc consts  --      1.1647                 1.3649                 1.0233
 IR Inten    --      3.5493                 5.1593                 2.5613

                     19                     20                     21
                      A                      A                      A
 Frequencies --    936.2879               957.4474               991.2280
 Red. masses --      1.7370                 2.5469                 2.0131
 Frc consts  --      0.8972                 1.3756                 1.1653
 IR Inten    --      7.2453                 0.9328                 0.1916

                     22                     23                     24
                      A                      A                      A
 Frequencies --   1038.8659              1067.1114              1085.9731
 Red. masses --      1.9535                 1.6088                 2.1063
 Frc consts  --      1.2422                 1.0794                 1.4636
 IR Inten    --     10.0214                 2.4031                28.1345

                     25                     26                     27
                      A                      A                      A
 Frequencies --   1096.9328              1153.8617              1168.5559
 Red. masses --      2.0662                 1.8533                 1.9182
 Frc consts  --      1.4648                 1.4538                 1.5433
 IR Inten    --     31.0821                 0.2665                30.0190

                     28                     29                     30
                      A                      A                      A
 Frequencies --   1203.1256              1229.3146              1240.1785
 Red. masses --      1.4326                 1.4774                 1.4284
 Frc consts  --      1.2218                 1.3154                 1.2944
 IR Inten    --      2.5823                 6.5175                 3.1656

                     31                     32                     33
                      A                      A                      A
 Frequencies --   1250.2133              1278.0719              1283.6402
 Red. masses --      1.4311                 1.4802                 1.5249
 Frc consts  --      1.3179                 1.4246                 1.4804
 IR Inten    --      1.8600                 3.1817                 1.6446

                     34                     35                     36
                      A                      A                      A
 Frequencies --   1300.5976              1326.7084              1386.5652
 Red. masses --      1.8536                 1.7522                 1.1973
 Frc consts  --      1.8473                 1.8171                 1.3562
 IR Inten    --      5.8745                 3.8280                87.1439

                     37                     38                     39
                      A                      A                      A
 Frequencies --   1437.9434              1461.1211              1482.3471
 Red. masses --      1.4031                 1.1058                 1.0807
 Frc consts  --      1.7093                 1.3909                 1.3991
 IR Inten    --     36.7364                 2.5660                 2.0059

                     40                     41                     42
                      A                      A                      A
 Frequencies --   1499.8115              1799.5501              2945.7481
 Red. masses --      1.1109                10.3384                 1.0856
 Frc consts  --      1.4723                19.7256                 5.5503
 IR Inten    --      1.6094               181.1805                56.6712

                     43                     44                     45
                      A                      A                      A
 Frequencies --   3046.0088              3050.7749              3058.1572
 Red. masses --      1.0628                 1.0610                 1.0608
 Frc consts  --      5.8096                 5.8183                 5.8451
 IR Inten    --     19.6068                47.3168                36.8985

                     46                     47                     48
                      A                      A                      A
 Frequencies --   3093.0013              3104.0778              3112.0344
 Red. masses --      1.1027                 1.0949                 1.0984
 Frc consts  --      6.2154                 6.2155                 6.2673
 IR Inten    --      8.3406                10.3772                32.4962

                     49                     50                     51
                      A                      A                      A
 Frequencies --   3118.3832              3124.1940              3672.1675
 Red. masses --      1.0969                 1.0991                 1.0646
 Frc consts  --      6.2844                 6.3207                 8.4584
 IR Inten    --     14.8436                42.2286                76.0693

 - Thermochemistry -
 -------------------
 Temperature   298.150 Kelvin.  Pressure   1.00000 Atm.
 Atom     1 has atomic number  8 and mass  15.99491

 Molecular mass:   126.06808 amu.
 Principal axes and moments of inertia in atomic units:
                           1         2         3
     Eigenvalues --   622.298151331.831241523.89062
           X            0.99969   0.02469   0.00179
           Y           -0.02461   0.99894  -0.03879
           Z           -0.00275   0.03874   0.99925
 This molecule is an asymmetric top.
 Rotational symmetry number  1.
 Warning -- assumption of classical behavior for rotation
           may cause significant error
 Rotational temperatures (Kelvin)      0.13918     0.06503     0.05684
 Rotational constants (GHZ):           2.90012     1.35508     1.18430
 Zero-point vibrational energy     416458.9 (Joules/Mol)
                                   99.53606 (Kcal/Mol)
 Warning -- explicit consideration of  10 degrees of freedom as
           vibrations may cause significant error
 Vibrational temperatures:     99.11   129.33   337.51   378.88   461.49
          (Kelvin)            499.12   553.12   612.11   675.49   732.93
                              944.13  1072.27  1138.29  1178.91  1207.64
                             1237.47  1266.80  1325.77  1347.11  1377.55
                             1426.15  1494.69  1535.33  1562.47  1578.24
                             1660.15  1681.29  1731.03  1768.71  1784.34
                             1798.78  1838.86  1846.87  1871.27  1908.84
                             1994.96  2068.88  2102.22  2132.76  2157.89
                             2589.15  4238.27  4382.52  4389.38  4400.00
                             4450.13  4466.07  4477.52  4486.65  4495.01
                             5283.42

 Zero-point correction=                           0.158621 (Hartree/Particle)
 Thermal correction to Energy=                    0.166850
 Thermal correction to Enthalpy=                  0.167794
 Thermal correction to Gibbs Free Energy=         0.125600
 Sum of electronic and zero-point Energies=           -423.006478
 Sum of electronic and thermal Energies=              -422.998249
 Sum of electronic and thermal Enthalpies=            -422.997305
 Sum of electronic and thermal Free Energies=         -423.039499

                     E (Thermal)             CV                S
                      KCal/Mol        Cal/Mol-Kelvin    Cal/Mol-Kelvin
 Total                  104.700             31.947             88.806
 Electronic               0.000              0.000              0.000
 Translational            0.889              2.981             40.409
 Rotational               0.889              2.981             28.626
 Vibrational            102.923             25.985             19.772
 Vibration     1          0.598              1.969              4.185
 Vibration     2          0.602              1.956              3.662
 Vibration     3          0.654              1.788              1.844
 Vibration     4          0.670              1.740              1.640
 Vibration     5          0.706              1.634              1.306
 Vibration     6          0.725              1.582              1.180
 Vibration     7          0.753              1.503              1.022
 Vibration     8          0.787              1.415              0.874
 Vibration     9          0.827              1.318              0.739
 Vibration    10          0.865              1.229              0.635

 Normal termination of Gaussian 09 at Mon Jan 27 17:52:43 2020.
