 Gaussian 09, Revision D.01,
 Gaussian 09:  ES64L-G09RevD.01 24-Apr-2013

 -----------------------------
 # b3lyp 6-31G(2df,p) opt Freq
 -----------------------------

 -----
 titel
 -----
 Symbolic Z-matrix:
 Charge =  0 Multiplicity = 1

 SCF Done:  E(RB3LYP) =  -423.119870490     A.U. after   13 cycles
 Optimization completed.
    -- Stationary point found.
 Normal termination of Gaussian 09 at Mon Jan 27 22:05:01 2020.

 ----------------------------------------------------------------------
 #N Geom=AllCheck Guess=TCheck SCRF=Check GenChk RB3LYP/6-31G(2df,p) Fr
 eq
 ----------------------------------------------------------------------

 Structure from the checkpoint file:  "/scratch/puck/g09_545a380a-9ab0-4040-8eb9-da62c81a826a/Gau-15070.chk"
 -----
 titel
 -----
 Charge =  0 Multiplicity = 1

                         Standard orientation:
 ---------------------------------------------------------------------
 Center     Atomic      Atomic             Coordinates (Angstroms)
 Number     Number       Type             X           Y           Z
 ---------------------------------------------------------------------
      1          6           0        0.127473    2.210144   -0.043277
      2          6           0        0.070885    0.805344   -0.627333
      3          6           0        1.095747   -0.153123   -0.008383
      4          8           0        2.446832    0.049962    0.172777
      5          6           0        0.432755   -1.540136   -0.085396
      6          8           0       -0.819052   -1.388961   -0.748524
      7          6           0       -0.979911   -0.150353    0.026141
      8          6           0       -2.405056    0.224153    0.284372
      9          6           0        0.122522   -0.627907    1.056977
     10          1           0       -0.718543    2.817322   -0.381267
     11          1           0        0.116764    2.185193    1.052029
     12          1           0        1.048268    2.717051   -0.348827
     13          1           0        0.013467    0.829369   -1.723001
     14          1           0        2.904002   -0.199898   -0.638311
     15          1           0        0.966373   -2.480524   -0.139692
     16          1           0       -2.922621   -0.574397    0.823057
     17          1           0       -2.464413    1.142309    0.876052
     18          1           0       -2.925507    0.391225   -0.665034
     19          1           0        0.173484   -0.724397    2.132359
 ---------------------------------------------------------------------

 SCF Done:  E(RB3LYP) =  -423.119870490     A.U. after    1 cycles

 The electronic state is 1-A.
 Alpha  occ. eigenvalues --  -19.15527 -19.12927 -10.24536 -10.23842 -10.23320
 Alpha  occ. eigenvalues --  -10.18680 -10.18581 -10.18148 -10.17495  -1.06021
 Alpha  occ. eigenvalues --   -1.03331  -0.84997  -0.76995  -0.73034  -0.65264
 Alpha  occ. eigenvalues --   -0.61366  -0.57973  -0.52634  -0.50573  -0.48823
 Alpha  occ. eigenvalues --   -0.45814  -0.44730  -0.42458  -0.40795  -0.39402
 Alpha  occ. eigenvalues --   -0.39141  -0.37715  -0.36780  -0.34946  -0.32850
 Alpha  occ. eigenvalues --   -0.30236  -0.27907  -0.25538  -0.21489
 Alpha virt. eigenvalues --    0.07155   0.08983   0.09288   0.12377   0.12715
 Alpha virt. eigenvalues --    0.14199   0.14738   0.15122   0.15566   0.16670
 Alpha virt. eigenvalues --    0.17650   0.19029   0.19977   0.20925   0.22752

 Mulliken charges:
               1
     1  C   -0.408228
     2  C   -0.106862
     3  C    0.344283
     4  O   -0.461468
     5  C   -0.002885
     6  O   -0.331282
     7  C    0.423652
     8  C   -0.511020
     9  C   -0.254541
    10  H    0.112234
    11  H    0.117626
    12  H    0.121780
    13  H    0.064876
    14  H    0.289475
    15  H    0.107338
    16  H    0.132485
    17  H    0.127337
    18  H    0.132663
    19  H    0.102535
 Sum of Mulliken charges =   0.00000

 Dipole moment (field-independent basis, Debye):
    X=              0.4003    Y=              0.5418    Z=             -0.0414  Tot=              0.6749
 Quadrupole moment (field-independent basis, Debye-Ang):
   XX=            -51.0581   YY=            -53.6599   ZZ=            -52.5310
   XY=             -4.4270   XZ=             -5.3177   YZ=             -1.7827

  Exact polarizability:  81.052  -2.473  76.679  -2.110  -1.302  65.093
 Approx polarizability: 112.815  -0.862 108.335  -1.442   1.507 105.338

                      1                      2                      3
                      A                      A                      A
 Frequencies --    171.7586               193.7802               206.7480
 Red. masses --      2.4264                 1.4202                 1.7076
 Frc consts  --      0.0422                 0.0314                 0.0430
 IR Inten    --      0.9164                 0.4141                 0.3697

                      4                      5                      6
                      A                      A                      A
 Frequencies --    224.6280               238.7786               286.0534
 Red. masses --      1.1642                 2.2311                 2.4249
 Frc consts  --      0.0346                 0.0749                 0.1169
 IR Inten    --      0.6246                 8.3272                 4.5864

                      7                      8                      9
                      A                      A                      A
 Frequencies --    312.7096               370.7331               427.4876
 Red. masses --      1.4589                 2.5138                 3.4955
 Frc consts  --      0.0841                 0.2036                 0.3764
 IR Inten    --     78.2824                12.5692                13.2676

                     10                     11                     12
                      A                      A                      A
 Frequencies --    504.3445               559.4479               594.9037
 Red. masses --      4.7577                 4.5110                 3.4916
 Frc consts  --      0.7130                 0.8318                 0.7281
 IR Inten    --      1.3760                 3.0771                 5.2459

                     13                     14                     15
                      A                      A                      A
 Frequencies --    667.3640               762.4196               774.6809
 Red. masses --      2.9477                 2.4357                 2.9822
 Frc consts  --      0.7735                 0.8342                 1.0545
 IR Inten    --      0.6297                 0.5523                 9.6246

                     16                     17                     18
                      A                      A                      A
 Frequencies --    818.9361               832.2255               851.2554
 Red. masses --      2.5651                 1.3451                 2.9287
 Frc consts  --      1.0136                 0.5489                 1.2504
 IR Inten    --      9.1451                 4.4146                35.0586

                     19                     20                     21
                      A                      A                      A
 Frequencies --    921.9377               955.7372               972.2380
 Red. masses --      2.2022                 3.4995                 1.7050
 Frc consts  --      1.1028                 1.8834                 0.9496
 IR Inten    --      4.6577                 0.3806                 5.6774

                     22                     23                     24
                      A                      A                      A
 Frequencies --   1015.4340              1043.0256              1074.2131
 Red. masses --      3.3184                 1.3491                 1.6955
 Frc consts  --      2.0160                 0.8648                 1.1528
 IR Inten    --     49.4168                 4.5793                12.8842

                     25                     26                     27
                      A                      A                      A
 Frequencies --   1084.7751              1103.3917              1138.9502
 Red. masses --      1.8377                 1.9632                 2.4016
 Frc consts  --      1.2741                 1.4082                 1.8355
 IR Inten    --      9.1019                16.3777                 4.6835

                     28                     29                     30
                      A                      A                      A
 Frequencies --   1148.0375              1209.9693              1229.8706
 Red. masses --      2.4472                 1.6276                 2.0630
 Frc consts  --      1.9003                 1.4039                 1.8385
 IR Inten    --      5.3737                27.4832                32.9743

                     31                     32                     33
                      A                      A                      A
 Frequencies --   1291.6021              1297.9948              1338.6502
 Red. masses --      2.6773                 1.5391                 2.4516
 Frc consts  --      2.6315                 1.5277                 2.5884
 IR Inten    --     36.2048                94.4655                13.0829

                     34                     35                     36
                      A                      A                      A
 Frequencies --   1357.5211              1408.8231              1413.3341
 Red. masses --      1.9327                 1.2903                 1.5163
 Frc consts  --      2.0985                 1.5089                 1.7845
 IR Inten    --      1.2032                 1.7963                21.4218

                     37                     38                     39
                      A                      A                      A
 Frequencies --   1445.2001              1476.8072              1488.0651
 Red. masses --      3.1525                 1.0591                 1.0588
 Frc consts  --      3.8793                 1.3610                 1.3814
 IR Inten    --     15.5970                 3.2510                 3.4715

                     40                     41                     42
                      A                      A                      A
 Frequencies --   1495.2749              1500.8470              3026.8026
 Red. masses --      1.0499                 1.0796                 1.0816
 Frc consts  --      1.3831                 1.4328                 5.8385
 IR Inten    --      3.0884                 7.1599                35.7569

                     43                     44                     45
                      A                      A                      A
 Frequencies --   3030.4056              3038.4427              3099.0897
 Red. masses --      1.0365                 1.0360                 1.1008
 Frc consts  --      5.6080                 5.6351                 6.2292
 IR Inten    --     21.6443                16.3120                29.3521

                     46                     47                     48
                      A                      A                      A
 Frequencies --   3100.6470              3108.3374              3120.2056
 Red. masses --      1.1014                 1.1000                 1.1016
 Frc consts  --      6.2388                 6.2617                 6.3191
 IR Inten    --     22.1435                14.6370                13.1334

                     49                     50                     51
                      A                      A                      A
 Frequencies --   3199.0318              3215.9431              3788.9269
 Red. masses --      1.0908                 1.1020                 1.0660
 Frc consts  --      6.5770                 6.7148                 9.0168
 IR Inten    --     14.5028                 7.5010                26.9748

 - Thermochemistry -
 -------------------
 Temperature   298.150 Kelvin.  Pressure   1.00000 Atm.
 Atom     1 has atomic number  6 and mass  12.00000

 Molecular mass:   126.06808 amu.
 Principal axes and moments of inertia in atomic units:
                           1         2         3
     Eigenvalues --   715.89753 996.474911427.93516
           X            0.99814  -0.05733  -0.02087
           Y            0.05703   0.99826  -0.01482
           Z            0.02168   0.01360   0.99967
 This molecule is an asymmetric top.
 Rotational symmetry number  1.
 Warning -- assumption of classical behavior for rotation
           may cause significant error
 Rotational temperatures (Kelvin)      0.12099     0.08692     0.06066
 Rotational constants (GHZ):           2.52095     1.81113     1.26388
 Zero-point vibrational energy     412339.5 (Joules/Mol)
                                   98.55151 (Kcal/Mol)
 Warning -- explicit consideration of  12 degrees of freedom as
           vibrations may cause significant error
 Vibrational temperatures:    247.12   278.81   297.46   323.19   343.55
          (Kelvin)            411.57   449.92   533.40   615.06   725.64
                              804.92   855.93   960.19  1096.95  1114.59
                             1178.26  1197.39  1224.77  1326.46  1375.09
                             1398.83  1460.98  1500.68  1545.55  1560.75
                             1587.53  1638.69  1651.77  1740.87  1769.51
                             1858.33  1867.52  1926.02  1953.17  2026.98
                             2033.47  2079.32  2124.79  2140.99  2151.36
                             2159.38  4354.89  4360.07  4371.64  4458.89
                             4461.13  4472.20  4489.27  4602.69  4627.02
                             5451.41

 Zero-point correction=                           0.157052 (Hartree/Particle)
 Thermal correction to Energy=                    0.165613
 Thermal correction to Enthalpy=                  0.166558
 Thermal correction to Gibbs Free Energy=         0.124698
 Sum of electronic and zero-point Energies=           -422.962819
 Sum of electronic and thermal Energies=              -422.954257
 Sum of electronic and thermal Enthalpies=            -422.953313
 Sum of electronic and thermal Free Energies=         -422.995173

                     E (Thermal)             CV                S
                      KCal/Mol        Cal/Mol-Kelvin    Cal/Mol-Kelvin
 Total                  103.924             33.794             88.101
 Electronic               0.000              0.000              0.000
 Translational            0.889              2.981             40.409
 Rotational               0.889              2.981             28.412
 Vibrational            102.147             27.832             19.281
 Vibration     1          0.626              1.877              2.416
 Vibration     2          0.635              1.849              2.191
 Vibration     3          0.641              1.830              2.072
 Vibration     4          0.649              1.804              1.921
 Vibration     5          0.657              1.781              1.812
 Vibration     6          0.684              1.700              1.497
 Vibration     7          0.701              1.649              1.348
 Vibration     8          0.743              1.532              1.077
 Vibration     9          0.789              1.410              0.867
 Vibration    10          0.860              1.240              0.647
 Vibration    11          0.915              1.119              0.525
 Vibration    12          0.953              1.043              0.459

 Normal termination of Gaussian 09 at Mon Jan 27 22:56:22 2020.
