 Gaussian 09, Revision D.01,
 Gaussian 09:  ES64L-G09RevD.01 24-Apr-2013

 -----------------------------
 # b3lyp 6-31G(2df,p) opt Freq
 -----------------------------

 -----
 titel
 -----
 Symbolic Z-matrix:
 Charge =  0 Multiplicity = 1

 SCF Done:  E(RB3LYP) =  -423.170601509     A.U. after   14 cycles
 Optimization completed.
    -- Stationary point found.
 Normal termination of Gaussian 09 at Tue Jan 28 00:42:53 2020.

 ----------------------------------------------------------------------
 #N Geom=AllCheck Guess=TCheck SCRF=Check GenChk RB3LYP/6-31G(2df,p) Fr
 eq
 ----------------------------------------------------------------------

 Structure from the checkpoint file:  "/scratch/puck/g09_a8124c30-1775-455f-8e7c-fb1f3b112057/Gau-36886.chk"
 -----
 titel
 -----
 Charge =  0 Multiplicity = 1

                         Standard orientation:
 ---------------------------------------------------------------------
 Center     Atomic      Atomic             Coordinates (Angstroms)
 Number     Number       Type             X           Y           Z
 ---------------------------------------------------------------------
      1          8           0       -0.014272    2.107644   -0.647467
      2          6           0       -0.061708    1.102861    0.367195
      3          6           0       -1.489421    0.722481    0.683464
      4          6           0       -1.986798   -0.461836    0.333946
      5          6           0       -1.162704   -1.482758   -0.399367
      6          8           0        0.023871   -0.931279   -0.950817
      7          6           0        0.719768   -0.138042   -0.018893
      8          6           0        2.195921   -0.081376   -0.209598
      9          6           0        1.617449   -0.836676    0.973114
     10          1           0       -0.387166    1.704518   -1.440550
     11          1           0        0.406296    1.568483    1.241683
     12          1           0       -2.103565    1.470899    1.175375
     13          1           0       -3.012356   -0.737656    0.566683
     14          1           0       -0.921268   -2.327084    0.270690
     15          1           0       -1.724368   -1.897458   -1.244077
     16          1           0        2.603229   -0.671089   -1.022740
     17          1           0        2.691410    0.867509   -0.037895
     18          1           0        1.649601   -1.919651    0.930254
     19          1           0        1.726354   -0.417316    1.967680
 ---------------------------------------------------------------------

 SCF Done:  E(RB3LYP) =  -423.170601509     A.U. after    1 cycles

 The electronic state is 1-A.
 Alpha  occ. eigenvalues --  -19.14832 -19.12974 -10.23667 -10.23451 -10.23352
 Alpha  occ. eigenvalues --  -10.19106 -10.18555 -10.18444 -10.18284  -1.04765
 Alpha  occ. eigenvalues --   -1.00881  -0.85177  -0.79622  -0.72104  -0.65320
 Alpha  occ. eigenvalues --   -0.60712  -0.59318  -0.52962  -0.51675  -0.50169
 Alpha  occ. eigenvalues --   -0.46893  -0.45983  -0.43824  -0.42568  -0.40603
 Alpha  occ. eigenvalues --   -0.39889  -0.36537  -0.36245  -0.32709  -0.31426
 Alpha  occ. eigenvalues --   -0.29003  -0.27156  -0.26127  -0.23978
 Alpha virt. eigenvalues --    0.00968   0.08683   0.10260   0.10665   0.11584
 Alpha virt. eigenvalues --    0.12949   0.14483   0.15559   0.16068   0.16774
 Alpha virt. eigenvalues --    0.17257   0.19627   0.21083   0.22595   0.23413

 Mulliken charges:
               1
     1  O   -0.432622
     2  C    0.027833
     3  C   -0.100165
     4  C   -0.065193
     5  C   -0.140383
     6  O   -0.298499
     7  C    0.410664
     8  C   -0.326746
     9  C   -0.334173
    10  H    0.280466
    11  H    0.085305
    12  H    0.098021
    13  H    0.097063
    14  H    0.103272
    15  H    0.117336
    16  H    0.122852
    17  H    0.123653
    18  H    0.117300
    19  H    0.114016
 Sum of Mulliken charges =   0.00000

 Dipole moment (field-independent basis, Debye):
    X=             -0.9626    Y=             -1.3682    Z=              0.7910  Tot=              1.8505
 Quadrupole moment (field-independent basis, Debye-Ang):
   XX=            -50.0592   YY=            -55.7512   ZZ=            -52.1359
   XY=              1.1151   XZ=              1.0203   YZ=              0.7936

  Exact polarizability:  83.757   5.919  81.013  -0.209   3.161  64.310
 Approx polarizability: 110.243  13.413 125.913   1.109   5.715 101.182

                      1                      2                      3
                      A                      A                      A
 Frequencies --     90.5580               173.7233               219.6534
 Red. masses --      3.8306                 3.3388                 2.4242
 Frc consts  --      0.0185                 0.0594                 0.0689
 IR Inten    --      2.3855                 0.2377                 5.2603

                      4                      5                      6
                      A                      A                      A
 Frequencies --    250.0245               297.8559               354.5913
 Red. masses --      2.8689                 2.0308                 2.4491
 Frc consts  --      0.1057                 0.1062                 0.1814
 IR Inten    --      0.5671                12.3507                10.0986

                      7                      8                      9
                      A                      A                      A
 Frequencies --    390.1380               443.7566               507.2341
 Red. masses --      1.4274                 4.1165                 3.5392
 Frc consts  --      0.1280                 0.4776                 0.5365
 IR Inten    --     72.5327                 7.0445                 1.7732

                     10                     11                     12
                      A                      A                      A
 Frequencies --    531.3119               582.8193               709.2116
 Red. masses --      4.0125                 2.9827                 2.9200
 Frc consts  --      0.6674                 0.5969                 0.8653
 IR Inten    --      5.8458                 6.3281                 0.7934

                     13                     14                     15
                      A                      A                      A
 Frequencies --    752.1521               769.2835               848.2217
 Red. masses --      1.8906                 1.0573                 2.8006
 Frc consts  --      0.6302                 0.3686                 1.1872
 IR Inten    --     30.0973                 0.7062                11.6559

                     16                     17                     18
                      A                      A                      A
 Frequencies --    883.8296               912.9034               924.0398
 Red. masses --      2.5415                 1.4215                 2.9650
 Frc consts  --      1.1697                 0.6980                 1.4916
 IR Inten    --     13.7683                 1.4109                 2.1342

                     19                     20                     21
                      A                      A                      A
 Frequencies --    970.1447               992.2940              1003.9608
 Red. masses --      2.6266                 1.4516                 1.9330
 Frc consts  --      1.4565                 0.8421                 1.1479
 IR Inten    --      3.2701                 0.9310                 7.0581

                     22                     23                     24
                      A                      A                      A
 Frequencies --   1013.2589              1045.4626              1054.4970
 Red. masses --      2.4588                 2.2286                 1.6708
 Frc consts  --      1.4874                 1.4352                 1.0946
 IR Inten    --     34.5681                58.0469                54.7450

                     25                     26                     27
                      A                      A                      A
 Frequencies --   1067.6867              1076.5621              1110.4332
 Red. masses --      2.9850                 1.4695                 3.2737
 Frc consts  --      2.0048                 1.0035                 2.3784
 IR Inten    --     17.4254                 4.0170                71.3333

                     28                     29                     30
                      A                      A                      A
 Frequencies --   1183.4092              1186.1945              1256.0188
 Red. masses --      1.2330                 1.2748                 1.4706
 Frc consts  --      1.0174                 1.0568                 1.3669
 IR Inten    --      1.0330                 0.6510                30.0990

                     31                     32                     33
                      A                      A                      A
 Frequencies --   1267.1707              1282.9359              1291.2662
 Red. masses --      1.1566                 1.6997                 1.9219
 Frc consts  --      1.0942                 1.6483                 1.8881
 IR Inten    --      0.8691                17.7987                38.5756

                     34                     35                     36
                      A                      A                      A
 Frequencies --   1379.5483              1400.2213              1405.8859
 Red. masses --      1.6728                 1.4510                 1.7069
 Frc consts  --      1.8757                 1.6762                 1.9877
 IR Inten    --     16.4516                 3.9806                 5.2237

                     37                     38                     39
                      A                      A                      A
 Frequencies --   1432.4536              1455.0260              1483.1081
 Red. masses --      1.3096                 1.0928                 1.1005
 Frc consts  --      1.5832                 1.3631                 1.4262
 IR Inten    --     46.3226                 5.3269                 4.3232

                     40                     41                     42
                      A                      A                      A
 Frequencies --   1499.5786              1718.2607              2948.9985
 Red. masses --      1.5092                 6.7242                 1.0719
 Frc consts  --      1.9996                11.6968                 5.4925
 IR Inten    --      6.8791                 1.1263                50.8908

                     43                     44                     45
                      A                      A                      A
 Frequencies --   3052.8836              3059.0886              3132.9133
 Red. masses --      1.0845                 1.0878                 1.0527
 Frc consts  --      5.9554                 5.9979                 6.0877
 IR Inten    --     25.2325                26.4375                10.9788

                     46                     47                     48
                      A                      A                      A
 Frequencies --   3141.2441              3154.7626              3180.5904
 Red. masses --      1.0558                 1.0846                 1.0977
 Frc consts  --      6.1381                 6.3602                 6.5425
 IR Inten    --      7.0391                 8.6725                23.2800

                     49                     50                     51
                      A                      A                      A
 Frequencies --   3217.5232              3233.6360              3793.4812
 Red. masses --      1.1182                 1.1161                 1.0658
 Frc consts  --      6.8207                 6.8763                 9.0361
 IR Inten    --      1.9506                 7.7543                18.7493

 - Thermochemistry -
 -------------------
 Temperature   298.150 Kelvin.  Pressure   1.00000 Atm.
 Atom     1 has atomic number  8 and mass  15.99491

 Molecular mass:   126.06808 amu.
 Principal axes and moments of inertia in atomic units:
                           1         2         3
     Eigenvalues --   792.78077 998.922061389.54550
           X            0.99977   0.02062   0.00575
           Y           -0.02065   0.99977   0.00490
           Z           -0.00565  -0.00502   0.99997
 This molecule is an asymmetric top.
 Rotational symmetry number  1.
 Warning -- assumption of classical behavior for rotation
           may cause significant error
 Rotational temperatures (Kelvin)      0.10925     0.08671     0.06233
 Rotational constants (GHZ):           2.27647     1.80669     1.29880
 Zero-point vibrational energy     419481.4 (Joules/Mol)
                                  100.25845 (Kcal/Mol)
 Warning -- explicit consideration of  11 degrees of freedom as
           vibrations may cause significant error
 Vibrational temperatures:    130.29   249.95   316.03   359.73   428.55
          (Kelvin)            510.18   561.32   638.47   729.80   764.44
                              838.55  1020.40  1082.18  1106.83  1220.40
                             1271.63  1313.46  1329.49  1395.82  1427.69
                             1444.47  1457.85  1504.19  1517.18  1536.16
                             1548.93  1597.66  1702.66  1706.67  1807.13
                             1823.17  1845.86  1857.84  1984.86  2014.60
                             2022.75  2060.98  2093.46  2133.86  2157.56
                             2472.19  4242.95  4392.41  4401.34  4507.56
                             4519.54  4538.99  4576.15  4629.29  4652.48
                             5457.97

 Zero-point correction=                           0.159772 (Hartree/Particle)
 Thermal correction to Energy=                    0.167873
 Thermal correction to Enthalpy=                  0.168817
 Thermal correction to Gibbs Free Energy=         0.127412
 Sum of electronic and zero-point Energies=           -423.010829
 Sum of electronic and thermal Energies=              -423.002729
 Sum of electronic and thermal Enthalpies=            -423.001785
 Sum of electronic and thermal Free Energies=         -423.043190

                     E (Thermal)             CV                S
                      KCal/Mol        Cal/Mol-Kelvin    Cal/Mol-Kelvin
 Total                  105.342             32.088             87.144
 Electronic               0.000              0.000              0.000
 Translational            0.889              2.981             40.409
 Rotational               0.889              2.981             28.489
 Vibrational            103.564             26.127             18.247
 Vibration     1          0.602              1.956              3.648
 Vibration     2          0.627              1.875              2.395
 Vibration     3          0.647              1.811              1.962
 Vibration     4          0.663              1.763              1.730
 Vibration     5          0.691              1.678              1.429
 Vibration     6          0.730              1.566              1.146
 Vibration     7          0.758              1.491              1.000
 Vibration     8          0.803              1.375              0.815
 Vibration     9          0.862              1.234              0.640
 Vibration    10          0.886              1.181              0.584
 Vibration    11          0.940              1.068              0.480

 Optimization completed.
    -- Stationary point found.
 Normal termination of Gaussian 09 at Tue Jan 28 02:56:44 2020.
