 Gaussian 09, Revision D.01,
 Gaussian 09:  ES64L-G09RevD.01 24-Apr-2013

 -----------------------------
 # b3lyp 6-31G(2df,p) opt Freq
 -----------------------------

 -----
 titel
 -----
 Symbolic Z-matrix:
 Charge =  0 Multiplicity = 1

 SCF Done:  E(RB3LYP) =  -423.164412045     A.U. after   14 cycles
 Optimization completed.
    -- Stationary point found.
 Normal termination of Gaussian 09 at Mon Jan 27 17:52:07 2020.

 ----------------------------------------------------------------------
 #N Geom=AllCheck Guess=TCheck SCRF=Check GenChk RB3LYP/6-31G(2df,p) Fr
 eq
 ----------------------------------------------------------------------

 Structure from the checkpoint file:  "/scratch/puck/g09_063a3efe-6c5d-4b82-af73-c20467fd7f42/Gau-67528.chk"
 -----
 titel
 -----
 Charge =  0 Multiplicity = 1

                         Standard orientation:
 ---------------------------------------------------------------------
 Center     Atomic      Atomic             Coordinates (Angstroms)
 Number     Number       Type             X           Y           Z
 ---------------------------------------------------------------------
      1          6           0        1.455278    1.768071   -0.178939
      2          6           0        0.945712    0.365370   -0.118326
      3          8           0        1.427638   -0.575100   -1.088845
      4          6           0        1.542991   -0.913739    0.301436
      5          6           0        0.190855   -1.486830    0.728597
      6          6           0       -0.485599   -0.118092    0.305210
      7          6           0       -1.089267    0.650111    1.473008
      8          6           0       -1.442926   -0.232251   -0.859903
      9          8           0       -2.579087    0.175234   -0.851511
     10          1           0        0.990720    2.315409   -1.006743
     11          1           0        1.235863    2.307292    0.747071
     12          1           0        2.536996    1.766617   -0.337000
     13          1           0        2.536414   -1.148018    0.666945
     14          1           0       -0.119573   -2.384798    0.188071
     15          1           0        0.093556   -1.654695    1.803412
     16          1           0       -1.977635    0.135423    1.848716
     17          1           0       -0.371036    0.745310    2.293795
     18          1           0       -1.401428    1.651968    1.165328
     19          1           0       -1.014548   -0.731435   -1.753248
 ---------------------------------------------------------------------

 SCF Done:  E(RB3LYP) =  -423.164412045     A.U. after    1 cycles

 The electronic state is 1-A.
 Alpha  occ. eigenvalues --  -19.15892 -19.13559 -10.26241 -10.25341 -10.24494
 Alpha  occ. eigenvalues --  -10.21036 -10.20261 -10.19569 -10.18355  -1.08686
 Alpha  occ. eigenvalues --   -1.04115  -0.83139  -0.75393  -0.72307  -0.66730
 Alpha  occ. eigenvalues --   -0.62600  -0.58741  -0.52345  -0.50724  -0.48388
 Alpha  occ. eigenvalues --   -0.46848  -0.44114  -0.43607  -0.41331  -0.40919
 Alpha  occ. eigenvalues --   -0.40424  -0.38777  -0.37938  -0.36377  -0.34785
 Alpha  occ. eigenvalues --   -0.33023  -0.30048  -0.27057  -0.23790
 Alpha virt. eigenvalues --   -0.02293   0.08295   0.09063   0.11130   0.11997
 Alpha virt. eigenvalues --    0.12119   0.13456   0.14390   0.14714   0.15441
 Alpha virt. eigenvalues --    0.15953   0.17464   0.17790   0.19161   0.21291

 Mulliken charges:
               1
     1  C   -0.509776
     2  C    0.378235
     3  O   -0.287753
     4  C   -0.037746
     5  C   -0.308062
     6  C    0.148909
     7  C   -0.462534
     8  C    0.116800
     9  O   -0.263152
    10  H    0.138373
    11  H    0.133077
    12  H    0.138877
    13  H    0.107698
    14  H    0.117824
    15  H    0.117121
    16  H    0.134780
    17  H    0.109478
    18  H    0.131616
    19  H    0.096236
 Sum of Mulliken charges =   0.00000

 Dipole moment (field-independent basis, Debye):
    X=              2.3616    Y=              0.0333    Z=              2.1849  Tot=              3.2175
 Quadrupole moment (field-independent basis, Debye-Ang):
   XX=            -60.7080   YY=            -50.1544   ZZ=            -54.1855
   XY=              2.2247   XZ=              0.1320   YZ=             -1.3337

  Exact polarizability:  83.029  -3.208  74.981   0.271  -1.450  68.646
 Approx polarizability: 122.471 -10.725 109.134   0.414  -2.297 105.656

                      1                      2                      3
                      A                      A                      A
 Frequencies --     73.2281               148.0571               188.5139
 Red. masses --      4.6711                 2.4783                 1.1746
 Frc consts  --      0.0148                 0.0320                 0.0246
 IR Inten    --      3.8248                 2.1909                 0.6769

                      4                      5                      6
                      A                      A                      A
 Frequencies --    201.0975               227.8763               248.0306
 Red. masses --      2.6748                 1.1861                 2.1958
 Frc consts  --      0.0637                 0.0363                 0.0796
 IR Inten    --      2.1676                 0.1213                 2.3585

                      7                      8                      9
                      A                      A                      A
 Frequencies --    274.2671               336.4111               405.0533
 Red. masses --      2.6206                 2.4418                 2.3668
 Frc consts  --      0.1161                 0.1628                 0.2288
 IR Inten    --      2.7490                 2.0351                 0.7381

                     10                     11                     12
                      A                      A                      A
 Frequencies --    450.5999               470.1768               533.4350
 Red. masses --      3.9011                 3.0333                 4.5680
 Frc consts  --      0.4667                 0.3951                 0.7658
 IR Inten    --      2.4260                 9.3584                 6.9340

                     13                     14                     15
                      A                      A                      A
 Frequencies --    628.9369               732.4538               779.0390
 Red. masses --      3.6371                 3.8133                 3.6399
 Frc consts  --      0.8477                 1.2054                 1.3015
 IR Inten    --      1.3628                 8.5711                 5.7095

                     16                     17                     18
                      A                      A                      A
 Frequencies --    829.9105               861.2549               895.6369
 Red. masses --      2.9247                 2.7777                 1.9425
 Frc consts  --      1.1868                 1.2140                 0.9181
 IR Inten    --      2.9159                21.0404                21.2812

                     19                     20                     21
                      A                      A                      A
 Frequencies --    952.6010               958.9000               985.1418
 Red. masses --      1.7443                 1.8851                 1.4978
 Frc consts  --      0.9326                 1.0213                 0.8564
 IR Inten    --      3.9349                18.3564                 5.3558

                     22                     23                     24
                      A                      A                      A
 Frequencies --   1028.4855              1053.7060              1100.6299
 Red. masses --      1.6858                 1.7487                 1.8090
 Frc consts  --      1.0506                 1.1439                 1.2911
 IR Inten    --      3.3827                 4.3953                10.1216

                     25                     26                     27
                      A                      A                      A
 Frequencies --   1124.8914              1132.1482              1171.2157
 Red. masses --      1.7494                 1.8360                 2.8878
 Frc consts  --      1.3042                 1.3865                 2.3340
 IR Inten    --      2.0423                 7.0048                 8.9960

                     28                     29                     30
                      A                      A                      A
 Frequencies --   1202.5295              1261.9725              1271.7844
 Red. masses --      1.9787                 1.7092                 1.7042
 Frc consts  --      1.6859                 1.6038                 1.6240
 IR Inten    --     13.4113                 1.2557                20.1946

                     31                     32                     33
                      A                      A                      A
 Frequencies --   1289.5420              1400.3890              1407.5042
 Red. masses --      3.0466                 1.2778                 1.2268
 Frc consts  --      2.9849                 1.4765                 1.4319
 IR Inten    --      7.3071                 2.9097                 1.1102

                     34                     35                     36
                      A                      A                      A
 Frequencies --   1421.0936              1454.4243              1475.3205
 Red. masses --      1.2688                 1.9746                 1.1047
 Frc consts  --      1.5097                 2.4610                 1.4166
 IR Inten    --      7.0602                12.0659                 5.4575

                     37                     38                     39
                      A                      A                      A
 Frequencies --   1481.9501              1489.7256              1493.0123
 Red. masses --      1.1412                 1.1284                 1.1730
 Frc consts  --      1.4767                 1.4755                 1.5406
 IR Inten    --      8.7237                 6.2161                 8.2951

                     40                     41                     42
                      A                      A                      A
 Frequencies --   1495.0014              1813.2275              2926.9877
 Red. masses --      1.1407                10.3606                 1.0841
 Frc consts  --      1.5021                20.0696                 5.4721
 IR Inten    --      1.2057               176.0146                62.2557

                     43                     44                     45
                      A                      A                      A
 Frequencies --   3038.0453              3040.7168              3065.1970
 Red. masses --      1.0365                 1.0362                 1.0582
 Frc consts  --      5.6362                 5.6448                 5.8579
 IR Inten    --     12.1799                18.0295                22.9340

                     46                     47                     48
                      A                      A                      A
 Frequencies --   3103.2997              3111.3148              3119.7524
 Red. masses --      1.0989                 1.1010                 1.1015
 Frc consts  --      6.2351                 6.2798                 6.3166
 IR Inten    --     10.2697                16.6101                14.6025

                     49                     50                     51
                      A                      A                      A
 Frequencies --   3124.8194              3125.0965              3184.6524
 Red. masses --      1.1062                 1.1028                 1.0942
 Frc consts  --      6.3643                 6.3454                 6.5382
 IR Inten    --      8.1341                15.4739                19.4803

 - Thermochemistry -
 -------------------
 Temperature   298.150 Kelvin.  Pressure   1.00000 Atm.
 Atom     1 has atomic number  6 and mass  12.00000

 Molecular mass:   126.06808 amu.
 Principal axes and moments of inertia in atomic units:
                           1         2         3
     Eigenvalues --   741.645831292.523511370.19402
           X            0.99935   0.03058  -0.01907
           Y           -0.03075   0.99949  -0.00860
           Z            0.01880   0.00918   0.99978
 This molecule is an asymmetric top.
 Rotational symmetry number  1.
 Warning -- assumption of classical behavior for rotation
           may cause significant error
 Rotational temperatures (Kelvin)      0.11679     0.06701     0.06321
 Rotational constants (GHZ):           2.43343     1.39629     1.31714
 Zero-point vibrational energy     410253.7 (Joules/Mol)
                                   98.05298 (Kcal/Mol)
 Warning -- explicit consideration of  12 degrees of freedom as
           vibrations may cause significant error
 Vibrational temperatures:    105.36   213.02   271.23   289.33   327.86
          (Kelvin)            356.86   394.61   484.02   582.78   648.31
                              676.48   767.49   904.90  1053.84  1120.86
                             1194.05  1239.15  1288.62  1370.58  1379.64
                             1417.40  1479.76  1516.05  1583.56  1618.47
                             1628.91  1685.12  1730.17  1815.69  1829.81
                             1855.36  2014.84  2025.08  2044.63  2092.59
                             2122.65  2132.19  2143.38  2148.11  2150.97
                             2608.83  4211.28  4371.06  4374.91  4410.13
                             4464.95  4476.48  4488.62  4495.91  4496.31
                             4582.00

 Zero-point correction=                           0.156257 (Hartree/Particle)
 Thermal correction to Energy=                    0.165418
 Thermal correction to Enthalpy=                  0.166362
 Thermal correction to Gibbs Free Energy=         0.122629
 Sum of electronic and zero-point Energies=           -423.008155
 Sum of electronic and thermal Energies=              -422.998994
 Sum of electronic and thermal Enthalpies=            -422.998050
 Sum of electronic and thermal Free Energies=         -423.041783

                     E (Thermal)             CV                S
                      KCal/Mol        Cal/Mol-Kelvin    Cal/Mol-Kelvin
 Total                  103.801             34.251             92.045
 Electronic               0.000              0.000              0.000
 Translational            0.889              2.981             40.409
 Rotational               0.889              2.981             28.665
 Vibrational            102.024             28.290             22.972
 Vibration     1          0.599              1.967              4.065
 Vibration     2          0.617              1.905              2.697
 Vibration     3          0.633              1.856              2.242
 Vibration     4          0.638              1.838              2.123
 Vibration     5          0.651              1.799              1.896
 Vibration     6          0.662              1.766              1.745
 Vibration     7          0.677              1.721              1.569
 Vibration     8          0.717              1.603              1.229
 Vibration     9          0.770              1.459              0.944
 Vibration    10          0.809              1.360              0.794
 Vibration    11          0.827              1.316              0.737
 Vibration    12          0.888              1.176              0.580

 Optimization completed.
    -- Stationary point found.
 Normal termination of Gaussian 09 at Mon Jan 27 18:39:05 2020.
