 Gaussian 09, Revision D.01,
 Gaussian 09:  ES64L-G09RevD.01 24-Apr-2013

 -----------------------------
 # b3lyp 6-31G(2df,p) opt Freq
 -----------------------------

 -----
 titel
 -----
 Symbolic Z-matrix:
 Charge =  0 Multiplicity = 1

 SCF Done:  E(RB3LYP) =  -423.138513640     A.U. after   14 cycles
 SCF Done:  E(RB3LYP) =  -423.138513584     A.U. after    6 cycles
 SCF Done:  E(RB3LYP) =  -423.138513657     A.U. after    7 cycles
 Optimization completed.
    -- Stationary point found.
 Normal termination of Gaussian 09 at Mon Jan 27 11:21:51 2020.

 ----------------------------------------------------------------------
 #N Geom=AllCheck Guess=TCheck SCRF=Check GenChk RB3LYP/6-31G(2df,p) Fr
 eq
 ----------------------------------------------------------------------

 Structure from the checkpoint file:  "/scratch/puck/g09_fb42a5d2-737c-4340-b319-94149ef4bd11/Gau-94785.chk"
 -----
 titel
 -----
 Charge =  0 Multiplicity = 1

                         Standard orientation:
 ---------------------------------------------------------------------
 Center     Atomic      Atomic             Coordinates (Angstroms)
 Number     Number       Type             X           Y           Z
 ---------------------------------------------------------------------
      1          6           0        3.234879   -0.147759   -0.640174
      2          6           0        2.213400    0.068864   -0.044207
      3          6           0        0.952688    0.336041    0.659122
      4          6           0        0.117400    1.403296   -0.097779
      5          6           0       -1.391578    1.325224    0.164562
      6          8           0       -2.030055    0.352707   -0.646980
      7          6           0       -1.886705   -0.983620   -0.213513
      8          6           0       -0.442477   -1.474328   -0.137975
      9          8           0        0.244569   -0.864967    0.948012
     10          1           0        4.143952   -0.342683   -1.153643
     11          1           0        1.189958    0.727193    1.655516
     12          1           0        0.497347    2.390498    0.188566
     13          1           0        0.269380    1.308110   -1.176763
     14          1           0       -1.600713    1.144499    1.229937
     15          1           0       -1.850778    2.279167   -0.113042
     16          1           0       -2.344362   -1.119182    0.780251
     17          1           0       -2.444452   -1.592911   -0.933699
     18          1           0       -0.444610   -2.552269    0.062378
     19          1           0        0.082533   -1.310657   -1.087974
 ---------------------------------------------------------------------

 SCF Done:  E(RB3LYP) =  -423.138513657     A.U. after    1 cycles

 The electronic state is 1-A.
 Alpha  occ. eigenvalues --  -19.14537 -19.13877 -10.25948 -10.23080 -10.22823
 Alpha  occ. eigenvalues --  -10.22644 -10.18918 -10.18305 -10.17860  -1.04502
 Alpha  occ. eigenvalues --   -1.02325  -0.80705  -0.75098  -0.72775  -0.69939
 Alpha  occ. eigenvalues --   -0.60514  -0.59451  -0.53250  -0.50744  -0.50200
 Alpha  occ. eigenvalues --   -0.48748  -0.48197  -0.43523  -0.42598  -0.41365
 Alpha  occ. eigenvalues --   -0.38315  -0.37088  -0.36957  -0.31891  -0.31157
 Alpha  occ. eigenvalues --   -0.28217  -0.27225  -0.26618  -0.24564
 Alpha virt. eigenvalues --    0.03176   0.05301   0.09659   0.10945   0.12231
 Alpha virt. eigenvalues --    0.12508   0.13478   0.13621   0.15716   0.16119
 Alpha virt. eigenvalues --    0.17295   0.17499   0.18146   0.19131   0.22309

 Mulliken charges:
               1
     1  C   -0.463538
     2  C    0.336436
     3  C   -0.070931
     4  C   -0.235592
     5  C   -0.080703
     6  O   -0.243426
     7  C   -0.068264
     8  C   -0.096543
     9  O   -0.250716
    10  H    0.199860
    11  H    0.115114
    12  H    0.110651
    13  H    0.123323
    14  H    0.098193
    15  H    0.106996
    16  H    0.094872
    17  H    0.104791
    18  H    0.108883
    19  H    0.110594
 Sum of Mulliken charges =   0.00000

 Dipole moment (field-independent basis, Debye):
    X=              0.3232    Y=              0.3278    Z=             -0.1320  Tot=              0.4789
 Quadrupole moment (field-independent basis, Debye-Ang):
   XX=            -52.6692   YY=            -49.9160   ZZ=            -54.1219
   XY=              1.6158   XZ=             -3.8830   YZ=              3.2910

  Exact polarizability:  95.125   0.228  74.292  -8.308   3.734  63.596
 Approx polarizability: 129.130  -2.129 102.445 -17.009   5.105 105.088

                      1                      2                      3
                      A                      A                      A
 Frequencies --     65.3836               134.8299               213.5698
 Red. masses --      4.0431                 3.6057                 3.0369
 Frc consts  --      0.0102                 0.0386                 0.0816
 IR Inten    --      0.2441                 0.9678                 3.8671

                      4                      5                      6
                      A                      A                      A
 Frequencies --    217.1029               303.7576               320.2111
 Red. masses --      2.5546                 2.9169                 4.8522
 Frc consts  --      0.0709                 0.1586                 0.2931
 IR Inten    --      4.0062                 5.5062                 1.9512

                      7                      8                      9
                      A                      A                      A
 Frequencies --    354.1914               398.1805               510.1095
 Red. masses --      3.8955                 2.2403                 3.1833
 Frc consts  --      0.2879                 0.2093                 0.4880
 IR Inten    --      0.7008                 2.1155                 0.7039

                     10                     11                     12
                      A                      A                      A
 Frequencies --    523.3849               567.8529               617.8400
 Red. masses --      2.7588                 2.6189                 1.6282
 Frc consts  --      0.4453                 0.4975                 0.3662
 IR Inten    --      1.8634                22.5271                22.1114

                     13                     14                     15
                      A                      A                      A
 Frequencies --    628.7806               673.0278               755.1967
 Red. masses --      2.0519                 1.2506                 2.8341
 Frc consts  --      0.4780                 0.3338                 0.9523
 IR Inten    --     24.5288                33.8644                 2.0565

                     16                     17                     18
                      A                      A                      A
 Frequencies --    845.9458               859.6013               934.6045
 Red. masses --      2.9558                 2.4628                 2.3255
 Frc consts  --      1.2463                 1.0722                 1.1968
 IR Inten    --     10.2168                17.7322                13.0446

                     19                     20                     21
                      A                      A                      A
 Frequencies --    978.3651               985.9443              1025.2704
 Red. masses --      2.4763                 2.9519                 2.7775
 Frc consts  --      1.3966                 1.6907                 1.7202
 IR Inten    --     19.9878                21.9542                 3.1542

                     22                     23                     24
                      A                      A                      A
 Frequencies --   1051.9009              1087.9285              1119.3836
 Red. masses --      2.5600                 2.6608                 2.6485
 Frc consts  --      1.6689                 1.8555                 1.9553
 IR Inten    --     17.1438                25.5652                 9.4141

                     25                     26                     27
                      A                      A                      A
 Frequencies --   1135.9263              1173.0283              1232.7458
 Red. masses --      2.9766                 4.6014                 1.3166
 Frc consts  --      2.2630                 3.7304                 1.1789
 IR Inten    --     17.2996               204.2510                25.2825

                     28                     29                     30
                      A                      A                      A
 Frequencies --   1272.4905              1305.3702              1314.7705
 Red. masses --      1.1902                 1.2466                 1.2335
 Frc consts  --      1.1355                 1.2515                 1.2562
 IR Inten    --      8.4470                21.1666                12.6725

                     31                     32                     33
                      A                      A                      A
 Frequencies --   1339.6580              1371.5542              1376.3527
 Red. masses --      1.2060                 1.2956                 1.2080
 Frc consts  --      1.2752                 1.4359                 1.3482
 IR Inten    --      7.4887                11.0356                 2.5901

                     34                     35                     36
                      A                      A                      A
 Frequencies --   1394.5009              1400.3424              1420.6902
 Red. masses --      1.2389                 1.3114                 1.3013
 Frc consts  --      1.4195                 1.5151                 1.5475
 IR Inten    --     15.4218                12.9434                 8.1214

                     37                     38                     39
                      A                      A                      A
 Frequencies --   1472.6881              1477.6989              1493.0482
 Red. masses --      1.0861                 1.0838                 1.0995
 Frc consts  --      1.3878                 1.3943                 1.4441
 IR Inten    --      2.1152                 1.7375                 9.6428

                     40                     41                     42
                      A                      A                      A
 Frequencies --   1495.8202              2229.6467              2975.3149
 Red. masses --      1.0944                 5.9039                 1.0680
 Frc consts  --      1.4427                17.2927                 5.5703
 IR Inten    --      0.5816                 1.1754                44.9568

                     43                     44                     45
                      A                      A                      A
 Frequencies --   2995.0961              3020.8850              3036.7590
 Red. masses --      1.0666                 1.0581                 1.0831
 Frc consts  --      5.6372                 5.6893                 5.8848
 IR Inten    --     48.8478                25.4191                 9.4431

                     46                     47                     48
                      A                      A                      A
 Frequencies --   3046.8770              3070.4079              3072.0971
 Red. masses --      1.0645                 1.0932                 1.1072
 Frc consts  --      5.8222                 6.0719                 6.1569
 IR Inten    --     10.8196                50.2104                31.7532

                     49                     50                     51
                      A                      A                      A
 Frequencies --   3079.0602              3098.5500              3502.7573
 Red. masses --      1.0955                 1.1011                 1.1623
 Frc consts  --      6.1194                 6.2286                 8.4019
 IR Inten    --     34.1376                20.9689                63.1272

 - Thermochemistry -
 -------------------
 Temperature   298.150 Kelvin.  Pressure   1.00000 Atm.
 Atom     1 has atomic number  6 and mass  12.00000

 Molecular mass:   126.06808 amu.
 Principal axes and moments of inertia in atomic units:
                           1         2         3
     Eigenvalues --   596.166611462.295951758.53546
           X            0.99985   0.01080  -0.01321
           Y           -0.01024   0.99907   0.04188
           Z            0.01365  -0.04174   0.99904
 This molecule is an asymmetric top.
 Rotational symmetry number  1.
 Warning -- assumption of classical behavior for rotation
           may cause significant error
 Rotational temperatures (Kelvin)      0.14528     0.05923     0.04925
 Rotational constants (GHZ):           3.02724     1.23418     1.02628
 Zero-point vibrational energy     418552.4 (Joules/Mol)
                                  100.03643 (Kcal/Mol)
 Warning -- explicit consideration of  12 degrees of freedom as
           vibrations may cause significant error
 Vibrational temperatures:     94.07   193.99   307.28   312.36   437.04
          (Kelvin)            460.71   509.60   572.89   733.93   753.03
                              817.01   888.93   904.67   968.34  1086.56
                             1217.13  1236.77  1344.69  1407.65  1418.55
                             1475.13  1513.45  1565.28  1610.54  1634.34
                             1687.72  1773.64  1830.83  1878.13  1891.66
                             1927.47  1973.36  1980.26  2006.37  2014.78
                             2044.05  2118.87  2126.08  2148.16  2152.15
                             3207.96  4280.81  4309.27  4346.37  4369.21
                             4383.77  4417.63  4420.06  4430.08  4458.12
                             5039.68

 Zero-point correction=                           0.159418 (Hartree/Particle)
 Thermal correction to Energy=                    0.167917
 Thermal correction to Enthalpy=                  0.168861
 Thermal correction to Gibbs Free Energy=         0.126246
 Sum of electronic and zero-point Energies=           -422.979095
 Sum of electronic and thermal Energies=              -422.970596
 Sum of electronic and thermal Enthalpies=            -422.969652
 Sum of electronic and thermal Free Energies=         -423.012267

                     E (Thermal)             CV                S
                      KCal/Mol        Cal/Mol-Kelvin    Cal/Mol-Kelvin
 Total                  105.370             32.645             89.691
 Electronic               0.000              0.000              0.000
 Translational            0.889              2.981             40.409
 Rotational               0.889              2.981             28.818
 Vibrational            103.592             26.683             20.464
 Vibration     1          0.597              1.971              4.288
 Vibration     2          0.613              1.919              2.876
 Vibration     3          0.644              1.820              2.013
 Vibration     4          0.646              1.815              1.983
 Vibration     5          0.695              1.667              1.396
 Vibration     6          0.706              1.635              1.309
 Vibration     7          0.730              1.567              1.147
 Vibration     8          0.764              1.474              0.969
 Vibration     9          0.865              1.228              0.633
 Vibration    10          0.878              1.198              0.602
 Vibration    11          0.924              1.101              0.508
 Vibration    12          0.978              0.994              0.420

 Optimization completed.
    -- Stationary point found.
 Normal termination of Gaussian 09 at Mon Jan 27 12:02:48 2020.
