 Gaussian 09, Revision D.01,
 Gaussian 09:  ES64L-G09RevD.01 24-Apr-2013

 -----------------------------
 # b3lyp 6-31G(2df,p) opt Freq
 -----------------------------

 -----
 titel
 -----
 Symbolic Z-matrix:
 Charge =  0 Multiplicity = 1

 SCF Done:  E(RB3LYP) =  -423.154804299     A.U. after   14 cycles
 Optimization completed.
    -- Stationary point found.
 Normal termination of Gaussian 09 at Tue Jan 28 00:02:19 2020.

 ----------------------------------------------------------------------
 #N Geom=AllCheck Guess=TCheck SCRF=Check GenChk RB3LYP/6-31G(2df,p) Fr
 eq
 ----------------------------------------------------------------------

 Structure from the checkpoint file:  "/scratch/puck/g09_68095c07-f165-4571-9418-158c839f9cc5/Gau-31931.chk"
 -----
 titel
 -----
 Charge =  0 Multiplicity = 1

                         Standard orientation:
 ---------------------------------------------------------------------
 Center     Atomic      Atomic             Coordinates (Angstroms)
 Number     Number       Type             X           Y           Z
 ---------------------------------------------------------------------
      1          6           0        3.061577   -0.288607   -0.063611
      2          6           0        1.613336   -0.041183   -0.418651
      3          6           0        0.713478    0.762771    0.477536
      4          8           0       -0.209416    1.603262   -0.148523
      5          6           0       -1.567055    1.213691    0.054668
      6          6           0       -1.830931   -0.189978   -0.468521
      7          8           0       -1.912558   -1.238473    0.500410
      8          6           0       -0.743464   -1.176221   -0.326436
      9          6           0        0.506534   -0.732699    0.355941
     10          1           0        3.432284   -1.210870   -0.524027
     11          1           0        3.697276    0.536260   -0.402727
     12          1           0        3.192370   -0.385962    1.019332
     13          1           0        1.409666    0.113605   -1.475213
     14          1           0        1.112313    1.156707    1.412108
     15          1           0       -1.836130    1.258682    1.119039
     16          1           0       -2.164431    1.950514   -0.488210
     17          1           0       -2.534891   -0.289637   -1.293431
     18          1           0       -0.667155   -1.989740   -1.047508
     19          1           0        0.813638   -1.344515    1.199988
 ---------------------------------------------------------------------

 SCF Done:  E(RB3LYP) =  -423.154804299     A.U. after    1 cycles

 The electronic state is 1-A.
 Alpha  occ. eigenvalues --  -19.14897 -19.14537 -10.24026 -10.23658 -10.23407
 Alpha  occ. eigenvalues --  -10.23263 -10.19577 -10.19390 -10.18342  -1.07320
 Alpha  occ. eigenvalues --   -1.03761  -0.86125  -0.73584  -0.72320  -0.66439
 Alpha  occ. eigenvalues --   -0.62836  -0.58143  -0.53380  -0.52883  -0.50306
 Alpha  occ. eigenvalues --   -0.47357  -0.45163  -0.43466  -0.42191  -0.41059
 Alpha  occ. eigenvalues --   -0.40229  -0.38090  -0.36295  -0.34750  -0.30856
 Alpha  occ. eigenvalues --   -0.30176  -0.27685  -0.26821  -0.24567
 Alpha virt. eigenvalues --    0.07303   0.09880   0.10442   0.10837   0.11834
 Alpha virt. eigenvalues --    0.12743   0.14822   0.15417   0.15629   0.16623
 Alpha virt. eigenvalues --    0.17048   0.18171   0.18508   0.20498   0.22687

 Mulliken charges:
               1
     1  C   -0.417316
     2  C   -0.048723
     3  C    0.086590
     4  O   -0.257238
     5  C   -0.105401
     6  C    0.025803
     7  O   -0.254336
     8  C    0.024084
     9  C   -0.107972
    10  H    0.121232
    11  H    0.123863
    12  H    0.117071
    13  H    0.094160
    14  H    0.086567
    15  H    0.109588
    16  H    0.111378
    17  H    0.095795
    18  H    0.096275
    19  H    0.098579
 Sum of Mulliken charges =   0.00000

 Dipole moment (field-independent basis, Debye):
    X=              0.8655    Y=             -0.1122    Z=             -0.6586  Tot=              1.0934
 Quadrupole moment (field-independent basis, Debye-Ang):
   XX=            -51.6429   YY=            -56.1777   ZZ=            -51.7642
   XY=             -4.2350   XZ=              3.3146   YZ=              2.3995

  Exact polarizability:  90.919  -4.482  70.794   1.795   1.332  63.442
 Approx polarizability: 116.208  -4.107 107.539  -1.383  -2.567 100.129

                      1                      2                      3
                      A                      A                      A
 Frequencies --    138.3467               161.2134               207.8696
 Red. masses --      3.3244                 1.9147                 1.3679
 Frc consts  --      0.0375                 0.0293                 0.0348
 IR Inten    --      1.5469                 2.7484                 2.6232

                      4                      5                      6
                      A                      A                      A
 Frequencies --    222.7816               311.2903               368.0762
 Red. masses --      2.4998                 3.0462                 2.6912
 Frc consts  --      0.0731                 0.1739                 0.2148
 IR Inten    --      0.3713                 5.1126                 2.6450

                      7                      8                      9
                      A                      A                      A
 Frequencies --    418.1071               447.1556               490.3054
 Red. masses --      4.4192                 4.5748                 4.4690
 Frc consts  --      0.4552                 0.5389                 0.6330
 IR Inten    --      1.5769                 6.5439                 5.8024

                     10                     11                     12
                      A                      A                      A
 Frequencies --    556.9225               785.5287               793.7847
 Red. masses --      4.2548                 3.0960                 3.6112
 Frc consts  --      0.7775                 1.1256                 1.3406
 IR Inten    --      4.1328                 1.1363                13.3912

                     13                     14                     15
                      A                      A                      A
 Frequencies --    815.9021               841.1304               870.7612
 Red. masses --      2.5221                 2.7671                 2.6732
 Frc consts  --      0.9892                 1.1535                 1.1942
 IR Inten    --     12.2215                 1.4257                27.2007

                     16                     17                     18
                      A                      A                      A
 Frequencies --    913.0418               953.4263               968.2341
 Red. masses --      1.9831                 3.1769                 1.9948
 Frc consts  --      0.9740                 1.7015                 1.1018
 IR Inten    --      2.1162                 5.4497                22.4839

                     19                     20                     21
                      A                      A                      A
 Frequencies --    990.3745              1046.9667              1061.4437
 Red. masses --      2.3168                 1.4437                 1.7336
 Frc consts  --      1.3389                 0.9324                 1.1508
 IR Inten    --     11.5512                 4.6241                 5.4371

                     22                     23                     24
                      A                      A                      A
 Frequencies --   1074.6965              1103.4751              1113.8082
 Red. masses --      1.8779                 1.3634                 2.0780
 Frc consts  --      1.2779                 0.9782                 1.5189
 IR Inten    --     34.6993                 3.5964                10.6896

                     25                     26                     27
                      A                      A                      A
 Frequencies --   1131.7652              1136.6855              1178.3032
 Red. masses --      1.6805                 2.7268                 1.7057
 Frc consts  --      1.2683                 2.0758                 1.3953
 IR Inten    --      2.0806                15.7784                 0.2311

                     28                     29                     30
                      A                      A                      A
 Frequencies --   1183.9136              1220.8311              1281.2286
 Red. masses --      2.1715                 1.7117                 1.3490
 Frc consts  --      1.7933                 1.5031                 1.3047
 IR Inten    --     36.1914                21.7140                 5.0127

                     31                     32                     33
                      A                      A                      A
 Frequencies --   1288.0995              1311.6083              1331.2981
 Red. masses --      1.1668                 1.3440                 1.1761
 Frc consts  --      1.1407                 1.3623                 1.2282
 IR Inten    --      8.3805                 3.0021                 1.0472

                     34                     35                     36
                      A                      A                      A
 Frequencies --   1380.6307              1395.5635              1417.7554
 Red. masses --      1.4806                 1.3815                 1.2345
 Frc consts  --      1.6628                 1.5853                 1.4619
 IR Inten    --     15.8496                 0.6162                 2.1422

                     37                     38                     39
                      A                      A                      A
 Frequencies --   1447.8931              1458.1400              1490.6702
 Red. masses --      3.5141                 2.3564                 1.0986
 Frc consts  --      4.3405                 2.9519                 1.4384
 IR Inten    --     30.5752                 5.8096                 2.0314

                     40                     41                     42
                      A                      A                      A
 Frequencies --   1493.0669              1502.7551              3012.3430
 Red. masses --      1.0523                 1.1048                 1.0669
 Frc consts  --      1.3821                 1.4699                 5.7042
 IR Inten    --      4.1061                 7.3852                44.4699

                     43                     44                     45
                      A                      A                      A
 Frequencies --   3029.0918              3093.5570              3096.6119
 Red. masses --      1.0351                 1.1011                 1.0995
 Frc consts  --      5.5960                 6.2084                 6.2119
 IR Inten    --     32.2814                19.1703                15.9576

                     46                     47                     48
                      A                      A                      A
 Frequencies --   3097.4080              3102.5460              3108.0057
 Red. masses --      1.0956                 1.0887                 1.0866
 Frc consts  --      6.1931                 6.1742                 6.1840
 IR Inten    --     16.2642                29.6188                29.4881

                     49                     50                     51
                      A                      A                      A
 Frequencies --   3125.7602              3142.1656              3149.7955
 Red. masses --      1.0926                 1.0903                 1.0862
 Frc consts  --      6.2896                 6.3425                 6.3495
 IR Inten    --     49.2928                 2.9573                22.0380

 - Thermochemistry -
 -------------------
 Temperature   298.150 Kelvin.  Pressure   1.00000 Atm.
 Atom     1 has atomic number  6 and mass  12.00000

 Molecular mass:   126.06808 amu.
 Principal axes and moments of inertia in atomic units:
                           1         2         3
     Eigenvalues --   554.444341318.926211687.36245
           X            0.99933  -0.03529   0.00998
           Y            0.03502   0.99905   0.02604
           Z           -0.01089  -0.02567   0.99961
 This molecule is an asymmetric top.
 Rotational symmetry number  1.
 Warning -- assumption of classical behavior for rotation
           may cause significant error
 Rotational temperatures (Kelvin)      0.15622     0.06567     0.05133
 Rotational constants (GHZ):           3.25504     1.36834     1.06956
 Zero-point vibrational energy     420260.9 (Joules/Mol)
                                  100.44476 (Kcal/Mol)
 Warning -- explicit consideration of  10 degrees of freedom as
           vibrations may cause significant error
 Vibrational temperatures:    199.05   231.95   299.08   320.53   447.88
          (Kelvin)            529.58   601.56   643.36   705.44   801.29
                             1130.20  1142.08  1173.90  1210.20  1252.83
                             1313.66  1371.77  1393.07  1424.93  1506.35
                             1527.18  1546.25  1587.65  1602.52  1628.36
                             1635.43  1695.31  1703.39  1756.50  1843.40
                             1853.29  1887.11  1915.44  1986.42  2007.90
                             2039.83  2083.19  2097.94  2144.74  2148.19
                             2162.13  4334.08  4358.18  4450.93  4455.33
                             4456.47  4463.87  4471.72  4497.27  4520.87
                             4531.85

 Zero-point correction=                           0.160069 (Hartree/Particle)
 Thermal correction to Energy=                    0.167851
 Thermal correction to Enthalpy=                  0.168795
 Thermal correction to Gibbs Free Energy=         0.127961
 Sum of electronic and zero-point Energies=           -422.994735
 Sum of electronic and thermal Energies=              -422.986953
 Sum of electronic and thermal Enthalpies=            -422.986009
 Sum of electronic and thermal Free Energies=         -423.026843

                     E (Thermal)             CV                S
                      KCal/Mol        Cal/Mol-Kelvin    Cal/Mol-Kelvin
 Total                  105.328             30.523             85.942
 Electronic               0.000              0.000              0.000
 Translational            0.889              2.981             40.409
 Rotational               0.889              2.981             28.602
 Vibrational            103.551             24.561             16.931
 Vibration     1          0.614              1.915              2.827
 Vibration     2          0.622              1.890              2.536
 Vibration     3          0.641              1.829              2.062
 Vibration     4          0.648              1.806              1.936
 Vibration     5          0.700              1.652              1.355
 Vibration     6          0.741              1.538              1.088
 Vibration     7          0.781              1.431              0.898
 Vibration     8          0.806              1.367              0.804
 Vibration     9          0.846              1.272              0.683
 Vibration    10          0.912              1.125              0.530

 Normal termination of Gaussian 09 at Tue Jan 28 00:48:34 2020.
