 Gaussian 09, Revision D.01,
 Gaussian 09:  ES64L-G09RevD.01 24-Apr-2013

 -----------------------------
 # b3lyp 6-31G(2df,p) opt Freq
 -----------------------------

 -----
 titel
 -----
 Symbolic Z-matrix:
 Charge =  0 Multiplicity = 1

 SCF Done:  E(RB3LYP) =  -423.153176951     A.U. after   14 cycles
 Optimization completed.
    -- Stationary point found.
 Normal termination of Gaussian 09 at Tue Jan 28 09:25:11 2020.

 ----------------------------------------------------------------------
 #N Geom=AllCheck Guess=TCheck SCRF=Check GenChk RB3LYP/6-31G(2df,p) Fr
 eq
 ----------------------------------------------------------------------

 Structure from the checkpoint file:  "/scratch/puck/g09_88593bad-fe06-4e3d-bf7b-acae72bae212/Gau-82697.chk"
 -----
 titel
 -----
 Charge =  0 Multiplicity = 1

                         Standard orientation:
 ---------------------------------------------------------------------
 Center     Atomic      Atomic             Coordinates (Angstroms)
 Number     Number       Type             X           Y           Z
 ---------------------------------------------------------------------
      1          6           0        2.981165   -0.906612   -0.216664
      2          6           0        1.848142   -0.539772    0.752357
      3          6           0        0.775643    0.264108    0.088150
      4          6           0        0.745810    1.743817   -0.132505
      5          6           0       -0.424237    1.065109    0.558717
      6          6           0       -1.206959    0.271776   -0.489817
      7          8           0        0.004241   -0.382169   -0.946680
      8          6           0       -2.155983   -0.735342    0.131643
      9          8           0       -3.341482   -0.561532    0.234018
     10          1           0        3.737614   -1.517956    0.283440
     11          1           0        2.591732   -1.473989   -1.066671
     12          1           0        3.471238   -0.009212   -0.607001
     13          1           0        1.405544   -1.452652    1.168993
     14          1           0        2.241220    0.038798    1.596370
     15          1           0        1.371639    2.328553    0.535115
     16          1           0        0.636745    2.145196   -1.136185
     17          1           0       -0.773986    1.328297    1.547717
     18          1           0       -1.717012    0.836627   -1.277799
     19          1           0       -1.648298   -1.652562    0.506035
 ---------------------------------------------------------------------

 SCF Done:  E(RB3LYP) =  -423.153176951     A.U. after    1 cycles

 The electronic state is 1-A.
 Alpha  occ. eigenvalues --  -19.15166 -19.14709 -10.27393 -10.25371 -10.24982
 Alpha  occ. eigenvalues --  -10.21009 -10.19966 -10.19782 -10.18140  -1.06770
 Alpha  occ. eigenvalues --   -1.05109  -0.84632  -0.78350  -0.73063  -0.64996
 Alpha  occ. eigenvalues --   -0.61496  -0.58383  -0.54387  -0.51441  -0.49849
 Alpha  occ. eigenvalues --   -0.46816  -0.45316  -0.44762  -0.42216  -0.40398
 Alpha  occ. eigenvalues --   -0.39782  -0.38801  -0.37154  -0.35954  -0.34443
 Alpha  occ. eigenvalues --   -0.32290  -0.29193  -0.26451  -0.24144
 Alpha virt. eigenvalues --   -0.03384   0.07087   0.09879   0.10394   0.11286
 Alpha virt. eigenvalues --    0.12330   0.13400   0.14492   0.15244   0.16388
 Alpha virt. eigenvalues --    0.17068   0.18005   0.18520   0.19464   0.21296

 Mulliken charges:
               1
     1  C   -0.377176
     2  C   -0.290581
     3  C    0.490074
     4  C   -0.340220
     5  C   -0.209669
     6  C    0.021691
     7  O   -0.335416
     8  C    0.147228
     9  O   -0.242020
    10  H    0.115034
    11  H    0.139125
    12  H    0.121083
    13  H    0.107899
    14  H    0.106421
    15  H    0.120270
    16  H    0.119621
    17  H    0.113373
    18  H    0.105649
    19  H    0.087611
 Sum of Mulliken charges =   0.00000

 Dipole moment (field-independent basis, Debye):
    X=              2.7459    Y=              0.9453    Z=              1.0303  Tot=              3.0814
 Quadrupole moment (field-independent basis, Debye-Ang):
   XX=            -62.5913   YY=            -51.6769   ZZ=            -52.6809
   XY=             -0.8411   XZ=              2.4727   YZ=             -0.5911

  Exact polarizability:  94.532   0.362  73.313   0.375  -2.403  62.626
 Approx polarizability: 128.745  -0.559 107.025  -1.155  -0.437  96.569

                      1                      2                      3
                      A                      A                      A
 Frequencies --     57.0714                74.7382               105.1054
 Red. masses --      3.7913                 3.6708                 2.8870
 Frc consts  --      0.0073                 0.0121                 0.0188
 IR Inten    --      6.6195                 1.5257                 1.3178

                      4                      5                      6
                      A                      A                      A
 Frequencies --    189.4022               223.2395               256.0909
 Red. masses --      2.3413                 1.2372                 2.5760
 Frc consts  --      0.0495                 0.0363                 0.0995
 IR Inten    --      0.9459                 0.1522                 3.3970

                      7                      8                      9
                      A                      A                      A
 Frequencies --    350.1304               376.9434               426.2847
 Red. masses --      2.1801                 3.1204                 3.9175
 Frc consts  --      0.1575                 0.2612                 0.4194
 IR Inten    --      3.4135                 4.6916                 5.1316

                     10                     11                     12
                      A                      A                      A
 Frequencies --    458.7906               499.4646               680.5749
 Red. masses --      3.1963                 3.5499                 3.0111
 Frc consts  --      0.3964                 0.5218                 0.8217
 IR Inten    --      5.7087                10.2129                 2.9900

                     13                     14                     15
                      A                      A                      A
 Frequencies --    778.1217               805.1002               836.8529
 Red. masses --      1.3700                 2.6908                 1.9859
 Frc consts  --      0.4887                 1.0276                 0.8194
 IR Inten    --      0.9788                 2.2813                 9.0613

                     16                     17                     18
                      A                      A                      A
 Frequencies --    870.6552               944.1845               968.1668
 Red. masses --      2.3315                 1.6956                 2.6754
 Frc consts  --      1.0413                 0.8906                 1.4775
 IR Inten    --     16.2816                 5.9813                71.1329

                     19                     20                     21
                      A                      A                      A
 Frequencies --    977.1572               990.1455              1001.6484
 Red. masses --      2.4920                 1.6579                 1.4533
 Frc consts  --      1.4020                 0.9576                 0.8591
 IR Inten    --     11.0463                12.6865                 4.0063

                     22                     23                     24
                      A                      A                      A
 Frequencies --   1003.8865              1056.2769              1070.4711
 Red. masses --      3.5015                 1.6099                 2.5911
 Frc consts  --      2.0791                 1.0583                 1.7494
 IR Inten    --     31.2163                 8.0201                10.1655

                     25                     26                     27
                      A                      A                      A
 Frequencies --   1072.8726              1104.8954              1137.8570
 Red. masses --      1.6016                 2.0873                 2.5167
 Frc consts  --      1.0862                 1.5013                 1.9198
 IR Inten    --      6.5558                 6.7806                 0.5167

                     28                     29                     30
                      A                      A                      A
 Frequencies --   1194.0456              1237.7982              1252.5171
 Red. masses --      1.7402                 1.5712                 1.5746
 Frc consts  --      1.4618                 1.4184                 1.4555
 IR Inten    --     14.5389                11.0383                 4.7920

                     31                     32                     33
                      A                      A                      A
 Frequencies --   1298.9486              1309.5066              1353.6170
 Red. masses --      1.3713                 1.4984                 1.4288
 Frc consts  --      1.3633                 1.5139                 1.5424
 IR Inten    --      9.5811                 1.8640                 8.5469

                     34                     35                     36
                      A                      A                      A
 Frequencies --   1399.5832              1406.4927              1415.8007
 Red. masses --      1.2603                 1.4090                 1.5302
 Frc consts  --      1.4545                 1.6423                 1.8072
 IR Inten    --      4.4101                 0.8195                 2.3515

                     37                     38                     39
                      A                      A                      A
 Frequencies --   1473.4829              1487.5969              1499.2068
 Red. masses --      1.0829                 1.5238                 1.0712
 Frc consts  --      1.3852                 1.9868                 1.4185
 IR Inten    --      1.8043                 7.1473                 3.6313

                     40                     41                     42
                      A                      A                      A
 Frequencies --   1510.8140              1835.4983              2886.7542
 Red. masses --      1.1482                10.6526                 1.0842
 Frc consts  --      1.5442                21.1453                 5.3231
 IR Inten    --      7.5885               178.9943                78.1591

                     43                     44                     45
                      A                      A                      A
 Frequencies --   3030.4751              3042.7364              3058.2598
 Red. masses --      1.0601                 1.0348                 1.0855
 Frc consts  --      5.7359                 5.6445                 5.9819
 IR Inten    --     20.1530                25.0856                35.3084

                     46                     47                     48
                      A                      A                      A
 Frequencies --   3069.3780              3113.4558              3114.9957
 Red. masses --      1.1014                 1.0995                 1.0567
 Frc consts  --      6.1136                 6.2796                 6.0413
 IR Inten    --     11.1827                23.1199                16.7312

                     49                     50                     51
                      A                      A                      A
 Frequencies --   3121.2392              3202.8822              3210.2435
 Red. masses --      1.1020                 1.1044                 1.1059
 Frc consts  --      6.3253                 6.6748                 6.7146
 IR Inten    --     23.2667                 2.1868                 8.7019

 - Thermochemistry -
 -------------------
 Temperature   298.150 Kelvin.  Pressure   1.00000 Atm.
 Atom     1 has atomic number  6 and mass  12.00000

 Molecular mass:   126.06808 amu.
 Principal axes and moments of inertia in atomic units:
                           1         2         3
     Eigenvalues --   507.245641801.329272015.10199
           X            0.99983  -0.01795   0.00443
           Y            0.01806   0.99951  -0.02566
           Z           -0.00396   0.02573   0.99966
 This molecule is an asymmetric top.
 Rotational symmetry number  1.
 Warning -- assumption of classical behavior for rotation
           may cause significant error
 Rotational temperatures (Kelvin)      0.17075     0.04808     0.04298
 Rotational constants (GHZ):           3.55792     1.00189     0.89561
 Zero-point vibrational energy     411763.3 (Joules/Mol)
                                   98.41380 (Kcal/Mol)
 Warning -- explicit consideration of  11 degrees of freedom as
           vibrations may cause significant error
 Vibrational temperatures:     82.11   107.53   151.22   272.51   321.19
          (Kelvin)            368.46   503.76   542.34   613.33   660.10
                              718.62   979.19  1119.54  1158.36  1204.04
                             1252.68  1358.47  1392.97  1405.91  1424.60
                             1441.15  1444.37  1519.74  1540.17  1543.62
                             1589.70  1637.12  1717.96  1780.91  1802.09
                             1868.89  1884.09  1947.55  2013.69  2023.63
                             2037.02  2120.01  2140.32  2157.02  2173.72
                             2640.87  4153.39  4360.17  4377.81  4400.15
                             4416.14  4479.56  4481.78  4490.76  4608.23
                             4618.82

 Zero-point correction=                           0.156832 (Hartree/Particle)
 Thermal correction to Energy=                    0.165935
 Thermal correction to Enthalpy=                  0.166879
 Thermal correction to Gibbs Free Energy=         0.122197
 Sum of electronic and zero-point Energies=           -422.996345
 Sum of electronic and thermal Energies=              -422.987242
 Sum of electronic and thermal Enthalpies=            -422.986298
 Sum of electronic and thermal Free Energies=         -423.030980

                     E (Thermal)             CV                S
                      KCal/Mol        Cal/Mol-Kelvin    Cal/Mol-Kelvin
 Total                  104.126             33.160             94.041
 Electronic               0.000              0.000              0.000
 Translational            0.889              2.981             40.409
 Rotational               0.889              2.981             29.000
 Vibrational            102.348             27.198             24.632
 Vibration     1          0.596              1.975              4.556
 Vibration     2          0.599              1.966              4.025
 Vibration     3          0.605              1.945              3.357
 Vibration     4          0.633              1.854              2.234
 Vibration     5          0.649              1.806              1.933
 Vibration     6          0.666              1.752              1.688
 Vibration     7          0.727              1.575              1.166
 Vibration     8          0.747              1.519              1.051
 Vibration     9          0.788              1.413              0.871
 Vibration    10          0.817              1.341              0.770
 Vibration    11          0.855              1.251              0.659

 Optimization completed.
    -- Stationary point found.
 Normal termination of Gaussian 09 at Tue Jan 28 10:18:44 2020.
