 Gaussian 09, Revision D.01,
 Gaussian 09:  ES64L-G09RevD.01 24-Apr-2013

 -----------------------------
 # b3lyp 6-31G(2df,p) opt Freq
 -----------------------------

 -----
 titel
 -----
 Symbolic Z-matrix:
 Charge =  0 Multiplicity = 1

 SCF Done:  E(RB3LYP) =  -423.238374622     A.U. after   14 cycles
 Optimization completed.
    -- Stationary point found.
 Normal termination of Gaussian 09 at Tue Jan 28 00:02:40 2020.

 ----------------------------------------------------------------------
 #N Geom=AllCheck Guess=TCheck SCRF=Check GenChk RB3LYP/6-31G(2df,p) Fr
 eq
 ----------------------------------------------------------------------

 Structure from the checkpoint file:  "/scratch/puck/g09_b6c72bfa-5304-45e4-a2e3-99362229d25b/Gau-116510.chk"
 -----
 titel
 -----
 Charge =  0 Multiplicity = 1

                         Standard orientation:
 ---------------------------------------------------------------------
 Center     Atomic      Atomic             Coordinates (Angstroms)
 Number     Number       Type             X           Y           Z
 ---------------------------------------------------------------------
      1          6           0        1.738881    1.734472    0.440622
      2          6           0        0.873203    0.787491   -0.415452
      3          6           0       -0.591179    1.088589   -0.292922
      4          6           0       -1.514251    0.166391   -0.041584
      5          6           0       -2.984629    0.454172    0.079059
      6          6           0       -1.129343   -1.271729    0.128473
      7          8           0        0.268922   -1.566608    0.127472
      8          6           0        1.245161   -0.661558   -0.107891
      9          8           0        2.388177   -1.032009   -0.072691
     10          1           0        1.480585    1.646307    1.500424
     11          1           0        2.794603    1.488745    0.318159
     12          1           0        1.574918    2.772613    0.136480
     13          1           0        1.181386    0.934847   -1.462088
     14          1           0       -0.882946    2.129061   -0.421433
     15          1           0       -3.566339   -0.123265   -0.650786
     16          1           0       -3.365153    0.179970    1.071133
     17          1           0       -3.193187    1.513992   -0.084337
     18          1           0       -1.522729   -1.659577    1.078177
     19          1           0       -1.584975   -1.880727   -0.665797
 ---------------------------------------------------------------------

 SCF Done:  E(RB3LYP) =  -423.238374622     A.U. after    1 cycles

 The electronic state is 1-A.
 Alpha  occ. eigenvalues --  -19.17914 -19.11193 -10.30133 -10.25393 -10.20917
 Alpha  occ. eigenvalues --  -10.20526 -10.19739 -10.19228 -10.18221  -1.09383
 Alpha  occ. eigenvalues --   -1.01050  -0.83636  -0.79101  -0.71938  -0.69740
 Alpha  occ. eigenvalues --   -0.63627  -0.59969  -0.52813  -0.49729  -0.48264
 Alpha  occ. eigenvalues --   -0.47911  -0.43597  -0.42443  -0.42236  -0.41794
 Alpha  occ. eigenvalues --   -0.40710  -0.40103  -0.37731  -0.36851  -0.34830
 Alpha  occ. eigenvalues --   -0.32531  -0.29002  -0.25984  -0.25318
 Alpha virt. eigenvalues --    0.00799   0.01841   0.08268   0.09520   0.11231
 Alpha virt. eigenvalues --    0.13634   0.14247   0.14960   0.16032   0.16204
 Alpha virt. eigenvalues --    0.16840   0.18266   0.19286   0.20661   0.22653

 Mulliken charges:
               1
     1  C   -0.384291
     2  C   -0.203527
     3  C   -0.138763
     4  C    0.242290
     5  C   -0.476517
     6  C   -0.133237
     7  O   -0.236349
     8  C    0.420794
     9  O   -0.332202
    10  H    0.123076
    11  H    0.147750
    12  H    0.113076
    13  H    0.122420
    14  H    0.089896
    15  H    0.129880
    16  H    0.131097
    17  H    0.131683
    18  H    0.126537
    19  H    0.126387
 Sum of Mulliken charges =   0.00000

 Dipole moment (field-independent basis, Debye):
    X=             -3.8441    Y=              2.0439    Z=             -0.2501  Tot=              4.3609
 Quadrupole moment (field-independent basis, Debye-Ang):
   XX=            -56.9601   YY=            -54.2165   ZZ=            -52.1448
   XY=              6.4379   XZ=             -0.6456   YZ=             -0.3211

  Exact polarizability: 101.426   8.696  79.934  -2.744  -2.577  55.930
 Approx polarizability: 141.592  15.183 118.053  -6.475  -6.663  87.240

                      1                      2                      3
                      A                      A                      A
 Frequencies --     12.5202                90.9690               141.9018
 Red. masses --      2.9074                 4.7475                 1.8077
 Frc consts  --      0.0003                 0.0231                 0.0214
 IR Inten    --      3.9334                 0.7229                 0.0424

                      4                      5                      6
                      A                      A                      A
 Frequencies --    186.0279               221.2071               270.0319
 Red. masses --      1.2863                 1.0988                 2.5764
 Frc consts  --      0.0262                 0.0317                 0.1107
 IR Inten    --      0.1573                 0.2607                 1.5409

                      7                      8                      9
                      A                      A                      A
 Frequencies --    314.4394               379.9561               434.5928
 Red. masses --      2.9990                 2.8697                 6.6447
 Frc consts  --      0.1747                 0.2441                 0.7394
 IR Inten    --      4.7714                 4.8389                 3.0110

                     10                     11                     12
                      A                      A                      A
 Frequencies --    461.8683               471.5011               582.9025
 Red. masses --      3.3212                 3.3850                 5.2213
 Frc consts  --      0.4174                 0.4434                 1.0452
 IR Inten    --      1.9654                 1.7439                 2.7055

                     13                     14                     15
                      A                      A                      A
 Frequencies --    640.0548               745.6855               774.0631
 Red. masses --      5.6346                 3.4384                 4.1569
 Frc consts  --      1.3600                 1.1265                 1.4675
 IR Inten    --      3.6509                 5.1534                 1.8380

                     16                     17                     18
                      A                      A                      A
 Frequencies --    860.0853               908.2908               937.5526
 Red. masses --      1.3096                 2.8010                 2.1093
 Frc consts  --      0.5708                 1.3615                 1.0924
 IR Inten    --      5.5021                 0.9147                 8.1963

                     19                     20                     21
                      A                      A                      A
 Frequencies --    997.0634              1004.7991              1047.0562
 Red. masses --      1.6831                 1.4866                 1.9001
 Frc consts  --      0.9858                 0.8843                 1.2273
 IR Inten    --      7.0969                 9.8812                17.3696

                     22                     23                     24
                      A                      A                      A
 Frequencies --   1082.0225              1090.2141              1099.3871
 Red. masses --      2.1982                 1.7135                 2.8072
 Frc consts  --      1.5163                 1.1999                 1.9990
 IR Inten    --      8.5844                 1.6721                29.5399

                     25                     26                     27
                      A                      A                      A
 Frequencies --   1147.8192              1199.5853              1210.9390
 Red. masses --      1.9007                 2.2467                 3.3931
 Frc consts  --      1.4754                 1.9049                 2.9315
 IR Inten    --     57.7392                 5.5258               183.0555

                     28                     29                     30
                      A                      A                      A
 Frequencies --   1268.8189              1302.2072              1335.3747
 Red. masses --      1.0704                 1.3405                 2.0121
 Frc consts  --      1.0153                 1.3393                 2.1140
 IR Inten    --      0.4410                 6.3194                10.3437

                     31                     32                     33
                      A                      A                      A
 Frequencies --   1376.3945              1403.9767              1415.5917
 Red. masses --      1.6496                 1.2604                 1.2875
 Frc consts  --      1.8413                 1.4638                 1.5200
 IR Inten    --     25.6935                10.8454                 0.5407

                     34                     35                     36
                      A                      A                      A
 Frequencies --   1437.4437              1478.7599              1490.2166
 Red. masses --      1.5770                 1.0430                 1.0602
 Frc consts  --      1.9198                 1.3438                 1.3873
 IR Inten    --     26.3141                 7.4720                 4.0685

                     37                     38                     39
                      A                      A                      A
 Frequencies --   1493.0904              1502.6201              1505.1095
 Red. masses --      1.0519                 1.0561                 1.0924
 Frc consts  --      1.3816                 1.4049                 1.4580
 IR Inten    --      4.3511                 1.3866                10.8029

                     40                     41                     42
                      A                      A                      A
 Frequencies --   1769.7623              1832.2231              2989.7285
 Red. masses --      7.6166                12.6451                 1.0804
 Frc consts  --     14.0553                25.0108                 5.6896
 IR Inten    --      0.0396               304.1856                11.4744

                     43                     44                     45
                      A                      A                      A
 Frequencies --   3001.0437              3019.8476              3027.6130
 Red. masses --      1.0594                 1.0399                 1.1008
 Frc consts  --      5.6218                 5.5872                 5.9450
 IR Inten    --     41.2422                41.3417                23.2623

                     46                     47                     48
                      A                      A                      A
 Frequencies --   3044.3720              3066.1120              3111.1995
 Red. masses --      1.0357                 1.0988                 1.1024
 Frc consts  --      5.6557                 6.0861                 6.2868
 IR Inten    --     22.5811                19.7196                21.8870

                     49                     50                     51
                      A                      A                      A
 Frequencies --   3120.3404              3144.1890              3146.9031
 Red. masses --      1.0987                 1.0898                 1.1007
 Frc consts  --      6.3029                 6.3479                 6.4221
 IR Inten    --     12.8650                17.7671                11.8309

 - Thermochemistry -
 -------------------
 Temperature   298.150 Kelvin.  Pressure   1.00000 Atm.
 Atom     1 has atomic number  6 and mass  12.00000

 Molecular mass:   126.06808 amu.
 Principal axes and moments of inertia in atomic units:
                           1         2         3
     Eigenvalues --   648.520181352.547571900.13951
           X            0.99865   0.05186   0.00105
           Y           -0.05187   0.99864   0.00465
           Z           -0.00081  -0.00470   0.99999
 This molecule is an asymmetric top.
 Rotational symmetry number  1.
 Warning -- assumption of classical behavior for rotation
           may cause significant error
 Rotational temperatures (Kelvin)      0.13356     0.06404     0.04558
 Rotational constants (GHZ):           2.78286     1.33433     0.94979
 Zero-point vibrational energy     416273.4 (Joules/Mol)
                                   99.49172 (Kcal/Mol)
 Warning -- explicit consideration of  12 degrees of freedom as
           vibrations may cause significant error
 Vibrational temperatures:     18.01   130.88   204.16   267.65   318.27
          (Kelvin)            388.52   452.41   546.67   625.28   664.52
                              678.38   838.67   920.89  1072.87  1113.70
                             1237.47  1306.83  1348.93  1434.55  1445.68
                             1506.48  1556.79  1568.57  1581.77  1651.45
                             1725.93  1742.27  1825.55  1873.58  1921.30
                             1980.32  2020.01  2036.72  2068.16  2127.60
                             2144.09  2148.22  2161.93  2165.51  2546.29
                             2636.16  4301.55  4317.83  4344.88  4356.05
                             4380.17  4411.45  4476.32  4489.47  4523.78
                             4527.69

 Zero-point correction=                           0.158550 (Hartree/Particle)
 Thermal correction to Energy=                    0.167766
 Thermal correction to Enthalpy=                  0.168710
 Thermal correction to Gibbs Free Energy=         0.122907
 Sum of electronic and zero-point Energies=           -423.079824
 Sum of electronic and thermal Energies=              -423.070609
 Sum of electronic and thermal Enthalpies=            -423.069665
 Sum of electronic and thermal Free Energies=         -423.115467

                     E (Thermal)             CV                S
                      KCal/Mol        Cal/Mol-Kelvin    Cal/Mol-Kelvin
 Total                  105.274             33.245             96.399
 Electronic               0.000              0.000              0.000
 Translational            0.889              2.981             40.409
 Rotational               0.889              2.981             28.901
 Vibrational            103.497             27.283             27.089
 Vibration     1          0.593              1.987              7.565
 Vibration     2          0.602              1.956              3.639
 Vibration     3          0.615              1.911              2.778
 Vibration     4          0.632              1.859              2.267
 Vibration     5          0.648              1.809              1.949
 Vibration     6          0.674              1.728              1.596
 Vibration     7          0.702              1.646              1.339
 Vibration     8          0.750              1.513              1.039
 Vibration     9          0.795              1.395              0.844
 Vibration    10          0.820              1.335              0.761
 Vibration    11          0.828              1.313              0.733
 Vibration    12          0.940              1.068              0.480

 Optimization completed on the basis of negligible forces.
    -- Stationary point found.
 Normal termination of Gaussian 09 at Tue Jan 28 00:51:31 2020.
