 Gaussian 09, Revision D.01,
 Gaussian 09:  ES64L-G09RevD.01 24-Apr-2013

 -----------------------------
 # b3lyp 6-31G(2df,p) opt Freq
 -----------------------------

 -----
 titel
 -----
 Symbolic Z-matrix:
 Charge =  0 Multiplicity = 1

 SCF Done:  E(RB3LYP) =  -423.138191681     A.U. after   13 cycles
 Optimization completed.
    -- Stationary point found.
 Normal termination of Gaussian 09 at Mon Jan 27 22:03:11 2020.

 ----------------------------------------------------------------------
 #N Geom=AllCheck Guess=TCheck SCRF=Check GenChk RB3LYP/6-31G(2df,p) Fr
 eq
 ----------------------------------------------------------------------

 Structure from the checkpoint file:  "/scratch/puck/g09_6adab496-006a-4a56-880c-a629eae25ef8/Gau-176395.chk"
 -----
 titel
 -----
 Charge =  0 Multiplicity = 1

                         Standard orientation:
 ---------------------------------------------------------------------
 Center     Atomic      Atomic             Coordinates (Angstroms)
 Number     Number       Type             X           Y           Z
 ---------------------------------------------------------------------
      1          6           0       -2.625126   -0.172591   -0.445480
      2          6           0       -1.189330   -0.128583   -0.050226
      3          8           0       -0.189098   -0.499905   -1.019345
      4          6           0        0.758127   -0.577076    0.102989
      5          6           0        1.894761   -1.522378   -0.117974
      6          6           0       -0.428848   -0.637492    1.126318
      7          6           0       -0.533198    0.878020    0.901505
      8          6           0        0.925698    0.935765    0.442878
      9          8           0        1.309719    1.782793   -0.599129
     10          1           0       -3.259644    0.082907    0.408187
     11          1           0       -2.828753    0.545397   -1.247243
     12          1           0       -2.903752   -1.170293   -0.798284
     13          1           0        2.530788   -1.567663    0.771323
     14          1           0        1.532192   -2.529156   -0.343346
     15          1           0        2.505646   -1.177062   -0.958750
     16          1           0       -0.672043   -1.270076    1.968030
     17          1           0       -1.098879    1.603495    1.472480
     18          1           0        1.608144    1.090651    1.282814
     19          1           0        0.808831    1.474700   -1.367476
 ---------------------------------------------------------------------

 SCF Done:  E(RB3LYP) =  -423.138191681     A.U. after    1 cycles

 The electronic state is 1-A.
 Alpha  occ. eigenvalues --  -19.13940 -19.12743 -10.24650 -10.24370 -10.23050
 Alpha  occ. eigenvalues --  -10.19423 -10.19068 -10.18880 -10.18294  -1.06563
 Alpha  occ. eigenvalues --   -1.00856  -0.85521  -0.77426  -0.72969  -0.67021
 Alpha  occ. eigenvalues --   -0.61524  -0.56247  -0.54421  -0.50390  -0.47760
 Alpha  occ. eigenvalues --   -0.46623  -0.43957  -0.42584  -0.41565  -0.41061
 Alpha  occ. eigenvalues --   -0.39417  -0.37629  -0.36482  -0.35486  -0.34669
 Alpha  occ. eigenvalues --   -0.28891  -0.26827  -0.26005  -0.23265
 Alpha virt. eigenvalues --    0.08645   0.09359   0.10686   0.11643   0.11945
 Alpha virt. eigenvalues --    0.13369   0.14271   0.15346   0.15702   0.16759
 Alpha virt. eigenvalues --    0.17591   0.18532   0.19154   0.19800   0.20435

 Mulliken charges:
               1
     1  C   -0.505358
     2  C    0.472814
     3  O   -0.374394
     4  C    0.359169
     5  C   -0.516078
     6  C   -0.261398
     7  C   -0.227025
     8  C    0.149633
     9  O   -0.448764
    10  H    0.129067
    11  H    0.132878
    12  H    0.132636
    13  H    0.125461
    14  H    0.130919
    15  H    0.138874
    16  H    0.100093
    17  H    0.089766
    18  H    0.089158
    19  H    0.282548
 Sum of Mulliken charges =   0.00000

 Dipole moment (field-independent basis, Debye):
    X=             -1.2284    Y=             -1.2181    Z=              1.3492  Tot=              2.1939
 Quadrupole moment (field-independent basis, Debye-Ang):
   XX=            -50.6718   YY=            -55.8163   ZZ=            -51.9144
   XY=             -3.9228   XZ=              0.4245   YZ=             -0.7611

  Exact polarizability:  84.350  -1.877  72.023   0.794   0.122  68.298
 Approx polarizability: 110.895   0.201 108.217   1.501  -0.527 109.640

                      1                      2                      3
                      A                      A                      A
 Frequencies --    164.6633               189.4766               193.0373
 Red. masses --      3.5788                 1.1837                 1.1101
 Frc consts  --      0.0572                 0.0250                 0.0244
 IR Inten    --      0.9670                 0.2940                 1.0019

                      4                      5                      6
                      A                      A                      A
 Frequencies --    207.5090               240.2424               278.5907
 Red. masses --      2.0619                 2.7039                 3.3675
 Frc consts  --      0.0523                 0.0919                 0.1540
 IR Inten    --      1.7200                 0.6912                 8.7692

                      7                      8                      9
                      A                      A                      A
 Frequencies --    353.7305               401.6790               521.0133
 Red. masses --      2.5407                 2.9198                 1.1549
 Frc consts  --      0.1873                 0.2776                 0.1847
 IR Inten    --      0.5807                 0.6856                62.8587

                     10                     11                     12
                      A                      A                      A
 Frequencies --    571.7272               596.8656               648.2038
 Red. masses --      4.0415                 4.0955                 3.6532
 Frc consts  --      0.7783                 0.8596                 0.9044
 IR Inten    --      0.9746                 2.4426                 5.3631

                     13                     14                     15
                      A                      A                      A
 Frequencies --    681.2335               772.7476               783.3448
 Red. masses --      3.7987                 3.4599                 3.2552
 Frc consts  --      1.0387                 1.2173                 1.1769
 IR Inten    --      7.9890                 2.7760                19.5775

                     16                     17                     18
                      A                      A                      A
 Frequencies --    820.8121               832.2665               873.3595
 Red. masses --      2.4464                 1.7992                 2.1160
 Frc consts  --      0.9711                 0.7343                 0.9509
 IR Inten    --     23.9583                 7.2116                18.8441

                     19                     20                     21
                      A                      A                      A
 Frequencies --    895.5816               915.2062               963.3991
 Red. masses --      1.8909                 2.1097                 1.9527
 Frc consts  --      0.8936                 1.0412                 1.0678
 IR Inten    --     10.7292                26.2700                 3.3355

                     22                     23                     24
                      A                      A                      A
 Frequencies --    972.1149              1053.3018              1082.4593
 Red. masses --      1.5750                 2.8515                 1.5814
 Frc consts  --      0.8770                 1.8639                 1.0918
 IR Inten    --      3.1577                61.8362                 2.0214

                     25                     26                     27
                      A                      A                      A
 Frequencies --   1096.2660              1112.8449              1129.3736
 Red. masses --      1.8778                 2.1550                 2.7292
 Frc consts  --      1.3296                 1.5724                 2.0510
 IR Inten    --      7.2644                33.9664                92.7929

                     28                     29                     30
                      A                      A                      A
 Frequencies --   1140.8935              1184.8267              1235.0785
 Red. masses --      2.0371                 2.0299                 2.1206
 Frc consts  --      1.5623                 1.6789                 1.9059
 IR Inten    --      8.1096                 8.8060                12.0587

                     31                     32                     33
                      A                      A                      A
 Frequencies --   1248.4039              1313.4147              1340.5651
 Red. masses --      1.9559                 1.7182                 2.4245
 Frc consts  --      1.7960                 1.7463                 2.5671
 IR Inten    --     40.4053                 8.4043                15.8223

                     34                     35                     36
                      A                      A                      A
 Frequencies --   1401.4187              1414.7877              1443.7554
 Red. masses --      1.3157                 1.5016                 1.3484
 Frc consts  --      1.5224                 1.7709                 1.6560
 IR Inten    --      4.0350                18.3641               102.5755

                     37                     38                     39
                      A                      A                      A
 Frequencies --   1463.6024              1474.3855              1480.9750
 Red. masses --      2.9373                 1.0517                 1.1733
 Frc consts  --      3.7072                 1.3469                 1.5162
 IR Inten    --      9.8242                 1.9972                11.8778

                     40                     41                     42
                      A                      A                      A
 Frequencies --   1487.7253              1501.6324              3036.3266
 Red. masses --      1.0479                 1.1208                 1.0354
 Frc consts  --      1.3665                 1.4890                 5.6244
 IR Inten    --      3.6138                 4.7024                25.6107

                     43                     44                     45
                      A                      A                      A
 Frequencies --   3039.2158              3087.5274              3101.9787
 Red. masses --      1.0350                 1.0868                 1.1011
 Frc consts  --      5.6325                 6.1038                 6.2422
 IR Inten    --     13.6687                27.6122                15.1474

                     46                     47                     48
                      A                      A                      A
 Frequencies --   3110.5719              3116.7326              3118.3716
 Red. masses --      1.1005                 1.1007                 1.1019
 Frc consts  --      6.2738                 6.2998                 6.3129
 IR Inten    --     11.6773                11.7721                15.5444

                     49                     50                     51
                      A                      A                      A
 Frequencies --   3197.8686              3217.5906              3748.2978
 Red. masses --      1.0919                 1.0995                 1.0644
 Frc consts  --      6.5792                 6.7067                 8.8112
 IR Inten    --     11.4456                 5.9527                25.7769

 - Thermochemistry -
 -------------------
 Temperature   298.150 Kelvin.  Pressure   1.00000 Atm.
 Atom     1 has atomic number  6 and mass  12.00000

 Molecular mass:   126.06808 amu.
 Principal axes and moments of inertia in atomic units:
                           1         2         3
     Eigenvalues --   703.341461097.687471329.46208
           X            0.99791  -0.06411   0.00857
           Y            0.06408   0.99794   0.00347
           Z           -0.00878  -0.00291   0.99996
 This molecule is an asymmetric top.
 Rotational symmetry number  1.
 Warning -- assumption of classical behavior for rotation
           may cause significant error
 Rotational temperatures (Kelvin)      0.12315     0.07891     0.06515
 Rotational constants (GHZ):           2.56595     1.64413     1.35750
 Zero-point vibrational energy     414248.8 (Joules/Mol)
                                   99.00785 (Kcal/Mol)
 Warning -- explicit consideration of  11 degrees of freedom as
           vibrations may cause significant error
 Vibrational temperatures:    236.91   272.61   277.74   298.56   345.65
          (Kelvin)            400.83   508.94   577.93   749.62   822.59
                              858.76   932.62   980.14  1111.81  1127.06
                             1180.96  1197.44  1256.57  1288.54  1316.78
                             1386.11  1398.65  1515.46  1557.42  1577.28
                             1601.13  1624.91  1641.49  1704.70  1777.00
                             1796.17  1889.71  1928.77  2016.33  2035.56
                             2077.24  2105.79  2121.31  2130.79  2140.50
                             2160.51  4368.59  4372.75  4442.26  4463.05
                             4475.41  4484.28  4486.64  4601.01  4629.39
                             5392.96

 Zero-point correction=                           0.157779 (Hartree/Particle)
 Thermal correction to Energy=                    0.166167
 Thermal correction to Enthalpy=                  0.167111
 Thermal correction to Gibbs Free Energy=         0.125465
 Sum of electronic and zero-point Energies=           -422.980413
 Sum of electronic and thermal Energies=              -422.972024
 Sum of electronic and thermal Enthalpies=            -422.971080
 Sum of electronic and thermal Free Energies=         -423.012727

                     E (Thermal)             CV                S
                      KCal/Mol        Cal/Mol-Kelvin    Cal/Mol-Kelvin
 Total                  104.271             33.195             87.653
 Electronic               0.000              0.000              0.000
 Translational            0.889              2.981             40.409
 Rotational               0.889              2.981             28.420
 Vibrational            102.494             27.234             18.825
 Vibration     1          0.623              1.886              2.496
 Vibration     2          0.633              1.854              2.233
 Vibration     3          0.635              1.850              2.198
 Vibration     4          0.641              1.829              2.065
 Vibration     5          0.657              1.779              1.801
 Vibration     6          0.679              1.713              1.542
 Vibration     7          0.730              1.568              1.150
 Vibration     8          0.767              1.467              0.957
 Vibration     9          0.876              1.203              0.608
 Vibration    10          0.928              1.092              0.501
 Vibration    11          0.955              1.038              0.455

 Optimization completed.
    -- Stationary point found.
 Normal termination of Gaussian 09 at Mon Jan 27 22:54:54 2020.
