 Gaussian 09, Revision D.01,
 Gaussian 09:  ES64L-G09RevD.01 24-Apr-2013

 -----------------------------
 # b3lyp 6-31G(2df,p) opt Freq
 -----------------------------

 -----
 titel
 -----
 Symbolic Z-matrix:
 Charge =  0 Multiplicity = 1

 SCF Done:  E(RB3LYP) =  -423.224123734     A.U. after   14 cycles
 Optimization completed.
    -- Stationary point found.
 Normal termination of Gaussian 09 at Tue Jan 28 03:12:08 2020.

 ----------------------------------------------------------------------
 #N Geom=AllCheck Guess=TCheck SCRF=Check GenChk RB3LYP/6-31G(2df,p) Fr
 eq
 ----------------------------------------------------------------------

 Structure from the checkpoint file:  "/scratch/puck/g09_2d514a54-f1a9-463f-8af7-8e6db776141c/Gau-7376.chk"
 -----
 titel
 -----
 Charge =  0 Multiplicity = 1

                         Standard orientation:
 ---------------------------------------------------------------------
 Center     Atomic      Atomic             Coordinates (Angstroms)
 Number     Number       Type             X           Y           Z
 ---------------------------------------------------------------------
      1          6           0        1.980575    1.137128   -0.300923
      2          6           0        1.311142   -0.070919    0.335282
      3          8           0        0.984939   -1.059432   -0.669154
      4          6           0       -0.391977   -1.415886   -0.472249
      5          6           0       -0.580231   -1.283375    1.049424
      6          6           0       -0.042288    0.166492    1.061419
      7          6           0       -0.976851    0.826271    0.041022
      8          8           0       -1.400804    1.951263    0.053300
      9          6           0       -1.259067   -0.265465   -1.012214
     10          1           0        2.285518    1.852382    0.469907
     11          1           0        2.873249    0.819843   -0.846961
     12          1           0        1.314704    1.650240   -0.999959
     13          1           0        2.007288   -0.528716    1.053751
     14          1           0       -0.565297   -2.394403   -0.919576
     15          1           0       -1.620483   -1.372117    1.373356
     16          1           0        0.042383   -1.979167    1.616496
     17          1           0        0.037351    0.698405    2.007677
     18          1           0       -2.327708   -0.508998   -1.025469
     19          1           0       -0.967904    0.062411   -2.012957
 ---------------------------------------------------------------------

 SCF Done:  E(RB3LYP) =  -423.224123734     A.U. after    1 cycles

 The electronic state is 1-A.
 Alpha  occ. eigenvalues --  -19.14040 -19.13269 -10.26955 -10.24387 -10.24275
 Alpha  occ. eigenvalues --  -10.20071 -10.19838 -10.19048 -10.17941  -1.04803
 Alpha  occ. eigenvalues --   -1.03668  -0.83432  -0.78243  -0.72299  -0.67772
 Alpha  occ. eigenvalues --   -0.60755  -0.58427  -0.53488  -0.50460  -0.48782
 Alpha  occ. eigenvalues --   -0.46917  -0.44289  -0.42306  -0.41082  -0.40557
 Alpha  occ. eigenvalues --   -0.39142  -0.37663  -0.36915  -0.36687  -0.35865
 Alpha  occ. eigenvalues --   -0.35082  -0.31243  -0.25348  -0.23905
 Alpha virt. eigenvalues --   -0.01681   0.08665   0.10718   0.11528   0.11918
 Alpha virt. eigenvalues --    0.13968   0.14951   0.15877   0.16191   0.17184
 Alpha virt. eigenvalues --    0.17793   0.17982   0.19145   0.19800   0.20692

 Mulliken charges:
               1
     1  C   -0.409200
     2  C    0.136471
     3  O   -0.296771
     4  C    0.101402
     5  C   -0.252529
     6  C   -0.159080
     7  C    0.430928
     8  O   -0.334116
     9  C   -0.333278
    10  H    0.120720
    11  H    0.128899
    12  H    0.132556
    13  H    0.080275
    14  H    0.083655
    15  H    0.109132
    16  H    0.113790
    17  H    0.086695
    18  H    0.125638
    19  H    0.134813
 Sum of Mulliken charges =   0.00000

 Dipole moment (field-independent basis, Debye):
    X=              0.2797    Y=             -2.0058    Z=              0.8949  Tot=              2.2141
 Quadrupole moment (field-independent basis, Debye-Ang):
   XX=            -53.2457   YY=            -58.3818   ZZ=            -51.5121
   XY=              6.9412   XZ=              2.0855   YZ=             -1.1029

  Exact polarizability:  76.926   2.341  76.952   3.319  -0.082  68.608
 Approx polarizability: 109.040  -3.504 117.273   3.360   2.239 102.996

                      1                      2                      3
                      A                      A                      A
 Frequencies --    115.0611               142.3804               223.1777
 Red. masses --      4.7458                 3.3808                 1.0538
 Frc consts  --      0.0370                 0.0404                 0.0309
 IR Inten    --      5.5748                 1.5243                 0.1134

                      4                      5                      6
                      A                      A                      A
 Frequencies --    305.0129               396.4563               419.2521
 Red. masses --      2.5069                 2.1058                 3.3271
 Frc consts  --      0.1374                 0.1950                 0.3446
 IR Inten    --      2.0384                 2.1608                 1.2418

                      7                      8                      9
                      A                      A                      A
 Frequencies --    448.0144               493.2921               536.6166
 Red. masses --      3.6893                 2.9245                 4.0333
 Frc consts  --      0.4363                 0.4193                 0.6843
 IR Inten    --      4.9318                 2.3018                 5.0308

                     10                     11                     12
                      A                      A                      A
 Frequencies --    615.7071               671.2268               775.2519
 Red. masses --      2.6489                 4.2704                 4.4707
 Frc consts  --      0.5917                 1.1336                 1.5831
 IR Inten    --      4.7565                 0.9410                 3.2367

                     13                     14                     15
                      A                      A                      A
 Frequencies --    800.3581               819.1506               854.5226
 Red. masses --      2.8783                 2.6184                 2.6109
 Frc consts  --      1.0863                 1.0352                 1.1233
 IR Inten    --      3.9188                10.1172                16.0883

                     16                     17                     18
                      A                      A                      A
 Frequencies --    914.9843               923.8400               945.6496
 Red. masses --      1.9361                 2.3239                 2.3351
 Frc consts  --      0.9550                 1.1686                 1.2303
 IR Inten    --      2.3530                 3.4117                 8.2810

                     19                     20                     21
                      A                      A                      A
 Frequencies --    953.0555               992.8889              1014.4621
 Red. masses --      3.0297                 1.6308                 1.7414
 Frc consts  --      1.6214                 0.9472                 1.0559
 IR Inten    --     20.2376                 7.2216                18.2643

                     22                     23                     24
                      A                      A                      A
 Frequencies --   1042.9200              1095.5590              1112.8972
 Red. masses --      1.6004                 1.5505                 2.1941
 Frc consts  --      1.0256                 1.0965                 1.6011
 IR Inten    --      3.4296                11.1906                61.3376

                     25                     26                     27
                      A                      A                      A
 Frequencies --   1139.5494              1144.4451              1177.9784
 Red. masses --      1.7781                 1.7747                 1.6739
 Frc consts  --      1.3604                 1.3695                 1.3686
 IR Inten    --      6.5751                17.4832                32.1468

                     28                     29                     30
                      A                      A                      A
 Frequencies --   1192.9151              1242.3238              1263.4546
 Red. masses --      1.8534                 1.7539                 1.7435
 Frc consts  --      1.5539                 1.5949                 1.6398
 IR Inten    --      9.9554                 3.3130                18.1479

                     31                     32                     33
                      A                      A                      A
 Frequencies --   1287.3433              1313.2451              1337.3691
 Red. masses --      1.4256                 1.6596                 1.3851
 Frc consts  --      1.3920                 1.6863                 1.4596
 IR Inten    --      3.6655                 7.7779                12.4853

                     34                     35                     36
                      A                      A                      A
 Frequencies --   1358.9064              1388.3929              1417.8396
 Red. masses --      1.4154                 1.3170                 1.2908
 Frc consts  --      1.5399                 1.4957                 1.5288
 IR Inten    --      6.3903                 6.9304                11.2149

                     37                     38                     39
                      A                      A                      A
 Frequencies --   1435.7740              1484.6059              1497.0860
 Red. masses --      1.0960                 1.0522                 1.0672
 Frc consts  --      1.3312                 1.3664                 1.4092
 IR Inten    --     10.9894                 1.2742                 1.2209

                     40                     41                     42
                      A                      A                      A
 Frequencies --   1499.0064              1856.9885              2985.4771
 Red. masses --      1.0905                12.3965                 1.0847
 Frc consts  --      1.4437                25.1865                 5.6962
 IR Inten    --      6.9762               212.2001                48.8618

                     43                     44                     45
                      A                      A                      A
 Frequencies --   3043.3996              3051.0785              3067.0329
 Red. masses --      1.0354                 1.0637                 1.0583
 Frc consts  --      5.6504                 5.8339                 5.8655
 IR Inten    --     13.1494                 7.8275                18.9551

                     46                     47                     48
                      A                      A                      A
 Frequencies --   3114.5799              3115.4181              3121.4742
 Red. masses --      1.1000                 1.1002                 1.0972
 Frc consts  --      6.2868                 6.2917                 6.2987
 IR Inten    --      6.5210                14.6752                29.6411

                     49                     50                     51
                      A                      A                      A
 Frequencies --   3122.9081              3124.6529              3142.2413
 Red. masses --      1.1012                 1.1025                 1.0897
 Frc consts  --      6.3274                 6.3418                 6.3390
 IR Inten    --     20.1968                25.7165                11.4130

 - Thermochemistry -
 -------------------
 Temperature   298.150 Kelvin.  Pressure   1.00000 Atm.
 Atom     1 has atomic number  6 and mass  12.00000

 Molecular mass:   126.06808 amu.
 Principal axes and moments of inertia in atomic units:
                           1         2         3
     Eigenvalues --   816.45906 914.600021238.95267
           X            0.85241   0.52261   0.01671
           Y           -0.52204   0.85241  -0.02942
           Z           -0.02962   0.01636   0.99943
 This molecule is an asymmetric top.
 Rotational symmetry number  1.
 Warning -- assumption of classical behavior for rotation
           may cause significant error
 Rotational temperatures (Kelvin)      0.10608     0.09470     0.06991
 Rotational constants (GHZ):           2.21045     1.97326     1.45667
 Zero-point vibrational energy     421906.3 (Joules/Mol)
                                  100.83802 (Kcal/Mol)
 Warning -- explicit consideration of  10 degrees of freedom as
           vibrations may cause significant error
 Vibrational temperatures:    165.55   204.85   321.10   438.85   570.41
          (Kelvin)            603.21   644.59   709.74   772.07   885.86
                              965.74  1115.41  1151.54  1178.57  1229.47
                             1316.46  1329.20  1360.58  1371.23  1428.54
                             1459.58  1500.53  1576.26  1601.21  1639.56
                             1646.60  1694.85  1716.34  1787.42  1817.83
                             1852.20  1889.46  1924.17  1955.16  1997.59
                             2039.95  2065.76  2136.01  2153.97  2156.73
                             2671.79  4295.43  4378.77  4389.82  4412.77
                             4481.18  4482.39  4491.10  4493.16  4495.67
                             4520.98

 Zero-point correction=                           0.160696 (Hartree/Particle)
 Thermal correction to Energy=                    0.168231
 Thermal correction to Enthalpy=                  0.169175
 Thermal correction to Gibbs Free Energy=         0.128882
 Sum of electronic and zero-point Energies=           -423.063428
 Sum of electronic and thermal Energies=              -423.055893
 Sum of electronic and thermal Enthalpies=            -423.054949
 Sum of electronic and thermal Free Energies=         -423.095242

                     E (Thermal)             CV                S
                      KCal/Mol        Cal/Mol-Kelvin    Cal/Mol-Kelvin
 Total                  105.566             30.219             84.803
 Electronic               0.000              0.000              0.000
 Translational            0.889              2.981             40.409
 Rotational               0.889              2.981             28.316
 Vibrational            103.789             24.257             16.078
 Vibration     1          0.608              1.937              3.182
 Vibration     2          0.616              1.911              2.772
 Vibration     3          0.649              1.806              1.933
 Vibration     4          0.696              1.664              1.389
 Vibration     5          0.763              1.478              0.976
 Vibration     6          0.782              1.428              0.895
 Vibration     7          0.807              1.365              0.802
 Vibration     8          0.849              1.265              0.675
 Vibration     9          0.892              1.169              0.573
 Vibration    10          0.975              0.999              0.423

 Optimization completed.
    -- Stationary point found.
 Normal termination of Gaussian 09 at Tue Jan 28 03:58:44 2020.
