 Gaussian 09, Revision D.01,
 Gaussian 09:  ES64L-G09RevD.01 24-Apr-2013

 -----------------------------
 # b3lyp 6-31G(2df,p) opt Freq
 -----------------------------

 -----
 titel
 -----
 Symbolic Z-matrix:
 Charge =  0 Multiplicity = 1

 SCF Done:  E(RB3LYP) =  -423.118557775     A.U. after   12 cycles
 Optimization completed.
    -- Stationary point found.
 Normal termination of Gaussian 09 at Tue Jan 28 01:56:41 2020.

 ----------------------------------------------------------------------
 #N Geom=AllCheck Guess=TCheck SCRF=Check GenChk RB3LYP/6-31G(2df,p) Fr
 eq
 ----------------------------------------------------------------------

 Structure from the checkpoint file:  "/scratch/puck/g09_d7fa78c0-a788-4950-be82-bd90844d6e95/Gau-89559.chk"
 -----
 titel
 -----
 Charge =  0 Multiplicity = 1

                         Standard orientation:
 ---------------------------------------------------------------------
 Center     Atomic      Atomic             Coordinates (Angstroms)
 Number     Number       Type             X           Y           Z
 ---------------------------------------------------------------------
      1          6           0        2.256681    0.850255   -0.827405
      2          6           0        1.662703   -0.443979   -0.315646
      3          6           0        1.355772   -0.624162    1.170524
      4          6           0        0.254605   -0.497767    0.166492
      5          8           0       -0.647432   -1.583735   -0.112600
      6          6           0       -1.765490   -0.685043   -0.060889
      7          6           0       -1.647499    0.375971   -1.128861
      8          6           0       -0.864986    0.518061    0.147267
      9          8           0       -0.933100    1.662834    0.909825
     10          1           0        3.339756    0.879694   -0.665598
     11          1           0        2.073650    0.974494   -1.900029
     12          1           0        1.815971    1.711186   -0.314789
     13          1           0        2.001403   -1.348192   -0.815228
     14          1           0        1.518773   -1.601220    1.611937
     15          1           0        1.545418    0.216905    1.832463
     16          1           0       -2.684872   -1.038154    0.388904
     17          1           0       -1.161936    0.153182   -2.075130
     18          1           0       -2.500075    1.046872   -1.183066
     19          1           0       -0.814540    1.412418    1.833844
 ---------------------------------------------------------------------

 SCF Done:  E(RB3LYP) =  -423.118557775     A.U. after    1 cycles

 The electronic state is 1-A.
 Alpha  occ. eigenvalues --  -19.16056 -19.14077 -10.24578 -10.23888 -10.23510
 Alpha  occ. eigenvalues --  -10.19130 -10.18818 -10.18551 -10.17799  -1.06314
 Alpha  occ. eigenvalues --   -1.03487  -0.85695  -0.82563  -0.71061  -0.64009
 Alpha  occ. eigenvalues --   -0.60683  -0.57920  -0.56693  -0.51841  -0.50199
 Alpha  occ. eigenvalues --   -0.46523  -0.44221  -0.41949  -0.40900  -0.39955
 Alpha  occ. eigenvalues --   -0.39006  -0.37408  -0.36552  -0.35391  -0.33527
 Alpha  occ. eigenvalues --   -0.30665  -0.28122  -0.24232  -0.22317
 Alpha virt. eigenvalues --    0.06614   0.07596   0.10697   0.11892   0.12465
 Alpha virt. eigenvalues --    0.13666   0.14466   0.15406   0.15952   0.16587
 Alpha virt. eigenvalues --    0.17819   0.19386   0.20445   0.21128   0.23080

 Mulliken charges:
               1
     1  C   -0.413846
     2  C   -0.076486
     3  C   -0.389673
     4  C    0.390007
     5  O   -0.316779
     6  C    0.001440
     7  C   -0.332975
     8  C    0.245618
     9  O   -0.447172
    10  H    0.117625
    11  H    0.121250
    12  H    0.130059
    13  H    0.098549
    14  H    0.124649
    15  H    0.107917
    16  H    0.111008
    17  H    0.117121
    18  H    0.121160
    19  H    0.290527
 Sum of Mulliken charges =   0.00000

 Dipole moment (field-independent basis, Debye):
    X=              0.1364    Y=              0.5013    Z=              0.9888  Tot=              1.1170
 Quadrupole moment (field-independent basis, Debye-Ang):
   XX=            -49.9365   YY=            -58.8323   ZZ=            -48.7303
   XY=             -0.2121   XZ=             -0.9052   YZ=              0.0707

  Exact polarizability:  85.829   0.216  68.332   3.120  -2.572  72.960
 Approx polarizability: 113.219   1.093 106.217   4.489  -0.864 108.626

                      1                      2                      3
                      A                      A                      A
 Frequencies --    117.2081               125.3915               170.5929
 Red. masses --      3.2095                 3.3438                 2.2047
 Frc consts  --      0.0260                 0.0310                 0.0378
 IR Inten    --      0.4100                 0.6044                 0.1441

                      4                      5                      6
                      A                      A                      A
 Frequencies --    214.7526               299.8882               343.7564
 Red. masses --      1.2169                 3.3654                 1.6759
 Frc consts  --      0.0331                 0.1783                 0.1167
 IR Inten    --      0.0262                 2.7530                27.6249

                      7                      8                      9
                      A                      A                      A
 Frequencies --    369.5361               415.2702               428.6732
 Red. masses --      1.9989                 2.0044                 2.7418
 Frc consts  --      0.1608                 0.2037                 0.2969
 IR Inten    --     36.4915                44.7298                25.0243

                     10                     11                     12
                      A                      A                      A
 Frequencies --    460.9618               509.3539               596.9602
 Red. masses --      2.4372                 4.0511                 3.2591
 Frc consts  --      0.3051                 0.6192                 0.6843
 IR Inten    --      1.1883                 1.9424                 2.2591

                     13                     14                     15
                      A                      A                      A
 Frequencies --    677.6206               792.8349               825.7059
 Red. masses --      3.6173                 2.4669                 1.8670
 Frc consts  --      0.9786                 0.9136                 0.7500
 IR Inten    --      8.7410                 3.1350                 5.9857

                     16                     17                     18
                      A                      A                      A
 Frequencies --    864.3439               888.7397               899.7501
 Red. masses --      2.4012                 1.5551                 1.8964
 Frc consts  --      1.0569                 0.7237                 0.9045
 IR Inten    --     11.1389                 4.6302                11.2041

                     19                     20                     21
                      A                      A                      A
 Frequencies --    935.5181               951.5648               977.4318
 Red. masses --      2.1856                 1.9036                 2.1615
 Frc consts  --      1.1270                 1.0155                 1.2167
 IR Inten    --     14.8215                 6.6658                13.3972

                     22                     23                     24
                      A                      A                      A
 Frequencies --    998.5635              1017.3111              1036.3758
 Red. masses --      1.7629                 1.7781                 1.4179
 Frc consts  --      1.0357                 1.0842                 0.8973
 IR Inten    --     18.8869                22.7208                 3.6632

                     25                     26                     27
                      A                      A                      A
 Frequencies --   1063.6710              1087.6357              1105.5856
 Red. masses --      2.0882                 1.5360                 2.6388
 Frc consts  --      1.3920                 1.0706                 1.9004
 IR Inten    --     51.2907                16.6080                 3.5279

                     28                     29                     30
                      A                      A                      A
 Frequencies --   1122.8833              1149.0702              1184.4648
 Red. masses --      1.8542                 1.6498                 1.7555
 Frc consts  --      1.3774                 1.2834                 1.4511
 IR Inten    --     11.7321                 6.4347                 1.0261

                     31                     32                     33
                      A                      A                      A
 Frequencies --   1223.9437              1267.8081              1289.2685
 Red. masses --      2.3152                 2.0745                 1.4464
 Frc consts  --      2.0434                 1.9646                 1.4165
 IR Inten    --     28.8577                90.2025                43.0305

                     34                     35                     36
                      A                      A                      A
 Frequencies --   1367.9401              1409.0001              1415.3675
 Red. masses --      1.8070                 1.4598                 1.4118
 Frc consts  --      1.9923                 1.7075                 1.6663
 IR Inten    --     43.0480                 1.9010                13.6688

                     37                     38                     39
                      A                      A                      A
 Frequencies --   1424.9942              1482.6277              1493.6474
 Red. masses --      1.4462                 1.7120                 1.3480
 Frc consts  --      1.7302                 2.2172                 1.7719
 IR Inten    --      3.4346                 0.7567                22.9019

                     40                     41                     42
                      A                      A                      A
 Frequencies --   1495.7280              1512.0490              3029.6898
 Red. masses --      1.0859                 1.6725                 1.0351
 Frc consts  --      1.4313                 2.2530                 5.5982
 IR Inten    --     11.3284                15.3411                30.5570

                     43                     44                     45
                      A                      A                      A
 Frequencies --   3092.7797              3102.1941              3113.2430
 Red. masses --      1.1015                 1.0998                 1.0540
 Frc consts  --      6.2075                 6.2362                 6.0188
 IR Inten    --     23.7342                13.1867                10.9010

                     46                     47                     48
                      A                      A                      A
 Frequencies --   3116.5769              3145.0627              3194.7865
 Red. masses --      1.0554                 1.0880                 1.0963
 Frc consts  --      6.0399                 6.3409                 6.5929
 IR Inten    --     10.0077                12.0308                13.3288

                     49                     50                     51
                      A                      A                      A
 Frequencies --   3209.8428              3212.4731              3785.4386
 Red. masses --      1.1142                 1.1147                 1.0656
 Frc consts  --      6.7636                 6.7779                 8.9968
 IR Inten    --      8.4700                 5.9911                19.8462

 - Thermochemistry -
 -------------------
 Temperature   298.150 Kelvin.  Pressure   1.00000 Atm.
 Atom     1 has atomic number  6 and mass  12.00000

 Molecular mass:   126.06808 amu.
 Principal axes and moments of inertia in atomic units:
                           1         2         3
     Eigenvalues --   722.204911196.063991381.64820
           X            0.99986   0.01632  -0.00245
           Y           -0.01644   0.99768  -0.06599
           Z            0.00137   0.06602   0.99782
 This molecule is an asymmetric top.
 Rotational symmetry number  1.
 Warning -- assumption of classical behavior for rotation
           may cause significant error
 Rotational temperatures (Kelvin)      0.11993     0.07242     0.06269
 Rotational constants (GHZ):           2.49893     1.50890     1.30622
 Zero-point vibrational energy     412806.6 (Joules/Mol)
                                   98.66315 (Kcal/Mol)
 Warning -- explicit consideration of  12 degrees of freedom as
           vibrations may cause significant error
 Vibrational temperatures:    168.64   180.41   245.44   308.98   431.47
          (Kelvin)            494.59   531.68   597.48   616.76   663.22
                              732.85   858.89   974.94  1140.71  1188.01
                             1243.60  1278.70  1294.54  1346.00  1369.09
                             1406.30  1436.71  1463.68  1491.11  1530.38
                             1564.86  1590.69  1615.58  1653.25  1704.18
                             1760.98  1824.09  1854.97  1968.16  2027.23
                             2036.40  2050.25  2133.17  2149.02  2152.02
                             2175.50  4359.04  4449.81  4463.36  4479.26
                             4484.05  4525.04  4596.58  4618.24  4622.03
                             5446.39

 Zero-point correction=                           0.157230 (Hartree/Particle)
 Thermal correction to Energy=                    0.165848
 Thermal correction to Enthalpy=                  0.166792
 Thermal correction to Gibbs Free Energy=         0.124393
 Sum of electronic and zero-point Energies=           -422.961328
 Sum of electronic and thermal Energies=              -422.952710
 Sum of electronic and thermal Enthalpies=            -422.951765
 Sum of electronic and thermal Free Energies=         -422.994165

                     E (Thermal)             CV                S
                      KCal/Mol        Cal/Mol-Kelvin    Cal/Mol-Kelvin
 Total                  104.071             33.670             89.237
 Electronic               0.000              0.000              0.000
 Translational            0.889              2.981             40.409
 Rotational               0.889              2.981             28.569
 Vibrational            102.294             27.709             20.259
 Vibration     1          0.608              1.935              3.146
 Vibration     2          0.610              1.928              3.016
 Vibration     3          0.626              1.879              2.429
 Vibration     4          0.645              1.819              2.003
 Vibration     5          0.692              1.674              1.418
 Vibration     6          0.723              1.588              1.195
 Vibration     7          0.742              1.535              1.082
 Vibration     8          0.779              1.437              0.908
 Vibration     9          0.790              1.408              0.863
 Vibration    10          0.819              1.337              0.763
 Vibration    11          0.865              1.229              0.635
 Vibration    12          0.955              1.038              0.455

 Normal termination of Gaussian 09 at Tue Jan 28 02:43:34 2020.
