 Gaussian 09, Revision D.01,
 Gaussian 09:  ES64L-G09RevD.01 24-Apr-2013

 -----------------------------
 # b3lyp 6-31G(2df,p) opt Freq
 -----------------------------

 -----
 titel
 -----
 Symbolic Z-matrix:
 Charge =  0 Multiplicity = 1

 SCF Done:  E(RB3LYP) =  -423.110656809     A.U. after   12 cycles
 Optimization completed.
    -- Stationary point found.
 Normal termination of Gaussian 09 at Mon Jan 27 22:04:37 2020.

 ----------------------------------------------------------------------
 #N Geom=AllCheck Guess=TCheck SCRF=Check GenChk RB3LYP/6-31G(2df,p) Fr
 eq
 ----------------------------------------------------------------------

 Structure from the checkpoint file:  "/scratch/puck/g09_cf7941bf-3638-4e87-aa2b-63d907b7e5e9/Gau-15120.chk"
 -----
 titel
 -----
 Charge =  0 Multiplicity = 1

                         Standard orientation:
 ---------------------------------------------------------------------
 Center     Atomic      Atomic             Coordinates (Angstroms)
 Number     Number       Type             X           Y           Z
 ---------------------------------------------------------------------
      1          6           0        2.425563   -0.036277   -0.117241
      2          6           0        0.924320   -0.026681   -0.132047
      3          6           0       -0.021789    1.156521   -0.458451
      4          8           0       -0.004113    2.308938    0.344048
      5          6           0       -0.972958    0.002152   -0.144271
      6          8           0       -2.346880    0.094953   -0.167545
      7          6           0       -0.031791   -1.045752   -0.852653
      8          6           0       -0.051321   -1.990241    0.366610
      9          6           0       -0.036953   -0.581129    0.992471
     10          1           0        2.822493   -1.008767    0.193435
     11          1           0        2.829046    0.189820   -1.110360
     12          1           0        2.808154    0.721319    0.575205
     13          1           0       -0.009750    1.503639   -1.497172
     14          1           0       -0.165252    2.047144    1.257168
     15          1           0       -2.724648   -0.760133    0.068629
     16          1           0       -0.020091   -1.283365   -1.917524
     17          1           0       -0.953024   -2.595247    0.516461
     18          1           0        0.836790   -2.609278    0.525712
     19          1           0       -0.026199   -0.307818    2.049923
 ---------------------------------------------------------------------

 SCF Done:  E(RB3LYP) =  -423.110656809     A.U. after    1 cycles

 The electronic state is 1-A.
 Alpha  occ. eigenvalues --  -19.15172 -19.13401 -10.24331 -10.22640 -10.20081
 Alpha  occ. eigenvalues --  -10.19733 -10.19588 -10.18967 -10.18002  -1.04139
 Alpha  occ. eigenvalues --   -1.01658  -0.92831  -0.74319  -0.72454  -0.63880
 Alpha  occ. eigenvalues --   -0.61358  -0.60118  -0.52806  -0.51427  -0.49889
 Alpha  occ. eigenvalues --   -0.45799  -0.44966  -0.41305  -0.40868  -0.39239
 Alpha  occ. eigenvalues --   -0.38439  -0.37237  -0.36352  -0.32884  -0.30922
 Alpha  occ. eigenvalues --   -0.30055  -0.28230  -0.25485  -0.24691
 Alpha virt. eigenvalues --    0.06276   0.07607   0.10601   0.12257   0.12698
 Alpha virt. eigenvalues --    0.13215   0.14487   0.14725   0.15832   0.16945
 Alpha virt. eigenvalues --    0.18597   0.19947   0.20224   0.21190   0.21336

 Mulliken charges:
               1
     1  C   -0.524821
     2  C    0.322442
     3  C    0.051389
     4  O   -0.447983
     5  C    0.356259
     6  O   -0.469081
     7  C   -0.150010
     8  C   -0.291323
     9  C   -0.186710
    10  H    0.120268
    11  H    0.123431
    12  H    0.126927
    13  H    0.082395
    14  H    0.283063
    15  H    0.286533
    16  H    0.071905
    17  H    0.081109
    18  H    0.098342
    19  H    0.065864
 Sum of Mulliken charges =   0.00000

 Dipole moment (field-independent basis, Debye):
    X=              0.4100    Y=             -2.4148    Z=              0.8779  Tot=              2.6020
 Quadrupole moment (field-independent basis, Debye-Ang):
   XX=            -52.9500   YY=            -57.5742   ZZ=            -50.0933
   XY=              3.4872   XZ=             -1.5733   YZ=              1.2516

  Exact polarizability:  78.745   2.092  78.715  -1.007  -1.062  68.672
 Approx polarizability: 111.155   1.432 114.428  -1.007  -0.441 109.652

                      1                      2                      3
                      A                      A                      A
 Frequencies --    175.5077               188.5079               209.4010
 Red. masses --      3.2365                 1.9265                 1.3217
 Frc consts  --      0.0587                 0.0403                 0.0341
 IR Inten    --      6.9238                 3.3228                16.0396

                      4                      5                      6
                      A                      A                      A
 Frequencies --    223.2751               252.6955               269.9821
 Red. masses --      1.6711                 1.4921                 2.0920
 Frc consts  --      0.0491                 0.0561                 0.0898
 IR Inten    --     14.5068                40.4425                17.4284

                      7                      8                      9
                      A                      A                      A
 Frequencies --    280.4239               309.3598               415.2532
 Red. masses --      1.8315                 2.4480                 2.9012
 Frc consts  --      0.0849                 0.1380                 0.2948
 IR Inten    --     41.3267                25.4282                11.8530

                     10                     11                     12
                      A                      A                      A
 Frequencies --    554.8092               562.8618               595.1764
 Red. masses --      4.5221                 2.4635                 4.8537
 Frc consts  --      0.8201                 0.4598                 1.0130
 IR Inten    --      0.6501                21.0397                 2.1887

                     13                     14                     15
                      A                      A                      A
 Frequencies --    661.2582               745.4599               785.3798
 Red. masses --      3.1534                 3.7497                 3.6157
 Frc consts  --      0.8124                 1.2277                 1.3140
 IR Inten    --      2.9276                 7.7091                17.5971

                     16                     17                     18
                      A                      A                      A
 Frequencies --    856.1166               883.8959               905.6460
 Red. masses --      2.3209                 2.1062                 2.2457
 Frc consts  --      1.0022                 0.9695                 1.0852
 IR Inten    --      5.2707                 0.9113                 1.3678

                     19                     20                     21
                      A                      A                      A
 Frequencies --    925.7344               953.8988              1001.4234
 Red. masses --      1.9199                 1.7892                 1.3628
 Frc consts  --      0.9694                 0.9592                 0.8052
 IR Inten    --      2.7430                18.5727                 4.9106

                     22                     23                     24
                      A                      A                      A
 Frequencies --   1029.7478              1066.6835              1096.7619
 Red. masses --      1.6879                 2.9032                 1.7177
 Frc consts  --      1.0545                 1.9462                 1.2174
 IR Inten    --     27.9208                14.3771                 2.9383

                     25                     26                     27
                      A                      A                      A
 Frequencies --   1103.1390              1119.3199              1130.5474
 Red. masses --      1.6055                 2.6855                 1.6839
 Frc consts  --      1.1511                 1.9824                 1.2681
 IR Inten    --      8.2823                87.6080                21.9617

                     28                     29                     30
                      A                      A                      A
 Frequencies --   1158.2857              1163.0195              1198.1473
 Red. masses --      1.6372                 1.5307                 2.2089
 Frc consts  --      1.2942                 1.2198                 1.8683
 IR Inten    --     16.9768                26.8631                25.2226

                     31                     32                     33
                      A                      A                      A
 Frequencies --   1235.8139              1251.1705              1287.6041
 Red. masses --      1.5687                 2.0836                 1.5723
 Frc consts  --      1.4116                 1.9217                 1.5358
 IR Inten    --      3.1995                71.8441                 7.0804

                     34                     35                     36
                      A                      A                      A
 Frequencies --   1298.8801              1354.2055              1383.3205
 Red. masses --      2.8439                 2.1976                 1.5978
 Frc consts  --      2.8268                 2.3744                 1.8014
 IR Inten    --    148.0284                28.1509                25.1946

                     37                     38                     39
                      A                      A                      A
 Frequencies --   1412.7460              1474.4927              1485.2863
 Red. masses --      1.3924                 2.0123                 1.0458
 Frc consts  --      1.6373                 2.5777                 1.3593
 IR Inten    --      4.7479                72.8852                 4.8573

                     40                     41                     42
                      A                      A                      A
 Frequencies --   1493.7701              1518.5518              3026.8703
 Red. masses --      1.0608                 1.1314                 1.0372
 Frc consts  --      1.3946                 1.5372                 5.5988
 IR Inten    --      7.1998                 3.6024                41.4693

                     43                     44                     45
                      A                      A                      A
 Frequencies --   3031.1219              3063.5169              3084.2009
 Red. masses --      1.0554                 1.0860                 1.0930
 Frc consts  --      5.7131                 6.0053                 6.1260
 IR Inten    --     52.1615                38.0967                54.7207

                     46                     47                     48
                      A                      A                      A
 Frequencies --   3087.5956              3092.9887              3095.5184
 Red. masses --      1.1018                 1.1008                 1.1009
 Frc consts  --      6.1888                 6.2045                 6.2153
 IR Inten    --     41.2316                19.0660                21.3831

                     49                     50                     51
                      A                      A                      A
 Frequencies --   3103.9311              3794.4179              3805.5183
 Red. masses --      1.0910                 1.0655                 1.0654
 Frc consts  --      6.1931                 9.0388                 9.0910
 IR Inten    --     31.5417                17.6768                11.4089

 - Thermochemistry -
 -------------------
 Temperature   298.150 Kelvin.  Pressure   1.00000 Atm.
 Atom     1 has atomic number  6 and mass  12.00000

 Molecular mass:   126.06808 amu.
 Principal axes and moments of inertia in atomic units:
                           1         2         3
     Eigenvalues --   827.16131 910.716001440.86069
           X            0.99772   0.06701  -0.00811
           Y           -0.06705   0.99774  -0.00423
           Z            0.00781   0.00476   0.99996
 This molecule is an asymmetric top.
 Rotational symmetry number  1.
 Warning -- assumption of classical behavior for rotation
           may cause significant error
 Rotational temperatures (Kelvin)      0.10471     0.09511     0.06011
 Rotational constants (GHZ):           2.18185     1.98167     1.25254
 Zero-point vibrational energy     413927.3 (Joules/Mol)
                                   98.93100 (Kcal/Mol)
 Warning -- explicit consideration of  12 degrees of freedom as
           vibrations may cause significant error
 Vibrational temperatures:    252.52   271.22   301.28   321.24   363.57
          (Kelvin)            388.44   403.47   445.10   597.46   798.25
                              809.83   856.33   951.40  1072.55  1129.98
                             1231.76  1271.73  1303.02  1331.92  1372.45
                             1440.82  1481.58  1534.72  1577.99  1587.17
                             1610.45  1626.60  1666.51  1673.32  1723.86
                             1778.06  1800.15  1852.57  1868.80  1948.40
                             1990.29  2032.62  2121.46  2136.99  2149.20
                             2184.85  4354.99  4361.10  4407.71  4437.47
                             4442.36  4450.12  4453.76  4465.86  5459.31
                             5475.29

 Zero-point correction=                           0.157657 (Hartree/Particle)
 Thermal correction to Energy=                    0.166280
 Thermal correction to Enthalpy=                  0.167224
 Thermal correction to Gibbs Free Energy=         0.125182
 Sum of electronic and zero-point Energies=           -422.953000
 Sum of electronic and thermal Energies=              -422.944377
 Sum of electronic and thermal Enthalpies=            -422.943433
 Sum of electronic and thermal Free Energies=         -422.985474

                     E (Thermal)             CV                S
                      KCal/Mol        Cal/Mol-Kelvin    Cal/Mol-Kelvin
 Total                  104.342             33.778             88.484
 Electronic               0.000              0.000              0.000
 Translational            0.889              2.981             40.409
 Rotational               0.889              2.981             28.475
 Vibrational            102.565             27.816             19.600
 Vibration     1          0.627              1.873              2.376
 Vibration     2          0.633              1.856              2.242
 Vibration     3          0.642              1.826              2.049
 Vibration     4          0.649              1.806              1.932
 Vibration     5          0.664              1.758              1.712
 Vibration     6          0.674              1.728              1.596
 Vibration     7          0.680              1.710              1.531
 Vibration     8          0.699              1.656              1.366
 Vibration     9          0.779              1.437              0.908
 Vibration    10          0.910              1.129              0.534
 Vibration    11          0.919              1.112              0.518
 Vibration    12          0.953              1.042              0.458

 Normal termination of Gaussian 09 at Mon Jan 27 22:55:49 2020.
