 Gaussian 09, Revision D.01,
 Gaussian 09:  ES64L-G09RevD.01 24-Apr-2013

 -----------------------------
 # b3lyp 6-31G(2df,p) opt Freq
 -----------------------------

 -----
 titel
 -----
 Symbolic Z-matrix:
 Charge =  0 Multiplicity = 1

 SCF Done:  E(RB3LYP) =  -423.205479367     A.U. after   14 cycles
 Optimization completed.
    -- Stationary point found.
 Normal termination of Gaussian 09 at Tue Jan 28 03:58:51 2020.

 ----------------------------------------------------------------------
 #N Geom=AllCheck Guess=TCheck SCRF=Check GenChk RB3LYP/6-31G(2df,p) Fr
 eq
 ----------------------------------------------------------------------

 Structure from the checkpoint file:  "/scratch/puck/g09_77f735c5-2dac-42ad-a4d4-81ec8813f654/Gau-69805.chk"
 -----
 titel
 -----
 Charge =  0 Multiplicity = 1

                         Standard orientation:
 ---------------------------------------------------------------------
 Center     Atomic      Atomic             Coordinates (Angstroms)
 Number     Number       Type             X           Y           Z
 ---------------------------------------------------------------------
      1          8           0       -2.424770   -0.741138   -0.385695
      2          6           0       -1.040249   -0.539662   -0.427797
      3          6           0       -0.208138   -1.486375    0.451762
      4          6           0        1.110879   -0.724774    0.703358
      5          6           0        2.095780   -0.607461   -0.499819
      6          6           0        1.850298    0.926211   -0.561680
      7          6           0        0.785164    0.806133    0.580624
      8          6           0       -0.651069    0.843055    0.109952
      9          8           0       -1.449374    1.744992    0.207449
     10          1           0       -2.808218    0.141740   -0.264447
     11          1           0       -0.674371   -0.596102   -1.470233
     12          1           0       -0.749793   -1.636537    1.392820
     13          1           0       -0.049506   -2.467618   -0.004124
     14          1           0        1.589206   -1.032297    1.634124
     15          1           0        3.125654   -0.896727   -0.280356
     16          1           0        1.776917   -1.155611   -1.390663
     17          1           0        2.711187    1.523704   -0.256447
     18          1           0        1.483133    1.323071   -1.511425
     19          1           0        0.932956    1.462782    1.438315
 ---------------------------------------------------------------------

 SCF Done:  E(RB3LYP) =  -423.205479367     A.U. after    1 cycles

 The electronic state is 1-A.
 Alpha  occ. eigenvalues --  -19.14585 -19.13240 -10.27033 -10.23578 -10.20146
 Alpha  occ. eigenvalues --  -10.20059 -10.19945 -10.19266 -10.18964  -1.05863
 Alpha  occ. eigenvalues --   -1.01385  -0.87297  -0.77001  -0.70758  -0.66684
 Alpha  occ. eigenvalues --   -0.62594  -0.55907  -0.54800  -0.50873  -0.48803
 Alpha  occ. eigenvalues --   -0.47746  -0.46093  -0.43070  -0.42169  -0.39625
 Alpha  occ. eigenvalues --   -0.38487  -0.38046  -0.35140  -0.34434  -0.34079
 Alpha  occ. eigenvalues --   -0.31656  -0.30838  -0.26785  -0.24890
 Alpha virt. eigenvalues --   -0.02917   0.07260   0.08042   0.10746   0.12085
 Alpha virt. eigenvalues --    0.12254   0.14157   0.14234   0.16605   0.17563
 Alpha virt. eigenvalues --    0.17890   0.18235   0.20747   0.21989   0.23521

 Mulliken charges:
               1
     1  O   -0.443396
     2  C    0.054230
     3  C   -0.256202
     4  C   -0.017406
     5  C   -0.226575
     6  C   -0.234038
     7  C   -0.128258
     8  C    0.376506
     9  O   -0.344310
    10  H    0.289356
    11  H    0.090659
    12  H    0.114490
    13  H    0.108615
    14  H    0.078533
    15  H    0.106579
    16  H    0.106066
    17  H    0.117285
    18  H    0.112791
    19  H    0.095075
 Sum of Mulliken charges =   0.00000

 Dipole moment (field-independent basis, Debye):
    X=              2.9974    Y=             -0.6249    Z=              0.1425  Tot=              3.0652
 Quadrupole moment (field-independent basis, Debye-Ang):
   XX=            -55.8036   YY=            -57.4146   ZZ=            -51.4663
   XY=              0.0289   XZ=              0.0140   YZ=             -1.0085

  Exact polarizability:  85.176  -2.022  74.887  -1.011   0.637  62.916
 Approx polarizability: 117.458  -7.726 112.672  -1.840   3.164  97.008

                      1                      2                      3
                      A                      A                      A
 Frequencies --     73.0348               123.7916               194.1884
 Red. masses --      3.0706                 2.9171                 3.2265
 Frc consts  --      0.0097                 0.0263                 0.0717
 IR Inten    --      0.3391                 1.0186                 1.4240

                      4                      5                      6
                      A                      A                      A
 Frequencies --    277.6657               322.7621               390.8486
 Red. masses --      4.3805                 3.0020                 2.6128
 Frc consts  --      0.1990                 0.1843                 0.2352
 IR Inten    --     18.3437                 3.8348                19.8764

                      7                      8                      9
                      A                      A                      A
 Frequencies --    409.7070               455.4988               578.2237
 Red. masses --      1.7686                 1.8892                 4.3719
 Frc consts  --      0.1749                 0.2309                 0.8612
 IR Inten    --     24.6220                30.2769                 1.0299

                     10                     11                     12
                      A                      A                      A
 Frequencies --    595.4117               703.0751               731.7717
 Red. masses --      4.1195                 2.6150                 1.7128
 Frc consts  --      0.8605                 0.7616                 0.5404
 IR Inten    --      3.7035                 1.6346                 5.5657

                     13                     14                     15
                      A                      A                      A
 Frequencies --    765.7196               783.8238               849.8845
 Red. masses --      2.4907                 2.1607                 3.1775
 Frc consts  --      0.8604                 0.7822                 1.3522
 IR Inten    --      3.3899                 3.6790                 0.7364

                     16                     17                     18
                      A                      A                      A
 Frequencies --    878.8985               922.2556               957.7417
 Red. masses --      2.1259                 2.2354                 2.2093
 Frc consts  --      0.9676                 1.1202                 1.1940
 IR Inten    --      1.3409                18.6079                 4.6634

                     19                     20                     21
                      A                      A                      A
 Frequencies --    969.0088               979.6639              1014.3041
 Red. masses --      1.8524                 2.0038                 1.7790
 Frc consts  --      1.0248                 1.1331                 1.0784
 IR Inten    --      1.3508                 1.0384                 7.0585

                     22                     23                     24
                      A                      A                      A
 Frequencies --   1054.4330              1110.5823              1132.0812
 Red. masses --      2.3425                 2.1054                 2.2209
 Frc consts  --      1.5345                 1.5300                 1.6770
 IR Inten    --      6.6439                78.2098                30.8714

                     25                     26                     27
                      A                      A                      A
 Frequencies --   1162.8152              1193.4710              1196.7828
 Red. masses --      1.3940                 2.2902                 1.9008
 Frc consts  --      1.1105                 1.9220                 1.6041
 IR Inten    --     15.8996                23.1863                24.2542

                     28                     29                     30
                      A                      A                      A
 Frequencies --   1225.3268              1250.7871              1255.9935
 Red. masses --      1.2635                 1.3745                 1.3884
 Frc consts  --      1.1177                 1.2669                 1.2905
 IR Inten    --      0.0443                 6.9993                 3.2574

                     31                     32                     33
                      A                      A                      A
 Frequencies --   1263.0608              1275.0446              1300.5838
 Red. masses --      1.2857                 1.4619                 1.5848
 Frc consts  --      1.2084                 1.4002                 1.5794
 IR Inten    --     10.5220                 0.9585                 0.9745

                     34                     35                     36
                      A                      A                      A
 Frequencies --   1309.3233              1331.0794              1382.3152
 Red. masses --      1.5096                 1.3568                 1.5174
 Frc consts  --      1.5248                 1.4164                 1.7083
 IR Inten    --      6.1116                 3.7330                 4.6104

                     37                     38                     39
                      A                      A                      A
 Frequencies --   1422.1110              1479.9636              1491.3590
 Red. masses --      1.4074                 1.0792                 1.0993
 Frc consts  --      1.6770                 1.3928                 1.4406
 IR Inten    --     67.7651                 1.1216                 3.4977

                     40                     41                     42
                      A                      A                      A
 Frequencies --   1497.2389              1828.1394              2929.2335
 Red. masses --      1.1091                12.3162                 1.0785
 Frc consts  --      1.4649                24.2519                 5.4521
 IR Inten    --      2.0040               191.4511                35.1413

                     43                     44                     45
                      A                      A                      A
 Frequencies --   3044.2532              3059.3508              3067.7569
 Red. masses --      1.0611                 1.0595                 1.0607
 Frc consts  --      5.7937                 5.8426                 5.8812
 IR Inten    --     21.6551                29.7640                35.3837

                     46                     47                     48
                      A                      A                      A
 Frequencies --   3091.4527              3097.0611              3107.2259
 Red. masses --      1.0920                 1.1039                 1.1019
 Frc consts  --      6.1487                 6.2386                 6.2682
 IR Inten    --     13.9415                20.1205                10.9040

                     49                     50                     51
                      A                      A                      A
 Frequencies --   3110.5521              3127.0048              3695.8801
 Red. masses --      1.0914                 1.1042                 1.0650
 Frc consts  --      6.2220                 6.3613                 8.5714
 IR Inten    --      9.3933                42.4714                45.9796

 - Thermochemistry -
 -------------------
 Temperature   298.150 Kelvin.  Pressure   1.00000 Atm.
 Atom     1 has atomic number  8 and mass  15.99491

 Molecular mass:   126.06808 amu.
 Principal axes and moments of inertia in atomic units:
                           1         2         3
     Eigenvalues --   647.884231195.835211572.57595
           X            0.99989   0.01354  -0.00661
           Y           -0.01364   0.99980  -0.01445
           Z            0.00641   0.01454   0.99987
 This molecule is an asymmetric top.
 Rotational symmetry number  1.
 Warning -- assumption of classical behavior for rotation
           may cause significant error
 Rotational temperatures (Kelvin)      0.13369     0.07243     0.05508
 Rotational constants (GHZ):           2.78559     1.50919     1.14763
 Zero-point vibrational energy     421501.5 (Joules/Mol)
                                  100.74127 (Kcal/Mol)
 Warning -- explicit consideration of  10 degrees of freedom as
           vibrations may cause significant error
 Vibrational temperatures:    105.08   178.11   279.39   399.50   464.38
          (Kelvin)            562.34   589.48   655.36   831.93   856.66
                             1011.57  1052.85  1101.70  1127.75  1222.79
                             1264.54  1326.92  1377.97  1394.19  1409.52
                             1459.36  1517.09  1597.88  1628.81  1673.03
                             1717.14  1721.90  1762.97  1799.60  1807.09
                             1817.26  1834.50  1871.25  1883.82  1915.12
                             1988.84  2046.10  2129.33  2145.73  2154.19
                             2630.28  4214.51  4380.00  4401.72  4413.81
                             4447.91  4455.97  4470.60  4475.39  4499.06
                             5317.54

 Zero-point correction=                           0.160541 (Hartree/Particle)
 Thermal correction to Energy=                    0.168452
 Thermal correction to Enthalpy=                  0.169396
 Thermal correction to Gibbs Free Energy=         0.127908
 Sum of electronic and zero-point Energies=           -423.044938
 Sum of electronic and thermal Energies=              -423.037027
 Sum of electronic and thermal Enthalpies=            -423.036083
 Sum of electronic and thermal Free Energies=         -423.077571

                     E (Thermal)             CV                S
                      KCal/Mol        Cal/Mol-Kelvin    Cal/Mol-Kelvin
 Total                  105.705             30.856             87.319
 Electronic               0.000              0.000              0.000
 Translational            0.889              2.981             40.409
 Rotational               0.889              2.981             28.590
 Vibrational            103.928             24.895             18.320
 Vibration     1          0.599              1.967              4.070
 Vibration     2          0.610              1.929              3.040
 Vibration     3          0.635              1.848              2.187
 Vibration     4          0.679              1.715              1.548
 Vibration     5          0.708              1.630              1.296
 Vibration     6          0.759              1.490              0.997
 Vibration     7          0.774              1.449              0.928
 Vibration     8          0.814              1.349              0.779
 Vibration     9          0.935              1.078              0.489
 Vibration    10          0.953              1.042              0.458

 Optimization completed.
    -- Stationary point found.
 Normal termination of Gaussian 09 at Tue Jan 28 04:47:10 2020.
