 Gaussian 09, Revision D.01,
 Gaussian 09:  ES64L-G09RevD.01 24-Apr-2013

 -----------------------------
 # b3lyp 6-31G(2df,p) opt Freq
 -----------------------------

 -----
 titel
 -----
 Symbolic Z-matrix:
 Charge =  0 Multiplicity = 1

 SCF Done:  E(RB3LYP) =  -423.168615399     A.U. after   14 cycles
 Optimization completed.
    -- Stationary point found.
 Normal termination of Gaussian 09 at Mon Jan 27 16:45:51 2020.

 ----------------------------------------------------------------------
 #N Geom=AllCheck Guess=TCheck SCRF=Check GenChk RB3LYP/6-31G(2df,p) Fr
 eq
 ----------------------------------------------------------------------

 Structure from the checkpoint file:  "/scratch/puck/g09_653bf506-ac8c-4cb5-9cd9-aaa8189d5fc6/Gau-110918.chk"
 -----
 titel
 -----
 Charge =  0 Multiplicity = 1

                         Standard orientation:
 ---------------------------------------------------------------------
 Center     Atomic      Atomic             Coordinates (Angstroms)
 Number     Number       Type             X           Y           Z
 ---------------------------------------------------------------------
      1          6           0       -0.207463   -0.483083    1.660356
      2          6           0        0.113225   -0.283229    0.174989
      3          6           0        1.037345   -1.400814   -0.433493
      4          6           0        2.253371   -0.426830   -0.455936
      5          6           0        1.298789    0.698182   -0.034041
      6          8           0        1.395029    1.887053    0.060491
      7          6           0       -1.101522    0.058974   -0.662142
      8          6           0       -2.271427    0.793700   -0.167643
      9          8           0       -2.326917   -0.621371   -0.374463
     10          1           0        0.666527   -0.858529    2.200570
     11          1           0       -0.505653    0.458890    2.129293
     12          1           0       -1.021929   -1.204121    1.770131
     13          1           0        1.153211   -2.286230    0.192817
     14          1           0        0.723151   -1.717395   -1.430333
     15          1           0        3.020843   -0.630595    0.297559
     16          1           0        2.754706   -0.269546   -1.414780
     17          1           0       -0.892704    0.134934   -1.731269
     18          1           0       -2.319666    1.114904    0.869840
     19          1           0       -2.857295    1.390827   -0.864590
 ---------------------------------------------------------------------

 SCF Done:  E(RB3LYP) =  -423.168615399     A.U. after    1 cycles

 The electronic state is 1-A.
 Alpha  occ. eigenvalues --  -19.15519 -19.14248 -10.27136 -10.24457 -10.23623
 Alpha  occ. eigenvalues --  -10.20736 -10.19726 -10.19610 -10.18767  -1.07403
 Alpha  occ. eigenvalues --   -1.05069  -0.85745  -0.74763  -0.68515  -0.66040
 Alpha  occ. eigenvalues --   -0.63401  -0.60147  -0.53159  -0.49748  -0.48491
 Alpha  occ. eigenvalues --   -0.46460  -0.45684  -0.44035  -0.40944  -0.40339
 Alpha  occ. eigenvalues --   -0.39568  -0.38701  -0.37080  -0.35402  -0.34590
 Alpha  occ. eigenvalues --   -0.33811  -0.29936  -0.27392  -0.24197
 Alpha virt. eigenvalues --   -0.02654   0.07896   0.09089   0.10622   0.11256
 Alpha virt. eigenvalues --    0.11648   0.13055   0.14237   0.15667   0.16486
 Alpha virt. eigenvalues --    0.17000   0.17785   0.19288   0.19976   0.20672

 Mulliken charges:
               1
     1  C   -0.468647
     2  C    0.180102
     3  C   -0.285953
     4  C   -0.345951
     5  C    0.368743
     6  O   -0.298015
     7  C    0.054981
     8  C   -0.184242
     9  O   -0.243580
    10  H    0.116898
    11  H    0.133391
    12  H    0.145111
    13  H    0.112048
    14  H    0.114342
    15  H    0.136279
    16  H    0.133731
    17  H    0.091415
    18  H    0.119840
    19  H    0.119506
 Sum of Mulliken charges =   0.00000

 Dipole moment (field-independent basis, Debye):
    X=              0.6796    Y=             -1.2041    Z=             -0.0556  Tot=              1.3838
 Quadrupole moment (field-independent basis, Debye-Ang):
   XX=            -54.6637   YY=            -58.7532   ZZ=            -50.0504
   XY=             -8.3926   XZ=             -0.8363   YZ=             -0.9531

  Exact polarizability:  85.533  -5.856  73.149  -3.354   0.696  67.950
 Approx polarizability: 113.690  -2.563 119.454  -4.542   2.819  98.764

                      1                      2                      3
                      A                      A                      A
 Frequencies --     45.7786                53.3811               138.0948
 Red. masses --      2.7481                 3.5835                 4.3986
 Frc consts  --      0.0034                 0.0060                 0.0494
 IR Inten    --      2.4716                 4.6661                 5.9647

                      4                      5                      6
                      A                      A                      A
 Frequencies --    211.4032               236.2802               268.4454
 Red. masses --      1.5318                 2.3450                 2.0998
 Frc consts  --      0.0403                 0.0771                 0.0892
 IR Inten    --      1.0509                 2.9593                 0.0832

                      7                      8                      9
                      A                      A                      A
 Frequencies --    316.2340               377.3327               410.3020
 Red. masses --      3.4323                 2.5539                 3.4976
 Frc consts  --      0.2022                 0.2142                 0.3469
 IR Inten    --      0.5918                 4.2127                 0.2330

                     10                     11                     12
                      A                      A                      A
 Frequencies --    503.4886               567.3865               662.6497
 Red. masses --      1.9785                 3.7908                 2.8305
 Frc consts  --      0.2955                 0.7190                 0.7323
 IR Inten    --      0.2251                10.0363                 0.4333

                     13                     14                     15
                      A                      A                      A
 Frequencies --    712.5607               747.9081               843.2073
 Red. masses --      2.8205                 1.5458                 3.6369
 Frc consts  --      0.8438                 0.5094                 1.5235
 IR Inten    --      1.8434                 3.8086                10.1294

                     16                     17                     18
                      A                      A                      A
 Frequencies --    872.2235               874.4319               929.0694
 Red. masses --      2.7659                 2.6061                 2.5011
 Frc consts  --      1.2398                 1.1741                 1.2720
 IR Inten    --     23.6453                 9.9195                 1.1555

                     19                     20                     21
                      A                      A                      A
 Frequencies --    945.8588               968.6815              1019.7289
 Red. masses --      3.0432                 1.7700                 1.6684
 Frc consts  --      1.6041                 0.9786                 1.0222
 IR Inten    --     22.3541                 3.4705                 5.5070

                     22                     23                     24
                      A                      A                      A
 Frequencies --   1039.1344              1068.7584              1103.2681
 Red. masses --      2.2295                 1.7694                 1.2399
 Frc consts  --      1.4184                 1.1908                 0.8892
 IR Inten    --     45.0822                41.5857                 1.8620

                     25                     26                     27
                      A                      A                      A
 Frequencies --   1149.7233              1155.9860              1175.2516
 Red. masses --      2.0424                 1.4084                 1.4322
 Frc consts  --      1.5906                 1.1089                 1.1655
 IR Inten    --     10.7570                 0.8033                 3.1614

                     28                     29                     30
                      A                      A                      A
 Frequencies --   1180.5978              1206.2751              1221.3259
 Red. masses --      2.0447                 1.4754                 1.5779
 Frc consts  --      1.6792                 1.2649                 1.3868
 IR Inten    --      1.3746                 0.4030                 2.2613

                     31                     32                     33
                      A                      A                      A
 Frequencies --   1254.1002              1277.7579              1315.1539
 Red. masses --      2.0568                 1.7492                 1.7569
 Frc consts  --      1.9059                 1.6827                 1.7904
 IR Inten    --      4.1185                 7.2055                 4.3343

                     34                     35                     36
                      A                      A                      A
 Frequencies --   1397.3666              1432.2951              1437.6094
 Red. masses --      1.2380                 1.5286                 1.1317
 Frc consts  --      1.4242                 1.8477                 1.3780
 IR Inten    --      4.9124                19.0481                 3.7208

                     37                     38                     39
                      A                      A                      A
 Frequencies --   1486.5411              1493.1362              1507.2978
 Red. masses --      1.0732                 1.0723                 1.1064
 Frc consts  --      1.3973                 1.4085                 1.4811
 IR Inten    --      6.4924                 1.4076                14.7031

                     40                     41                     42
                      A                      A                      A
 Frequencies --   1532.6937              1884.9054              3043.2113
 Red. masses --      1.2682                12.7932                 1.0340
 Frc consts  --      1.7553                26.7798                 5.6419
 IR Inten    --      2.0936               223.4750                16.3319

                     43                     44                     45
                      A                      A                      A
 Frequencies --   3058.6980              3077.3255              3084.8920
 Red. masses --      1.0595                 1.0632                 1.0802
 Frc consts  --      5.8403                 5.9320                 6.0568
 IR Inten    --     10.3250                14.5642                26.6896

                     46                     47                     48
                      A                      A                      A
 Frequencies --   3096.8165              3107.6987              3112.6756
 Red. masses --      1.0561                 1.1043                 1.1012
 Frc consts  --      5.9674                 6.2836                 6.2862
 IR Inten    --     18.2898                 2.4231                22.7573

                     49                     50                     51
                      A                      A                      A
 Frequencies --   3125.3913              3134.6813              3184.6797
 Red. masses --      1.1024                 1.1075                 1.1182
 Frc consts  --      6.3445                 6.4117                 6.6822
 IR Inten    --      7.6885                22.0996                21.2567

 - Thermochemistry -
 -------------------
 Temperature   298.150 Kelvin.  Pressure   1.00000 Atm.
 Atom     1 has atomic number  6 and mass  12.00000

 Molecular mass:   126.06808 amu.
 Principal axes and moments of inertia in atomic units:
                           1         2         3
     Eigenvalues --   667.493741400.127341586.50153
           X            0.99800  -0.06227  -0.01130
           Y            0.06200   0.99782  -0.02277
           Z            0.01270   0.02202   0.99968
 This molecule is an asymmetric top.
 Rotational symmetry number  1.
 Warning -- assumption of classical behavior for rotation
           may cause significant error
 Rotational temperatures (Kelvin)      0.12976     0.06186     0.05459
 Rotational constants (GHZ):           2.70376     1.28898     1.13756
 Zero-point vibrational energy     413008.9 (Joules/Mol)
                                   98.71149 (Kcal/Mol)
 Warning -- explicit consideration of  11 degrees of freedom as
           vibrations may cause significant error
 Vibrational temperatures:     65.87    76.80   198.69   304.16   339.95
          (Kelvin)            386.23   454.99   542.90   590.33   724.41
                              816.34   953.40  1025.21  1076.07  1213.19
                             1254.93  1258.11  1336.72  1360.88  1393.71
                             1467.16  1495.08  1537.70  1587.35  1654.19
                             1663.20  1690.92  1698.61  1735.56  1757.21
                             1804.37  1838.41  1892.21  2010.50  2060.75
                             2068.40  2138.80  2148.29  2168.66  2205.20
                             2711.96  4378.50  4400.78  4427.58  4438.47
                             4455.62  4471.28  4478.44  4496.74  4510.10
                             4582.04

 Zero-point correction=                           0.157307 (Hartree/Particle)
 Thermal correction to Energy=                    0.166374
 Thermal correction to Enthalpy=                  0.167319
 Thermal correction to Gibbs Free Energy=         0.122599
 Sum of electronic and zero-point Energies=           -423.011309
 Sum of electronic and thermal Energies=              -423.002241
 Sum of electronic and thermal Enthalpies=            -423.001297
 Sum of electronic and thermal Free Energies=         -423.046017

                     E (Thermal)             CV                S
                      KCal/Mol        Cal/Mol-Kelvin    Cal/Mol-Kelvin
 Total                  104.402             33.211             94.121
 Electronic               0.000              0.000              0.000
 Translational            0.889              2.981             40.409
 Rotational               0.889              2.981             28.785
 Vibrational            102.624             27.250             24.928
 Vibration     1          0.595              1.979              4.992
 Vibration     2          0.596              1.976              4.688
 Vibration     3          0.614              1.915              2.830
 Vibration     4          0.643              1.823              2.032
 Vibration     5          0.655              1.785              1.831
 Vibration     6          0.673              1.731              1.606
 Vibration     7          0.703              1.643              1.330
 Vibration     8          0.748              1.518              1.050
 Vibration     9          0.774              1.448              0.926
 Vibration    10          0.859              1.242              0.649
 Vibration    11          0.923              1.102              0.509

 Optimization completed.
    -- Stationary point found.
 Normal termination of Gaussian 09 at Mon Jan 27 17:25:59 2020.
