 Gaussian 09, Revision D.01,
 Gaussian 09:  ES64L-G09RevD.01 24-Apr-2013

 -----------------------------
 # b3lyp 6-31G(2df,p) opt Freq
 -----------------------------

 -----
 titel
 -----
 Symbolic Z-matrix:
 Charge =  0 Multiplicity = 1

 SCF Done:  E(RB3LYP) =  -423.181964954     A.U. after   14 cycles
 Optimization completed.
    -- Stationary point found.
 Normal termination of Gaussian 09 at Mon Jan 27 14:06:56 2020.

 ----------------------------------------------------------------------
 #N Geom=AllCheck Guess=TCheck SCRF=Check GenChk RB3LYP/6-31G(2df,p) Fr
 eq
 ----------------------------------------------------------------------

 Structure from the checkpoint file:  "/scratch/puck/g09_d3743c24-6488-47e9-a59d-934174a4f41d/Gau-41057.chk"
 -----
 titel
 -----
 Charge =  0 Multiplicity = 1

                         Standard orientation:
 ---------------------------------------------------------------------
 Center     Atomic      Atomic             Coordinates (Angstroms)
 Number     Number       Type             X           Y           Z
 ---------------------------------------------------------------------
      1          6           0       -2.454292    0.847051   -0.358143
      2          6           0       -1.391130   -0.132926    0.093132
      3          8           0       -1.601535   -1.342334    0.109031
      4          6           0       -0.063551    0.377127    0.434909
      5          6           0        0.845390   -0.439808    1.360751
      6          6           0        1.190027   -0.439201   -0.073090
      7          8           0        1.154876   -1.547232   -0.874558
      8          6           0        1.856756    0.858629   -0.517649
      9          6           0        0.646610    1.680746    0.049232
     10          1           0       -3.395929    0.319193   -0.512864
     11          1           0       -2.586269    1.646722    0.378549
     12          1           0       -2.153316    1.325119   -1.297646
     13          1           0        1.436500    0.110162    2.090438
     14          1           0        0.386745   -1.352833    1.723750
     15          1           0        0.338470   -2.025423   -0.651016
     16          1           0        2.844645    1.059193   -0.091912
     17          1           0        1.916687    0.919270   -1.605564
     18          1           0        0.873978    2.353963    0.882326
     19          1           0        0.132910    2.251451   -0.726692
 ---------------------------------------------------------------------

 SCF Done:  E(RB3LYP) =  -423.181964954     A.U. after    1 cycles

 The electronic state is 1-A.
 Alpha  occ. eigenvalues --  -19.14962 -19.12190 -10.26853 -10.25646 -10.20072
 Alpha  occ. eigenvalues --  -10.19895 -10.19719 -10.19649 -10.18913  -1.04641
 Alpha  occ. eigenvalues --   -1.02636  -0.89540  -0.75084  -0.74435  -0.67182
 Alpha  occ. eigenvalues --   -0.62170  -0.57372  -0.55033  -0.49907  -0.47662
 Alpha  occ. eigenvalues --   -0.46594  -0.44183  -0.43145  -0.41509  -0.40123
 Alpha  occ. eigenvalues --   -0.39342  -0.38652  -0.36875  -0.35465  -0.35386
 Alpha  occ. eigenvalues --   -0.34759  -0.28210  -0.25082  -0.22612
 Alpha virt. eigenvalues --   -0.01601   0.08230   0.09476   0.10740   0.12263
 Alpha virt. eigenvalues --    0.12700   0.13354   0.14735   0.15787   0.16311
 Alpha virt. eigenvalues --    0.17652   0.18074   0.19641   0.20866   0.22865

 Mulliken charges:
               1
     1  C   -0.487680
     2  C    0.299347
     3  O   -0.368368
     4  C    0.137317
     5  C   -0.379864
     6  C    0.416535
     7  O   -0.458007
     8  C   -0.268825
     9  C   -0.308090
    10  H    0.142848
    11  H    0.137379
    12  H    0.142567
    13  H    0.112015
    14  H    0.137724
    15  H    0.304052
    16  H    0.106308
    17  H    0.121477
    18  H    0.102785
    19  H    0.110480
 Sum of Mulliken charges =   0.00000

 Dipole moment (field-independent basis, Debye):
    X=              0.1669    Y=              2.7221    Z=              0.4797  Tot=              2.7691
 Quadrupole moment (field-independent basis, Debye-Ang):
   XX=            -54.3034   YY=            -54.4883   ZZ=            -52.5316
   XY=             -1.4480   XZ=              2.4205   YZ=             -1.5343

  Exact polarizability:  89.479   1.401  77.716   2.585  -1.197  65.427
 Approx polarizability: 127.315   3.583 121.679   0.394   1.430 100.684

                      1                      2                      3
                      A                      A                      A
 Frequencies --     74.2026               112.5961               123.6261
 Red. masses --      2.9930                 1.4023                 2.7689
 Frc consts  --      0.0097                 0.0105                 0.0249
 IR Inten    --      6.2566                 0.8090                 5.3619

                      4                      5                      6
                      A                      A                      A
 Frequencies --    183.6294               247.2810               354.5522
 Red. masses --      2.9816                 2.1431                 2.8720
 Frc consts  --      0.0592                 0.0772                 0.2127
 IR Inten    --      0.5998                 1.4257                21.7067

                      7                      8                      9
                      A                      A                      A
 Frequencies --    375.1026               417.7882               444.8905
 Red. masses --      2.9321                 3.8617                 1.6623
 Frc consts  --      0.2431                 0.3971                 0.1938
 IR Inten    --      3.0616                13.7689                37.1415

                     10                     11                     12
                      A                      A                      A
 Frequencies --    479.9899               538.4033               604.5055
 Red. masses --      1.5981                 3.2126                 3.5295
 Frc consts  --      0.2169                 0.5487                 0.7599
 IR Inten    --     69.2215                 6.0249                 8.4845

                     13                     14                     15
                      A                      A                      A
 Frequencies --    633.4882               693.0241               706.8085
 Red. masses --      2.6845                 6.7693                 3.4934
 Frc consts  --      0.6347                 1.9155                 1.0283
 IR Inten    --      6.6922                32.7859                 3.6284

                     16                     17                     18
                      A                      A                      A
 Frequencies --    765.7441               793.1685               919.2848
 Red. masses --      3.7118                 1.2137                 2.0638
 Frc consts  --      1.2823                 0.4499                 1.0276
 IR Inten    --     49.4695                14.7031                 0.3937

                     19                     20                     21
                      A                      A                      A
 Frequencies --    946.5586               953.8569               965.1483
 Red. masses --      1.6330                 2.1773                 1.7017
 Frc consts  --      0.8621                 1.1672                 0.9340
 IR Inten    --      3.7700                 1.3975                35.4239

                     22                     23                     24
                      A                      A                      A
 Frequencies --   1017.4613              1044.7898              1072.3005
 Red. masses --      1.6731                 1.9168                 1.4285
 Frc consts  --      1.0205                 1.2328                 0.9677
 IR Inten    --      4.6618                 1.8972                 6.9494

                     25                     26                     27
                      A                      A                      A
 Frequencies --   1096.6577              1136.7034              1159.7856
 Red. masses --      1.4870                 2.0015                 1.9632
 Frc consts  --      1.0536                 1.5237                 1.5558
 IR Inten    --     14.3600                 3.3938               115.6573

                     28                     29                     30
                      A                      A                      A
 Frequencies --   1216.3628              1217.0929              1241.5789
 Red. masses --      2.1709                 1.3845                 1.4542
 Frc consts  --      1.8924                 1.2083                 1.3207
 IR Inten    --     55.9302                30.7382                 1.0993

                     31                     32                     33
                      A                      A                      A
 Frequencies --   1269.9737              1366.2679              1380.5068
 Red. masses --      1.4754                 1.9473                 1.8810
 Frc consts  --      1.4020                 2.1417                 2.1121
 IR Inten    --     26.8124                64.3221                55.7960

                     34                     35                     36
                      A                      A                      A
 Frequencies --   1401.6122              1441.1043              1462.0500
 Red. masses --      2.3704                 2.0395                 1.0737
 Frc consts  --      2.7437                 2.4955                 1.3522
 IR Inten    --    109.9856                62.8548                11.6506

                     37                     38                     39
                      A                      A                      A
 Frequencies --   1468.3406              1473.6474              1482.6183
 Red. masses --      1.3283                 1.0577                 1.1169
 Frc consts  --      1.6873                 1.3533                 1.4466
 IR Inten    --     27.7388                10.6724                 7.8806

                     40                     41                     42
                      A                      A                      A
 Frequencies --   1505.4937              1716.2558              3036.2666
 Red. masses --      1.1985                 9.3533                 1.0375
 Frc consts  --      1.6005                16.2322                 5.6352
 IR Inten    --      6.8830               157.2603                 1.5142

                     43                     44                     45
                      A                      A                      A
 Frequencies --   3046.0599              3057.9973              3096.5302
 Red. masses --      1.0630                 1.0634                 1.0979
 Frc consts  --      5.8111                 5.8591                 6.2025
 IR Inten    --     41.2791                53.3155                 7.2014

                     46                     47                     48
                      A                      A                      A
 Frequencies --   3101.9001              3107.7391              3129.0432
 Red. masses --      1.0595                 1.1020                 1.1028
 Frc consts  --      6.0066                 6.2709                 6.3616
 IR Inten    --     16.2076                 7.2149                25.8317

                     49                     50                     51
                      A                      A                      A
 Frequencies --   3152.6021              3217.0388              3675.5719
 Red. masses --      1.1016                 1.1110                 1.0650
 Frc consts  --      6.4507                 6.7748                 8.4769
 IR Inten    --      9.2827                 2.4358                47.9480

 - Thermochemistry -
 -------------------
 Temperature   298.150 Kelvin.  Pressure   1.00000 Atm.
 Atom     1 has atomic number  6 and mass  12.00000

 Molecular mass:   126.06808 amu.
 Principal axes and moments of inertia in atomic units:
                           1         2         3
     Eigenvalues --   726.901731155.398891485.73797
           X            0.99965  -0.01632   0.02058
           Y            0.01702   0.99926  -0.03436
           Z           -0.02000   0.03470   0.99920
 This molecule is an asymmetric top.
 Rotational symmetry number  1.
 Warning -- assumption of classical behavior for rotation
           may cause significant error
 Rotational temperatures (Kelvin)      0.11915     0.07496     0.05830
 Rotational constants (GHZ):           2.48279     1.56201     1.21471
 Zero-point vibrational energy     413459.3 (Joules/Mol)
                                   98.81915 (Kcal/Mol)
 Warning -- explicit consideration of  12 degrees of freedom as
           vibrations may cause significant error
 Vibrational temperatures:    106.76   162.00   177.87   264.20   355.78
          (Kelvin)            510.12   539.69   601.10   640.10   690.60
                              774.64   869.75   911.45   997.11  1016.94
                             1101.73  1141.19  1322.64  1361.89  1372.39
                             1388.63  1463.90  1503.22  1542.80  1577.84
                             1635.46  1668.67  1750.07  1751.12  1786.35
                             1827.21  1965.75  1986.24  2016.60  2073.43
                             2103.56  2112.61  2120.25  2133.15  2166.07
                             2469.31  4368.50  4382.60  4399.77  4455.21
                             4462.94  4471.34  4501.99  4535.89  4628.60
                             5288.32

 Zero-point correction=                           0.157478 (Hartree/Particle)
 Thermal correction to Energy=                    0.166416
 Thermal correction to Enthalpy=                  0.167360
 Thermal correction to Gibbs Free Energy=         0.123831
 Sum of electronic and zero-point Energies=           -423.024487
 Sum of electronic and thermal Energies=              -423.015549
 Sum of electronic and thermal Enthalpies=            -423.014605
 Sum of electronic and thermal Free Energies=         -423.058134

                     E (Thermal)             CV                S
                      KCal/Mol        Cal/Mol-Kelvin    Cal/Mol-Kelvin
 Total                  104.427             33.912             91.615
 Electronic               0.000              0.000              0.000
 Translational            0.889              2.981             40.409
 Rotational               0.889              2.981             28.614
 Vibrational            102.650             27.950             22.592
 Vibration     1          0.599              1.966              4.039
 Vibration     2          0.607              1.939              3.224
 Vibration     3          0.610              1.929              3.043
 Vibration     4          0.631              1.862              2.291
 Vibration     5          0.661              1.767              1.750
 Vibration     6          0.730              1.566              1.146
 Vibration     7          0.746              1.523              1.059
 Vibration     8          0.781              1.432              0.900
 Vibration     9          0.804              1.372              0.811
 Vibration    10          0.836              1.294              0.710
 Vibration    11          0.893              1.165              0.569
 Vibration    12          0.963              1.022              0.442

 Optimization completed.
    -- Stationary point found.
 Normal termination of Gaussian 09 at Mon Jan 27 14:50:41 2020.
