 Gaussian 09, Revision D.01,
 Gaussian 09:  ES64L-G09RevD.01 24-Apr-2013

 -----------------------------
 # b3lyp 6-31G(2df,p) opt Freq
 -----------------------------

 -----
 titel
 -----
 Symbolic Z-matrix:
 Charge =  0 Multiplicity = 1

 SCF Done:  E(RB3LYP) =  -423.219151910     A.U. after   14 cycles
 Optimization completed.
    -- Stationary point found.
 Normal termination of Gaussian 09 at Tue Jan 28 12:40:02 2020.

 ----------------------------------------------------------------------
 #N Geom=AllCheck Guess=TCheck SCRF=Check GenChk RB3LYP/6-31G(2df,p) Fr
 eq
 ----------------------------------------------------------------------

 Structure from the checkpoint file:  "/scratch/puck/g09_02f04493-c47a-4f8f-8aa7-4c17c0055336/Gau-29191.chk"
 -----
 titel
 -----
 Charge =  0 Multiplicity = 1

                         Standard orientation:
 ---------------------------------------------------------------------
 Center     Atomic      Atomic             Coordinates (Angstroms)
 Number     Number       Type             X           Y           Z
 ---------------------------------------------------------------------
      1          8           0       -3.124098   -0.437806    0.432211
      2          6           0       -2.371076    0.371031   -0.468997
      3          6           0       -0.884551    0.260280   -0.242005
      4          6           0       -0.139765    1.327957    0.055780
      5          6           0        1.352923    1.295299    0.249772
      6          6           0        1.973857   -0.088712    0.073029
      7          8           0        3.119877   -0.232224   -0.281129
      8          6           0        1.048971   -1.249879    0.389717
      9          6           0       -0.287480   -1.122776   -0.363671
     10          1           0       -2.933214   -0.124396    1.322786
     11          1           0       -2.632470   -0.003621   -1.466434
     12          1           0       -2.683059    1.424564   -0.420530
     13          1           0       -0.614554    2.304105    0.139607
     14          1           0        1.863840    1.984419   -0.432798
     15          1           0        1.612179    1.645618    1.261408
     16          1           0        1.564339   -2.186203    0.165446
     17          1           0        0.845978   -1.221724    1.469589
     18          1           0       -0.141294   -1.365383   -1.426213
     19          1           0       -1.005256   -1.856342    0.016727
 ---------------------------------------------------------------------

 SCF Done:  E(RB3LYP) =  -423.219151910     A.U. after    1 cycles

 The electronic state is 1-A.
 Alpha  occ. eigenvalues --  -19.14281 -19.12711 -10.26816 -10.23528 -10.19795
 Alpha  occ. eigenvalues --  -10.19631 -10.19570 -10.19446 -10.19296  -1.03811
 Alpha  occ. eigenvalues --   -1.02204  -0.84215  -0.76009  -0.75190  -0.66546
 Alpha  occ. eigenvalues --   -0.64147  -0.56684  -0.51805  -0.50006  -0.47463
 Alpha  occ. eigenvalues --   -0.46092  -0.45433  -0.43656  -0.43149  -0.41434
 Alpha  occ. eigenvalues --   -0.39778  -0.39004  -0.37505  -0.34525  -0.34356
 Alpha  occ. eigenvalues --   -0.32823  -0.27920  -0.25510  -0.23874
 Alpha virt. eigenvalues --   -0.01433   0.00647   0.08261   0.09865   0.11221
 Alpha virt. eigenvalues --    0.12043   0.14654   0.14874   0.15963   0.16861
 Alpha virt. eigenvalues --    0.17261   0.18194   0.18860   0.21372   0.22769

 Mulliken charges:
               1
     1  O   -0.409383
     2  C   -0.158755
     3  C    0.280813
     4  C   -0.160124
     5  C   -0.354992
     6  C    0.387698
     7  O   -0.308962
     8  C   -0.307220
     9  C   -0.306477
    10  H    0.281378
    11  H    0.115557
    12  H    0.092909
    13  H    0.086720
    14  H    0.137769
    15  H    0.135221
    16  H    0.121009
    17  H    0.118308
    18  H    0.120944
    19  H    0.127587
 Sum of Mulliken charges =   0.00000

 Dipole moment (field-independent basis, Debye):
    X=             -1.7159    Y=              1.2084    Z=              1.2304  Tot=              2.4328
 Quadrupole moment (field-independent basis, Debye-Ang):
   XX=            -69.7965   YY=            -50.6991   ZZ=            -49.4738
   XY=             -1.4709   XZ=              1.1655   YZ=              0.6904

  Exact polarizability:  94.283   4.665  80.696   1.188   2.935  59.820
 Approx polarizability: 130.582  13.227 121.847  -1.160   7.345  95.259

                      1                      2                      3
                      A                      A                      A
 Frequencies --     57.2848                87.8992               133.8951
 Red. masses --      5.4216                 3.0114                 3.5739
 Frc consts  --      0.0105                 0.0137                 0.0378
 IR Inten    --      5.2075                 1.5065                 1.0068

                      4                      5                      6
                      A                      A                      A
 Frequencies --    211.0650               288.8153               323.2218
 Red. masses --      2.3363                 2.1466                 2.0082
 Frc consts  --      0.0613                 0.1055                 0.1236
 IR Inten    --      1.5945                17.6332                24.3313

                      7                      8                      9
                      A                      A                      A
 Frequencies --    379.6146               392.9785               455.7005
 Red. masses --      2.0793                 1.6362                 4.9071
 Frc consts  --      0.1765                 0.1489                 0.6004
 IR Inten    --     19.3992                69.1283                 8.1616

                     10                     11                     12
                      A                      A                      A
 Frequencies --    498.2935               528.5165               588.6801
 Red. masses --      2.7323                 3.4293                 3.3598
 Frc consts  --      0.3997                 0.5644                 0.6860
 IR Inten    --      4.9821                 5.2298                 6.5799

                     13                     14                     15
                      A                      A                      A
 Frequencies --    704.8205               745.9598               777.1841
 Red. masses --      3.0364                 3.6729                 1.7831
 Frc consts  --      0.8887                 1.2042                 0.6346
 IR Inten    --      4.1543                 2.7549                 3.3534

                     16                     17                     18
                      A                      A                      A
 Frequencies --    823.8404               920.4254               935.6448
 Red. masses --      1.7232                 1.6323                 1.7260
 Frc consts  --      0.6891                 0.8148                 0.8903
 IR Inten    --     10.9759                 9.1377                 6.2269

                     19                     20                     21
                      A                      A                      A
 Frequencies --    962.1448              1002.6549              1025.2418
 Red. masses --      2.1425                 1.7945                 3.1686
 Frc consts  --      1.1686                 1.0629                 1.9623
 IR Inten    --      1.4441                33.2378                62.1654

                     22                     23                     24
                      A                      A                      A
 Frequencies --   1050.6730              1068.3520              1133.1660
 Red. masses --      2.2071                 2.7438                 1.3829
 Frc consts  --      1.4355                 1.8451                 1.0463
 IR Inten    --      0.8930                14.6360                 7.3217

                     25                     26                     27
                      A                      A                      A
 Frequencies --   1167.2555              1200.2839              1203.2641
 Red. masses --      2.2860                 2.1146                 1.1143
 Frc consts  --      1.8351                 1.7949                 0.9506
 IR Inten    --     14.8545                48.3209                 6.6747

                     28                     29                     30
                      A                      A                      A
 Frequencies --   1215.0574              1253.3126              1313.4565
 Red. masses --      1.2411                 1.4639                 1.4094
 Frc consts  --      1.0796                 1.3549                 1.4326
 IR Inten    --      1.9146                 1.8891                 4.2623

                     31                     32                     33
                      A                      A                      A
 Frequencies --   1332.6701              1350.6877              1370.5900
 Red. masses --      1.7675                 1.4481                 1.4844
 Frc consts  --      1.8495                 1.5565                 1.6429
 IR Inten    --      0.1917                 6.5879                 7.7222

                     34                     35                     36
                      A                      A                      A
 Frequencies --   1400.6503              1415.8721              1441.5905
 Red. masses --      1.5898                 1.2301                 1.0809
 Frc consts  --      1.8377                 1.4529                 1.3235
 IR Inten    --      4.8956                62.2142                 7.6959

                     37                     38                     39
                      A                      A                      A
 Frequencies --   1465.0282              1489.6679              1497.7881
 Red. masses --      1.0901                 1.0904                 1.0876
 Frc consts  --      1.3785                 1.4257                 1.4376
 IR Inten    --      5.6693                 3.4621                 2.0765

                     40                     41                     42
                      A                      A                      A
 Frequencies --   1737.7646              1823.0103              2995.6927
 Red. masses --      7.2624                11.5647                 1.0690
 Frc consts  --     12.9214                22.6444                 5.6522
 IR Inten    --      2.1124               193.7081                14.1768

                     43                     44                     45
                      A                      A                      A
 Frequencies --   2996.0327              3006.7702              3020.6471
 Red. masses --      1.0647                 1.0707                 1.0654
 Frc consts  --      5.6307                 5.7034                 5.7272
 IR Inten    --     52.1359                11.7941                20.8011

                     46                     47                     48
                      A                      A                      A
 Frequencies --   3053.0039              3059.7540              3076.9659
 Red. masses --      1.0986                 1.0888                 1.0910
 Frc consts  --      6.0333                 6.0057                 6.0857
 IR Inten    --     29.2255                 7.8712                 9.9024

                     49                     50                     51
                      A                      A                      A
 Frequencies --   3112.2195              3137.5349              3807.3792
 Red. masses --      1.0955                 1.0891                 1.0662
 Frc consts  --      6.2519                 6.3166                 9.1061
 IR Inten    --     17.8774                21.8911                15.1478

 - Thermochemistry -
 -------------------
 Temperature   298.150 Kelvin.  Pressure   1.00000 Atm.
 Atom     1 has atomic number  8 and mass  15.99491

 Molecular mass:   126.06808 amu.
 Principal axes and moments of inertia in atomic units:
                           1         2         3
     Eigenvalues --   462.201101883.131162188.26285
           X            0.99997  -0.00236   0.00800
           Y            0.00231   0.99998   0.00620
           Z           -0.00802  -0.00619   0.99995
 This molecule is an asymmetric top.
 Rotational symmetry number  1.
 Warning -- assumption of classical behavior for rotation
           may cause significant error
 Rotational temperatures (Kelvin)      0.18739     0.04599     0.03958
 Rotational constants (GHZ):           3.90467     0.95837     0.82474
 Zero-point vibrational energy     418932.4 (Joules/Mol)
                                  100.12724 (Kcal/Mol)
 Warning -- explicit consideration of  12 degrees of freedom as
           vibrations may cause significant error
 Vibrational temperatures:     82.42   126.47   192.65   303.68   415.54
          (Kelvin)            465.04   546.18   565.41   655.65   716.93
                              760.42   846.98  1014.08  1073.27  1118.19
                             1185.32  1324.29  1346.18  1384.31  1442.59
                             1475.09  1511.68  1537.12  1630.37  1679.42
                             1726.94  1731.23  1748.19  1803.24  1889.77
                             1917.41  1943.34  1971.97  2015.22  2037.12
                             2074.12  2107.85  2143.30  2154.98  2500.25
                             2622.90  4310.13  4310.62  4326.07  4346.03
                             4392.59  4402.30  4427.06  4477.78  4514.21
                             5477.96

 Zero-point correction=                           0.159563 (Hartree/Particle)
 Thermal correction to Energy=                    0.168328
 Thermal correction to Enthalpy=                  0.169272
 Thermal correction to Gibbs Free Energy=         0.125548
 Sum of electronic and zero-point Energies=           -423.059589
 Sum of electronic and thermal Energies=              -423.050824
 Sum of electronic and thermal Enthalpies=            -423.049880
 Sum of electronic and thermal Free Energies=         -423.093604

                     E (Thermal)             CV                S
                      KCal/Mol        Cal/Mol-Kelvin    Cal/Mol-Kelvin
 Total                  105.627             32.738             92.024
 Electronic               0.000              0.000              0.000
 Translational            0.889              2.981             40.409
 Rotational               0.889              2.981             29.034
 Vibrational            103.850             26.776             22.582
 Vibration     1          0.596              1.975              4.549
 Vibration     2          0.601              1.958              3.706
 Vibration     3          0.613              1.919              2.889
 Vibration     4          0.643              1.824              2.034
 Vibration     5          0.685              1.695              1.481
 Vibration     6          0.708              1.629              1.294
 Vibration     7          0.750              1.514              1.041
 Vibration     8          0.760              1.485              0.989
 Vibration     9          0.814              1.348              0.779
 Vibration    10          0.854              1.254              0.662
 Vibration    11          0.883              1.187              0.591
 Vibration    12          0.946              1.056              0.470

 Optimization completed.
    -- Stationary point found.
 Normal termination of Gaussian 09 at Tue Jan 28 13:20:58 2020.
