 Gaussian 09, Revision D.01,
 Gaussian 09:  ES64L-G09RevD.01 24-Apr-2013

 -----------------------------
 # b3lyp 6-31G(2df,p) opt Freq
 -----------------------------

 -----
 titel
 -----
 Symbolic Z-matrix:
 Charge =  0 Multiplicity = 1

 SCF Done:  E(RB3LYP) =  -423.165126068     A.U. after   14 cycles
 Optimization completed.
    -- Stationary point found.
 Normal termination of Gaussian 09 at Mon Jan 27 23:51:35 2020.

 ----------------------------------------------------------------------
 #N Geom=AllCheck Guess=TCheck SCRF=Check GenChk RB3LYP/6-31G(2df,p) Fr
 eq
 ----------------------------------------------------------------------

 Structure from the checkpoint file:  "/scratch/puck/g09_7cbdc8f9-2535-4723-be1b-e38ebe329ea8/Gau-186313.chk"
 -----
 titel
 -----
 Charge =  0 Multiplicity = 1

                         Standard orientation:
 ---------------------------------------------------------------------
 Center     Atomic      Atomic             Coordinates (Angstroms)
 Number     Number       Type             X           Y           Z
 ---------------------------------------------------------------------
      1          6           0        2.720235   -0.431117    0.268540
      2          6           0        1.227556   -0.544039    0.487459
      3          6           0        0.306621   -0.762903   -0.706657
      4          6           0       -1.020993   -1.477767   -0.470682
      5          6           0       -1.805381   -0.519169    0.421669
      6          8           0       -2.098866    0.740499   -0.196060
      7          6           0       -1.004214    0.668994    0.739455
      8          6           0        0.319644    0.564194    0.039827
      9          8           0        0.895528    1.726223   -0.465559
     10          1           0        3.201507    0.087836    1.104069
     11          1           0        3.176925   -1.422503    0.179430
     12          1           0        2.940894    0.134825   -0.639268
     13          1           0        0.941190   -1.051416    1.407745
     14          1           0        0.779879   -0.818280   -1.680659
     15          1           0       -1.562687   -1.660435   -1.404962
     16          1           0       -0.892804   -2.446226    0.028686
     17          1           0       -2.577295   -0.892260    1.090076
     18          1           0       -1.124136    1.257019    1.646353
     19          1           0        0.282423    2.088496   -1.116184
 ---------------------------------------------------------------------

 SCF Done:  E(RB3LYP) =  -423.165126068     A.U. after    1 cycles

 The electronic state is 1-A.
 Alpha  occ. eigenvalues --  -19.14891 -19.14561 -10.23774 -10.23641 -10.23312
 Alpha  occ. eigenvalues --  -10.19328 -10.19075 -10.18685 -10.17514  -1.07157
 Alpha  occ. eigenvalues --   -1.02967  -0.86686  -0.75088  -0.70734  -0.67105
 Alpha  occ. eigenvalues --   -0.60429  -0.57383  -0.56060  -0.53548  -0.48119
 Alpha  occ. eigenvalues --   -0.45993  -0.43911  -0.42981  -0.40920  -0.40140
 Alpha  occ. eigenvalues --   -0.39031  -0.36950  -0.36437  -0.35178  -0.33099
 Alpha  occ. eigenvalues --   -0.30074  -0.27799  -0.26257  -0.24229
 Alpha virt. eigenvalues --    0.07582   0.10048   0.10412   0.11230   0.11841
 Alpha virt. eigenvalues --    0.12927   0.13974   0.14264   0.16603   0.16968
 Alpha virt. eigenvalues --    0.17835   0.18874   0.20328   0.20828   0.22934

 Mulliken charges:
               1
     1  C   -0.416677
     2  C   -0.056659
     3  C   -0.131861
     4  C   -0.275693
     5  C    0.063494
     6  O   -0.267743
     7  C   -0.075935
     8  C    0.405629
     9  O   -0.476320
    10  H    0.120910
    11  H    0.113462
    12  H    0.131476
    13  H    0.079748
    14  H    0.087395
    15  H    0.113332
    16  H    0.101868
    17  H    0.095239
    18  H    0.097762
    19  H    0.290573
 Sum of Mulliken charges =   0.00000

 Dipole moment (field-independent basis, Debye):
    X=              0.0712    Y=             -1.3529    Z=              0.3486  Tot=              1.3989
 Quadrupole moment (field-independent basis, Debye-Ang):
   XX=            -56.7748   YY=            -52.7162   ZZ=            -49.7690
   XY=              0.6994   XZ=             -1.6727   YZ=             -1.0315

  Exact polarizability:  84.041   1.899  73.905   0.904   1.313  65.292
 Approx polarizability: 110.620   2.298 113.542   5.500  -0.004 102.269

                      1                      2                      3
                      A                      A                      A
 Frequencies --    152.3084               178.8313               208.7838
 Red. masses --      3.5441                 1.0712                 4.1800
 Frc consts  --      0.0484                 0.0202                 0.1074
 IR Inten    --      2.4571                 0.0525                 3.9343

                      4                      5                      6
                      A                      A                      A
 Frequencies --    222.3329               284.9705               355.6125
 Red. masses --      2.8743                 2.1976                 1.3843
 Frc consts  --      0.0837                 0.1051                 0.1031
 IR Inten    --      2.6657                 4.3434                38.5601

                      7                      8                      9
                      A                      A                      A
 Frequencies --    393.6026               406.7481               428.4365
 Red. masses --      2.6116                 2.3007                 4.5110
 Frc consts  --      0.2384                 0.2243                 0.4879
 IR Inten    --      2.0287                49.8461                13.3363

                     10                     11                     12
                      A                      A                      A
 Frequencies --    518.9048               641.4876               715.7303
 Red. masses --      4.0072                 4.9976                 4.6032
 Frc consts  --      0.6357                 1.2117                 1.3894
 IR Inten    --      4.3960                 6.7760                 1.5456

                     13                     14                     15
                      A                      A                      A
 Frequencies --    751.3747               807.0006               860.9974
 Red. masses --      3.2534                 3.8249                 2.8515
 Frc consts  --      1.0822                 1.4676                 1.2454
 IR Inten    --      3.0486                17.0323                22.7205

                     16                     17                     18
                      A                      A                      A
 Frequencies --    875.6399               896.0885               918.8499
 Red. masses --      2.3921                 2.5549                 2.0199
 Frc consts  --      1.0806                 1.2087                 1.0048
 IR Inten    --      7.6856                14.4461                 2.2207

                     19                     20                     21
                      A                      A                      A
 Frequencies --    957.0073               989.7733              1023.3907
 Red. masses --      1.8735                 1.7411                 1.2939
 Frc consts  --      1.0110                 1.0049                 0.7985
 IR Inten    --     14.9357                 4.8763                 4.4753

                     22                     23                     24
                      A                      A                      A
 Frequencies --   1036.3608              1064.3040              1090.7653
 Red. masses --      1.5499                 1.9745                 1.8424
 Frc consts  --      0.9808                 1.3178                 1.2915
 IR Inten    --     13.8120                 6.2568                 7.3040

                     25                     26                     27
                      A                      A                      A
 Frequencies --   1117.6427              1131.8702              1146.6917
 Red. masses --      1.7901                 2.2460                 1.5311
 Frc consts  --      1.3174                 1.6953                 1.1862
 IR Inten    --      0.6849                 6.6134                 0.3480

                     28                     29                     30
                      A                      A                      A
 Frequencies --   1212.0401              1234.0743              1246.9692
 Red. masses --      1.3588                 1.4880                 1.6236
 Frc consts  --      1.1761                 1.3351                 1.4874
 IR Inten    --     11.5322                 8.9947                58.0803

                     31                     32                     33
                      A                      A                      A
 Frequencies --   1265.6257              1279.2740              1322.9182
 Red. masses --      1.7121                 1.5257                 1.5581
 Frc consts  --      1.6158                 1.4711                 1.6066
 IR Inten    --      1.2657                46.3229                 3.7303

                     34                     35                     36
                      A                      A                      A
 Frequencies --   1342.5454              1363.1104              1415.3308
 Red. masses --      1.3891                 1.9056                 1.2820
 Frc consts  --      1.4752                 2.0862                 1.5131
 IR Inten    --     24.4909                23.3323                 1.3249

                     37                     38                     39
                      A                      A                      A
 Frequencies --   1430.4130              1460.7990              1480.4082
 Red. masses --      3.6105                 2.4413                 1.0968
 Frc consts  --      4.3526                 3.0693                 1.4162
 IR Inten    --     28.8322                 3.9338                 2.1443

                     40                     41                     42
                      A                      A                      A
 Frequencies --   1491.9463              1503.8244              3028.6898
 Red. masses --      1.0583                 1.1308                 1.0620
 Frc consts  --      1.3879                 1.5067                 5.7394
 IR Inten    --      2.1996                 7.4869                42.0740

                     43                     44                     45
                      A                      A                      A
 Frequencies --   3036.7507              3073.8183              3095.3830
 Red. masses --      1.0370                 1.1008                 1.1014
 Frc consts  --      5.6342                 6.1278                 6.2177
 IR Inten    --     36.3405                17.8930                23.0034

                     46                     47                     48
                      A                      A                      A
 Frequencies --   3107.5325              3129.8474              3139.6048
 Red. masses --      1.0885                 1.0982                 1.0868
 Frc consts  --      6.1931                 6.3383                 6.3115
 IR Inten    --      5.4859                21.7991                18.0135

                     49                     50                     51
                      A                      A                      A
 Frequencies --   3152.1936              3175.9904              3786.4498
 Red. masses --      1.0951                 1.0900                 1.0658
 Frc consts  --      6.4112                 6.4780                 9.0034
 IR Inten    --     39.7399                10.7931                24.6033

 - Thermochemistry -
 -------------------
 Temperature   298.150 Kelvin.  Pressure   1.00000 Atm.
 Atom     1 has atomic number  6 and mass  12.00000

 Molecular mass:   126.06808 amu.
 Principal axes and moments of inertia in atomic units:
                           1         2         3
     Eigenvalues --   592.655311203.176891518.38480
           X            0.99999   0.00347  -0.00206
           Y           -0.00346   0.99997   0.00731
           Z            0.00208  -0.00730   0.99997
 This molecule is an asymmetric top.
 Rotational symmetry number  1.
 Warning -- assumption of classical behavior for rotation
           may cause significant error
 Rotational temperatures (Kelvin)      0.14615     0.07199     0.05704
 Rotational constants (GHZ):           3.04518     1.49998     1.18859
 Zero-point vibrational energy     418400.2 (Joules/Mol)
                                  100.00004 (Kcal/Mol)
 Warning -- explicit consideration of  10 degrees of freedom as
           vibrations may cause significant error
 Vibrational temperatures:    219.14   257.30   300.39   319.89   410.01
          (Kelvin)            511.65   566.31   585.22   616.42   746.59
                              922.96  1029.77  1081.06  1161.09  1238.78
                             1259.85  1289.27  1322.02  1376.92  1424.06
                             1472.43  1491.09  1531.29  1569.37  1608.04
                             1628.51  1649.83  1743.85  1775.56  1794.11
                             1820.95  1840.59  1903.38  1931.62  1961.21
                             2036.34  2058.04  2101.76  2129.97  2146.58
                             2163.67  4357.60  4369.20  4422.53  4453.56
                             4471.04  4503.15  4517.19  4535.30  4569.54
                             5447.85

 Zero-point correction=                           0.159360 (Hartree/Particle)
 Thermal correction to Energy=                    0.167449
 Thermal correction to Enthalpy=                  0.168393
 Thermal correction to Gibbs Free Energy=         0.127239
 Sum of electronic and zero-point Energies=           -423.005766
 Sum of electronic and thermal Energies=              -422.997677
 Sum of electronic and thermal Enthalpies=            -422.996733
 Sum of electronic and thermal Free Energies=         -423.037887

                     E (Thermal)             CV                S
                      KCal/Mol        Cal/Mol-Kelvin    Cal/Mol-Kelvin
 Total                  105.076             32.022             86.615
 Electronic               0.000              0.000              0.000
 Translational            0.889              2.981             40.409
 Rotational               0.889              2.981             28.473
 Vibrational            103.298             26.061             17.734
 Vibration     1          0.619              1.900              2.643
 Vibration     2          0.629              1.868              2.341
 Vibration     3          0.642              1.827              2.054
 Vibration     4          0.648              1.807              1.940
 Vibration     5          0.683              1.702              1.504
 Vibration     6          0.731              1.564              1.141
 Vibration     7          0.761              1.484              0.986
 Vibration     8          0.772              1.456              0.938
 Vibration     9          0.790              1.408              0.864
 Vibration    10          0.874              1.208              0.613

 Optimization completed.
    -- Stationary point found.
 Normal termination of Gaussian 09 at Tue Jan 28 00:37:10 2020.
