 Gaussian 09, Revision D.01,
 Gaussian 09:  ES64L-G09RevD.01 24-Apr-2013

 -----------------------------
 # b3lyp 6-31G(2df,p) opt Freq
 -----------------------------

 -----
 titel
 -----
 Symbolic Z-matrix:
 Charge =  0 Multiplicity = 1

 SCF Done:  E(RB3LYP) =  -423.158599184     A.U. after   14 cycles
 SCF Done:  E(RB3LYP) =  -423.158599139     A.U. after    7 cycles
 SCF Done:  E(RB3LYP) =  -423.158599205     A.U. after    7 cycles
 SCF Done:  E(RB3LYP) =  -423.158599204     A.U. after    7 cycles
 SCF Done:  E(RB3LYP) =  -423.158599171     A.U. after    6 cycles
 Optimization completed.
    -- Stationary point found.
 Normal termination of Gaussian 09 at Tue Jan 28 08:36:33 2020.

 ----------------------------------------------------------------------
 #N Geom=AllCheck Guess=TCheck SCRF=Check GenChk RB3LYP/6-31G(2df,p) Fr
 eq
 ----------------------------------------------------------------------

 Structure from the checkpoint file:  "/scratch/puck/g09_62a684bc-a3e5-4aaa-a620-c2aa91c041eb/Gau-8456.chk"
 -----
 titel
 -----
 Charge =  0 Multiplicity = 1

                         Standard orientation:
 ---------------------------------------------------------------------
 Center     Atomic      Atomic             Coordinates (Angstroms)
 Number     Number       Type             X           Y           Z
 ---------------------------------------------------------------------
      1          6           0        1.803702    1.858872    0.635902
      2          6           0        0.700264    1.540078   -0.379507
      3          6           0       -0.392224    0.612486    0.166773
      4          6           0       -1.651039    0.572513   -0.748657
      5          8           0       -2.768180   -0.004517   -0.122612
      6          6           0        0.013914   -0.838641    0.389839
      7          8           0       -0.706660   -1.604293    1.009032
      8          6           0        1.229364   -1.336040   -0.229036
      9          6           0        2.227933   -1.777965   -0.736782
     10          1           0        2.543508    2.540701    0.205939
     11          1           0        1.388121    2.337457    1.529255
     12          1           0        2.332591    0.955845    0.954890
     13          1           0        0.221434    2.475305   -0.692811
     14          1           0        1.139782    1.103506   -1.283686
     15          1           0       -0.743863    0.978830    1.139403
     16          1           0       -1.920840    1.603606   -1.001538
     17          1           0       -1.396797    0.061629   -1.693855
     18          1           0       -2.463947   -0.797152    0.342008
     19          1           0        3.107246   -2.177065   -1.182157
 ---------------------------------------------------------------------

 SCF Done:  E(RB3LYP) =  -423.158599171     A.U. after    2 cycles

 The electronic state is 1-A.
 Alpha  occ. eigenvalues --  -19.15401 -19.12626 -10.30312 -10.23627 -10.21913
 Alpha  occ. eigenvalues --  -10.21164 -10.20510 -10.19548 -10.18328  -1.06407
 Alpha  occ. eigenvalues --   -1.01163  -0.82270  -0.78083  -0.73320  -0.67028
 Alpha  occ. eigenvalues --   -0.63341  -0.60845  -0.54485  -0.51516  -0.48962
 Alpha  occ. eigenvalues --   -0.47289  -0.44412  -0.43575  -0.42076  -0.40884
 Alpha  occ. eigenvalues --   -0.38837  -0.37971  -0.35723  -0.34696  -0.32575
 Alpha  occ. eigenvalues --   -0.30796  -0.30423  -0.27063  -0.26148
 Alpha virt. eigenvalues --   -0.07384   0.02395   0.08575   0.09372   0.10092
 Alpha virt. eigenvalues --    0.11764   0.12504   0.12903   0.14110   0.15993
 Alpha virt. eigenvalues --    0.16774   0.17839   0.18806   0.20357   0.21957

 Mulliken charges:
               1
     1  C   -0.391450
     2  C   -0.209784
     3  C   -0.108888
     4  C   -0.057163
     5  O   -0.426837
     6  C    0.232757
     7  O   -0.315080
     8  C    0.298669
     9  C   -0.436687
    10  H    0.118228
    11  H    0.120189
    12  H    0.125101
    13  H    0.102088
    14  H    0.111087
    15  H    0.115666
    16  H    0.110833
    17  H    0.090759
    18  H    0.297753
    19  H    0.222758
 Sum of Mulliken charges =   0.00000

 Dipole moment (field-independent basis, Debye):
    X=              3.4133    Y=              1.0505    Z=             -1.3495  Tot=              3.8177
 Quadrupole moment (field-independent basis, Debye-Ang):
   XX=            -55.6731   YY=            -53.0470   ZZ=            -53.3448
   XY=             -3.6540   XZ=             -2.0926   YZ=              3.1138

  Exact polarizability:  94.563  -7.451  77.235  -9.238   1.100  64.671
 Approx polarizability: 145.233 -12.495 108.659 -27.948  -0.625 105.303

                      1                      2                      3
                      A                      A                      A
 Frequencies --     37.2956               109.0277               132.8985
 Red. masses --      6.5315                 2.6573                 3.2180
 Frc consts  --      0.0054                 0.0186                 0.0335
 IR Inten    --      1.3638                 0.5536                 2.9178

                      4                      5                      6
                      A                      A                      A
 Frequencies --    157.5485               184.5250               215.1199
 Red. masses --      2.2760                 2.3384                 4.3840
 Frc consts  --      0.0333                 0.0469                 0.1195
 IR Inten    --      1.9534                 0.3055                 3.2256

                      7                      8                      9
                      A                      A                      A
 Frequencies --    228.9892               263.7264               327.2658
 Red. masses --      1.6800                 3.2612                 2.8248
 Frc consts  --      0.0519                 0.1336                 0.1783
 IR Inten    --      4.1680                 1.4430                 4.6679

                     10                     11                     12
                      A                      A                      A
 Frequencies --    391.7195               419.3241               459.9207
 Red. masses --      4.3007                 4.3067                 1.1224
 Frc consts  --      0.3888                 0.4462                 0.1399
 IR Inten    --      0.7913                 5.9944                90.9539

                     13                     14                     15
                      A                      A                      A
 Frequencies --    525.6921               608.6974               648.3917
 Red. masses --      3.5220                 3.5431                 1.2857
 Frc consts  --      0.5735                 0.7735                 0.3185
 IR Inten    --     17.1947                 4.7040                39.4524

                     16                     17                     18
                      A                      A                      A
 Frequencies --    692.0878               715.6907               750.0786
 Red. masses --      5.6861                 1.3718                 3.1127
 Frc consts  --      1.6047                 0.4140                 1.0318
 IR Inten    --      2.6238                22.9182                13.5974

                     19                     20                     21
                      A                      A                      A
 Frequencies --    796.5259               929.8452               949.4091
 Red. masses --      1.2636                 1.6669                 2.2070
 Frc consts  --      0.4724                 0.8491                 1.1721
 IR Inten    --      8.1932                 3.0597                18.4532

                     22                     23                     24
                      A                      A                      A
 Frequencies --   1006.5352              1048.2544              1091.8232
 Red. masses --      2.4818                 1.8625                 3.4979
 Frc consts  --      1.4814                 1.2058                 2.4567
 IR Inten    --      9.3184                76.8450                72.3541

                     25                     26                     27
                      A                      A                      A
 Frequencies --   1104.2193              1145.7755              1192.4895
 Red. masses --      3.1053                 2.4389                 1.9951
 Frc consts  --      2.2308                 1.8864                 1.6716
 IR Inten    --     33.3352                17.9083                63.9887

                     28                     29                     30
                      A                      A                      A
 Frequencies --   1228.6198              1269.0188              1285.6136
 Red. masses --      1.4970                 1.2053                 1.2351
 Frc consts  --      1.3314                 1.1436                 1.2027
 IR Inten    --     48.9240                20.4098                 4.3180

                     31                     32                     33
                      A                      A                      A
 Frequencies --   1357.5623              1375.5427              1384.4685
 Red. masses --      1.2932                 1.3304                 1.4081
 Frc consts  --      1.4042                 1.4831                 1.5902
 IR Inten    --     13.8315                11.9745                 4.6361

                     34                     35                     36
                      A                      A                      A
 Frequencies --   1415.7612              1456.2516              1485.3547
 Red. masses --      1.2282                 1.2044                 1.0650
 Frc consts  --      1.4505                 1.5049                 1.3844
 IR Inten    --      4.1416               104.7877                 3.5486

                     37                     38                     39
                      A                      A                      A
 Frequencies --   1500.8248              1507.0570              1516.7502
 Red. masses --      1.0485                 1.0534                 1.0894
 Frc consts  --      1.3915                 1.4097                 1.4766
 IR Inten    --      3.5481                 3.2288                 0.4880

                     40                     41                     42
                      A                      A                      A
 Frequencies --   1721.4920              2207.1043              2951.7760
 Red. masses --     11.8513                 5.9227                 1.0710
 Frc consts  --     20.6931                16.9988                 5.4978
 IR Inten    --    150.0741                69.8031                53.0181

                     43                     44                     45
                      A                      A                      A
 Frequencies --   3033.1392              3037.2158              3040.7677
 Red. masses --      1.0622                 1.0395                 1.0780
 Frc consts  --      5.7577                 5.6496                 5.8729
 IR Inten    --     10.5447                18.0119                20.2221

                     46                     47                     48
                      A                      A                      A
 Frequencies --   3061.1527              3071.3922              3105.9576
 Red. masses --      1.0914                 1.0989                 1.1013
 Frc consts  --      6.0258                 6.1079                 6.2599
 IR Inten    --     18.5648                25.5276                31.6488

                     49                     50                     51
                      A                      A                      A
 Frequencies --   3113.3999              3491.3634              3728.6326
 Red. masses --      1.1015                 1.1617                 1.0658
 Frc consts  --      6.2907                 8.3432                 8.7299
 IR Inten    --     33.4345                55.3742                71.0024

 - Thermochemistry -
 -------------------
 Temperature   298.150 Kelvin.  Pressure   1.00000 Atm.
 Atom     1 has atomic number  6 and mass  12.00000

 Molecular mass:   126.06808 amu.
 Principal axes and moments of inertia in atomic units:
                           1         2         3
     Eigenvalues --   953.593181344.472901932.22994
           X            0.99881   0.04816   0.00811
           Y           -0.04832   0.99861   0.02107
           Z           -0.00709  -0.02144   0.99975
 This molecule is an asymmetric top.
 Rotational symmetry number  1.
 Warning -- assumption of classical behavior for rotation
           may cause significant error
 Rotational temperatures (Kelvin)      0.09083     0.06442     0.04483
 Rotational constants (GHZ):           1.89257     1.34234     0.93402
 Zero-point vibrational energy     409595.9 (Joules/Mol)
                                   97.89578 (Kcal/Mol)
 Warning -- explicit consideration of  14 degrees of freedom as
           vibrations may cause significant error
 Vibrational temperatures:     53.66   156.87   191.21   226.68   265.49
          (Kelvin)            309.51   329.46   379.44   470.86   563.60
                              603.31   661.72   756.35   875.78   932.89
                              995.76  1029.72  1079.19  1146.02  1337.84
                             1365.99  1448.18  1508.20  1570.89  1588.72
                             1648.51  1715.72  1767.71  1825.83  1849.71
                             1953.23  1979.10  1991.94  2036.96  2095.22
                             2137.09  2159.35  2168.32  2182.26  2476.84
                             3175.53  4246.94  4364.01  4369.87  4374.98
                             4404.31  4419.04  4468.77  4479.48  5023.29
                             5364.66

 Zero-point correction=                           0.156007 (Hartree/Particle)
 Thermal correction to Energy=                    0.166320
 Thermal correction to Enthalpy=                  0.167264
 Thermal correction to Gibbs Free Energy=         0.120253
 Sum of electronic and zero-point Energies=           -423.002592
 Sum of electronic and thermal Energies=              -422.992280
 Sum of electronic and thermal Enthalpies=            -422.991335
 Sum of electronic and thermal Free Energies=         -423.038346

                     E (Thermal)             CV                S
                      KCal/Mol        Cal/Mol-Kelvin    Cal/Mol-Kelvin
 Total                  104.367             36.956             98.942
 Electronic               0.000              0.000              0.000
 Translational            0.889              2.981             40.409
 Rotational               0.889              2.981             29.295
 Vibrational            102.590             30.995             29.238
 Vibration     1          0.594              1.982              5.398
 Vibration     2          0.606              1.942              3.286
 Vibration     3          0.613              1.920              2.904
 Vibration     4          0.621              1.894              2.579
 Vibration     5          0.631              1.861              2.282
 Vibration     6          0.645              1.818              2.000
 Vibration     7          0.652              1.797              1.887
 Vibration     8          0.670              1.739              1.637
 Vibration     9          0.711              1.621              1.274
 Vibration    10          0.759              1.488              0.994
 Vibration    11          0.782              1.428              0.894
 Vibration    12          0.818              1.339              0.766
 Vibration    13          0.881              1.193              0.597
 Vibration    14          0.968              1.013              0.435

 Optimization completed.
    -- Stationary point found.
 Normal termination of Gaussian 09 at Tue Jan 28 09:19:22 2020.
