 Gaussian 09, Revision D.01,
 Gaussian 09:  ES64L-G09RevD.01 24-Apr-2013

 -----------------------------
 # b3lyp 6-31G(2df,p) opt Freq
 -----------------------------

 -----
 titel
 -----
 Symbolic Z-matrix:
 Charge =  0 Multiplicity = 1

 SCF Done:  E(RB3LYP) =  -423.148337400     A.U. after   13 cycles
 Optimization completed.
    -- Stationary point found.
 Normal termination of Gaussian 09 at Tue Jan 28 00:03:16 2020.

 ----------------------------------------------------------------------
 #N Geom=AllCheck Guess=TCheck SCRF=Check GenChk RB3LYP/6-31G(2df,p) Fr
 eq
 ----------------------------------------------------------------------

 Structure from the checkpoint file:  "/scratch/puck/g09_f8475553-a2c7-4945-bb90-cfc2f2c1f1b6/Gau-31932.chk"
 -----
 titel
 -----
 Charge =  0 Multiplicity = 1

                         Standard orientation:
 ---------------------------------------------------------------------
 Center     Atomic      Atomic             Coordinates (Angstroms)
 Number     Number       Type             X           Y           Z
 ---------------------------------------------------------------------
      1          8           0        2.548836   -0.159781   -0.171457
      2          6           0        1.253645    0.349096   -0.435036
      3          6           0        0.411268    0.560201    0.860761
      4          8           0       -0.697449    1.412507    0.625334
      5          6           0       -1.363983    1.061222   -0.592667
      6          6           0       -1.199114   -0.436665   -0.842045
      7          6           0       -1.481263   -1.169615    0.502126
      8          6           0        0.008693   -0.971183    0.807809
      9          6           0        0.327161   -0.839816   -0.717149
     10          1           0        3.068457    0.547497    0.225147
     11          1           0        1.289920    1.189720   -1.142073
     12          1           0        0.924199    0.932227    1.750770
     13          1           0       -2.419328    1.324233   -0.460381
     14          1           0       -0.970974    1.654118   -1.431122
     15          1           0       -1.731549   -0.755881   -1.740200
     16          1           0       -2.220861   -0.719456    1.171174
     17          1           0       -1.714759   -2.227949    0.356590
     18          1           0        0.552649   -1.627621    1.485695
     19          1           0        0.672700   -1.658126   -1.349420
 ---------------------------------------------------------------------

 SCF Done:  E(RB3LYP) =  -423.148337400     A.U. after    1 cycles

 The electronic state is 1-A.
 Alpha  occ. eigenvalues --  -19.13909 -19.13829 -10.22832 -10.22652 -10.22608
 Alpha  occ. eigenvalues --  -10.19339 -10.18496 -10.18207 -10.17859  -1.03848
 Alpha  occ. eigenvalues --   -1.01821  -0.86350  -0.76550  -0.70491  -0.62251
 Alpha  occ. eigenvalues --   -0.61627  -0.60091  -0.52890  -0.50867  -0.49047
 Alpha  occ. eigenvalues --   -0.46527  -0.45266  -0.45001  -0.41357  -0.38804
 Alpha  occ. eigenvalues --   -0.37645  -0.36656  -0.35392  -0.32717  -0.30085
 Alpha  occ. eigenvalues --   -0.29561  -0.28328  -0.26370  -0.23100
 Alpha virt. eigenvalues --    0.07168   0.08900   0.09958   0.12412   0.12988
 Alpha virt. eigenvalues --    0.14019   0.14516   0.15250   0.16302   0.17824
 Alpha virt. eigenvalues --    0.18659   0.19957   0.20419   0.21002   0.21490

 Mulliken charges:
               1
     1  O   -0.447143
     2  C    0.099022
     3  C    0.058319
     4  O   -0.272025
     5  C   -0.086764
     6  C   -0.073984
     7  C   -0.234995
     8  C   -0.033674
     9  C   -0.038832
    10  H    0.282274
    11  H    0.063346
    12  H    0.072441
    13  H    0.106105
    14  H    0.096270
    15  H    0.069999
    16  H    0.100332
    17  H    0.098187
    18  H    0.070650
    19  H    0.070474
 Sum of Mulliken charges =   0.00000

 Dipole moment (field-independent basis, Debye):
    X=             -0.0863    Y=              0.1516    Z=             -0.4437  Tot=              0.4767
 Quadrupole moment (field-independent basis, Debye-Ang):
   XX=            -51.3615   YY=            -54.2118   ZZ=            -52.3793
   XY=              4.8869   XZ=              3.7992   YZ=             -1.2900

  Exact polarizability:  81.369   1.757  70.952   3.059  -1.637  68.394
 Approx polarizability: 111.921  -0.234 105.440   3.647   0.235 105.458

                      1                      2                      3
                      A                      A                      A
 Frequencies --    196.3594               283.1827               303.6616
 Red. masses --      3.6298                 2.0536                 2.4120
 Frc consts  --      0.0825                 0.0970                 0.1310
 IR Inten    --      0.8431                12.4531                39.2856

                      4                      5                      6
                      A                      A                      A
 Frequencies --    317.6326               365.2287               379.3116
 Red. masses --      1.7701                 2.5257                 2.5216
 Frc consts  --      0.1052                 0.1985                 0.2138
 IR Inten    --     66.1659                 0.3385                 1.4822

                      7                      8                      9
                      A                      A                      A
 Frequencies --    484.8503               551.0768               615.5159
 Red. masses --      4.2417                 4.8172                 3.9689
 Frc consts  --      0.5875                 0.8619                 0.8859
 IR Inten    --      3.2860                 1.0166                 0.6506

                     10                     11                     12
                      A                      A                      A
 Frequencies --    731.0272               791.2093               830.9928
 Red. masses --      3.5637                 2.6320                 2.4267
 Frc consts  --      1.1221                 0.9708                 0.9873
 IR Inten    --      9.1080                 1.2993                 5.2598

                     13                     14                     15
                      A                      A                      A
 Frequencies --    839.6189               879.7364               918.4620
 Red. masses --      2.2387                 2.3813                 2.1040
 Frc consts  --      0.9298                 1.0858                 1.0457
 IR Inten    --      0.7677                 9.4423                 4.2530

                     16                     17                     18
                      A                      A                      A
 Frequencies --    924.0267               959.9332               974.7636
 Red. masses --      2.5454                 1.8286                 2.1127
 Frc consts  --      1.2805                 0.9928                 1.1828
 IR Inten    --     21.3399                 9.1829                 1.4083

                     19                     20                     21
                      A                      A                      A
 Frequencies --    988.9499              1030.9814              1045.8719
 Red. masses --      2.2064                 2.2859                 2.0300
 Frc consts  --      1.2714                 1.4315                 1.3083
 IR Inten    --      3.6256                59.6935                13.8007

                     22                     23                     24
                      A                      A                      A
 Frequencies --   1049.9253              1080.6387              1118.3969
 Red. masses --      1.9054                 1.8853                 2.1307
 Frc consts  --      1.2375                 1.2972                 1.5703
 IR Inten    --      5.2948                 1.4460                 4.9205

                     25                     26                     27
                      A                      A                      A
 Frequencies --   1128.9851              1144.5272              1182.9889
 Red. masses --      3.0429                 1.8197                 1.6318
 Frc consts  --      2.2852                 1.4044                 1.3455
 IR Inten    --     69.7001                14.4606                 3.7870

                     28                     29                     30
                      A                      A                      A
 Frequencies --   1198.5530              1212.9710              1230.5631
 Red. masses --      1.3466                 1.4498                 1.2730
 Frc consts  --      1.1397                 1.2568                 1.1357
 IR Inten    --     42.8110                 1.0204                17.6701

                     31                     32                     33
                      A                      A                      A
 Frequencies --   1248.8123              1269.6218              1285.6129
 Red. masses --      1.6587                 1.3652                 1.6213
 Frc consts  --      1.5241                 1.2966                 1.5788
 IR Inten    --      1.0725                 1.7444                 3.1814

                     34                     35                     36
                      A                      A                      A
 Frequencies --   1302.4851              1311.9037              1325.3400
 Red. masses --      1.5163                 1.2914                 1.7567
 Frc consts  --      1.5156                 1.3095                 1.8180
 IR Inten    --      0.9548                18.0148                 2.9006

                     37                     38                     39
                      A                      A                      A
 Frequencies --   1341.2615              1395.6477              1425.9822
 Red. masses --      1.4765                 1.3650                 1.4894
 Frc consts  --      1.5650                 1.5665                 1.7844
 IR Inten    --     13.2373                 2.1763                 8.7500

                     40                     41                     42
                      A                      A                      A
 Frequencies --   1483.0794              1518.4532              2989.2938
 Red. masses --      1.1181                 1.0878                 1.0747
 Frc consts  --      1.4490                 1.4778                 5.6580
 IR Inten    --      1.3135                 0.2939                 2.6749

                     43                     44                     45
                      A                      A                      A
 Frequencies --   3007.3652              3048.3577              3061.2228
 Red. masses --      1.0765                 1.0571                 1.0970
 Frc consts  --      5.7361                 5.7875                 6.0567
 IR Inten    --    128.2907                36.7496                38.1629

                     46                     47                     48
                      A                      A                      A
 Frequencies --   3084.2255              3088.4402              3103.3136
 Red. masses --      1.0894                 1.0892                 1.1072
 Frc consts  --      6.1057                 6.1214                 6.2827
 IR Inten    --     58.0386                21.6569                18.7662

                     49                     50                     51
                      A                      A                      A
 Frequencies --   3108.8836              3121.0821              3806.6527
 Red. masses --      1.0877                 1.0916                 1.0661
 Frc consts  --      6.1939                 6.2648                 9.1021
 IR Inten    --     50.5109                36.3680                19.4971

 - Thermochemistry -
 -------------------
 Temperature   298.150 Kelvin.  Pressure   1.00000 Atm.
 Atom     1 has atomic number  8 and mass  15.99491

 Molecular mass:   126.06808 amu.
 Principal axes and moments of inertia in atomic units:
                           1         2         3
     Eigenvalues --   610.656291047.190231209.79702
           X            0.99928   0.03403   0.01660
           Y           -0.03288   0.99732  -0.06530
           Z           -0.01877   0.06471   0.99773
 This molecule is an asymmetric top.
 Rotational symmetry number  1.
 Warning -- assumption of classical behavior for rotation
           may cause significant error
 Rotational temperatures (Kelvin)      0.14184     0.08271     0.07159
 Rotational constants (GHZ):           2.95541     1.72341     1.49177
 Zero-point vibrational energy     425194.6 (Joules/Mol)
                                  101.62394 (Kcal/Mol)
 Warning -- explicit consideration of   9 degrees of freedom as
           vibrations may cause significant error
 Vibrational temperatures:    282.52   407.44   436.90   457.00   525.48
          (Kelvin)            545.74   697.59   792.88   885.59  1051.78
                             1138.37  1195.61  1208.02  1265.74  1321.46
                             1329.47  1381.13  1402.47  1422.88  1483.35
                             1504.77  1510.61  1554.80  1609.12  1624.36
                             1646.72  1702.06  1724.45  1745.19  1770.50
                             1796.76  1826.70  1849.71  1873.98  1887.53
                             1906.87  1929.77  2008.02  2051.67  2133.82
                             2184.71  4300.92  4326.92  4385.90  4404.41
                             4437.51  4443.57  4464.97  4472.98  4490.54
                             5476.92

 Zero-point correction=                           0.161948 (Hartree/Particle)
 Thermal correction to Energy=                    0.168809
 Thermal correction to Enthalpy=                  0.169754
 Thermal correction to Gibbs Free Energy=         0.131172
 Sum of electronic and zero-point Energies=           -422.986389
 Sum of electronic and thermal Energies=              -422.979528
 Sum of electronic and thermal Enthalpies=            -422.978584
 Sum of electronic and thermal Free Energies=         -423.017165

                     E (Thermal)             CV                S
                      KCal/Mol        Cal/Mol-Kelvin    Cal/Mol-Kelvin
 Total                  105.930             28.881             81.201
 Electronic               0.000              0.000              0.000
 Translational            0.889              2.981             40.409
 Rotational               0.889              2.981             28.139
 Vibrational            104.152             22.919             12.654
 Vibration     1          0.636              1.845              2.167
 Vibration     2          0.682              1.705              1.514
 Vibration     3          0.695              1.667              1.397
 Vibration     4          0.704              1.640              1.322
 Vibration     5          0.738              1.544              1.100
 Vibration     6          0.749              1.514              1.042
 Vibration     7          0.841              1.284              0.697
 Vibration     8          0.906              1.137              0.542
 Vibration     9          0.975              0.999              0.424

 Optimization completed.
    -- Stationary point found.
 Normal termination of Gaussian 09 at Tue Jan 28 00:54:14 2020.
