 Gaussian 09, Revision D.01,
 Gaussian 09:  ES64L-G09RevD.01 24-Apr-2013

 -----------------------------
 # b3lyp 6-31G(2df,p) opt Freq
 -----------------------------

 -----
 titel
 -----
 Symbolic Z-matrix:
 Charge =  0 Multiplicity = 1

 SCF Done:  E(RB3LYP) =  -423.171018628     A.U. after   14 cycles
 Optimization completed.
    -- Stationary point found.
 Normal termination of Gaussian 09 at Mon Jan 27 23:05:52 2020.

 ----------------------------------------------------------------------
 #N Geom=AllCheck Guess=TCheck SCRF=Check GenChk RB3LYP/6-31G(2df,p) Fr
 eq
 ----------------------------------------------------------------------

 Structure from the checkpoint file:  "/scratch/puck/g09_a777f54b-b438-4941-8f72-d60c73d9f44c/Gau-48979.chk"
 -----
 titel
 -----
 Charge =  0 Multiplicity = 1

                         Standard orientation:
 ---------------------------------------------------------------------
 Center     Atomic      Atomic             Coordinates (Angstroms)
 Number     Number       Type             X           Y           Z
 ---------------------------------------------------------------------
      1          6           0        2.504690   -0.475307    0.186158
      2          6           0        1.040563   -0.278268   -0.095833
      3          8           0        0.340240   -1.434592   -0.612516
      4          6           0       -0.054800   -0.903419    0.665408
      5          6           0       -1.351460   -0.099864    0.527571
      6          8           0       -2.347462   -0.848452   -0.142443
      7          6           0       -0.921198    1.143346   -0.258139
      8          6           0        0.122504    2.039972    0.357561
      9          6           0        0.528658    1.012814   -0.671875
     10          1           0        2.879375    0.316297    0.842846
     11          1           0        2.682709   -1.443715    0.659660
     12          1           0        3.081973   -0.439319   -0.744062
     13          1           0        0.109796   -1.565208    1.512081
     14          1           0       -1.771958    0.157175    1.505855
     15          1           0       -1.894877   -1.267508   -0.886962
     16          1           0       -1.660630    1.576677   -0.920998
     17          1           0        0.126693    3.081724    0.056757
     18          1           0        0.406667    1.875923    1.393544
     19          1           0        0.884298    1.336664   -1.644153
 ---------------------------------------------------------------------

 SCF Done:  E(RB3LYP) =  -423.171018628     A.U. after    1 cycles

 The electronic state is 1-A.
 Alpha  occ. eigenvalues --  -19.15261 -19.12776 -10.24663 -10.23472 -10.23291
 Alpha  occ. eigenvalues --  -10.19662 -10.19427 -10.19130 -10.18757  -1.07471
 Alpha  occ. eigenvalues --   -1.01026  -0.87489  -0.75169  -0.72115  -0.64929
 Alpha  occ. eigenvalues --   -0.62500  -0.57382  -0.55820  -0.52911  -0.48328
 Alpha  occ. eigenvalues --   -0.47573  -0.44714  -0.42639  -0.41802  -0.41532
 Alpha  occ. eigenvalues --   -0.39342  -0.37401  -0.36332  -0.33535  -0.32073
 Alpha  occ. eigenvalues --   -0.29006  -0.28652  -0.27905  -0.25028
 Alpha virt. eigenvalues --    0.07867   0.08870   0.10154   0.10477   0.12225
 Alpha virt. eigenvalues --    0.12959   0.13664   0.15231   0.16273   0.17041
 Alpha virt. eigenvalues --    0.17553   0.18572   0.19735   0.21382   0.22697

 Mulliken charges:
               1
     1  C   -0.483703
     2  C    0.428383
     3  O   -0.315828
     4  C   -0.083598
     5  C    0.113475
     6  O   -0.439513
     7  C   -0.071788
     8  C   -0.303739
     9  C   -0.116337
    10  H    0.127638
    11  H    0.130907
    12  H    0.129785
    13  H    0.094955
    14  H    0.085862
    15  H    0.288945
    16  H    0.096173
    17  H    0.117256
    18  H    0.110004
    19  H    0.091123
 Sum of Mulliken charges =   0.00000

 Dipole moment (field-independent basis, Debye):
    X=              1.9567    Y=              1.5009    Z=              0.6164  Tot=              2.5419
 Quadrupole moment (field-independent basis, Debye-Ang):
   XX=            -57.0224   YY=            -53.4210   ZZ=            -50.3420
   XY=             -1.2306   XZ=              0.9763   YZ=             -1.8729

  Exact polarizability:  80.881   1.083  75.209  -1.541  -1.046  65.213
 Approx polarizability: 112.429   4.899 108.758  -4.451   3.679 105.237

                      1                      2                      3
                      A                      A                      A
 Frequencies --    141.4257               193.9055               201.4588
 Red. masses --      3.5585                 1.4474                 1.8008
 Frc consts  --      0.0419                 0.0321                 0.0431
 IR Inten    --      2.2577                 0.3432                 0.5342

                      4                      5                      6
                      A                      A                      A
 Frequencies --    266.3266               289.2694               371.2120
 Red. masses --      2.7830                 2.8779                 3.3078
 Frc consts  --      0.1163                 0.1419                 0.2686
 IR Inten    --      1.6026                 1.2448                 4.3068

                      7                      8                      9
                      A                      A                      A
 Frequencies --    422.7215               468.2255               503.2680
 Red. masses --      3.9661                 1.5141                 2.3710
 Frc consts  --      0.4176                 0.1956                 0.3538
 IR Inten    --      3.1183                32.3139                62.1086

                     10                     11                     12
                      A                      A                      A
 Frequencies --    567.1565               579.3823               710.2965
 Red. masses --      3.7417                 4.4104                 3.2342
 Frc consts  --      0.7091                 0.8723                 0.9614
 IR Inten    --      3.7749                 2.8116                 0.9717

                     13                     14                     15
                      A                      A                      A
 Frequencies --    772.1223               813.6257               832.3449
 Red. masses --      2.4827                 2.1873                 2.2348
 Frc consts  --      0.8721                 0.8531                 0.9122
 IR Inten    --     15.8638                19.7311                15.7251

                     16                     17                     18
                      A                      A                      A
 Frequencies --    850.6160               887.1646               919.8682
 Red. masses --      2.4237                 2.4461                 1.8878
 Frc consts  --      1.0332                 1.1343                 0.9412
 IR Inten    --      3.3778                22.0123                 2.8273

                     19                     20                     21
                      A                      A                      A
 Frequencies --    953.9289               999.7695              1032.8745
 Red. masses --      2.7647                 2.6474                 1.7107
 Frc consts  --      1.4823                 1.5591                 1.0753
 IR Inten    --      1.0286                 1.4706                 3.0057

                     22                     23                     24
                      A                      A                      A
 Frequencies --   1050.7223              1058.5611              1071.2182
 Red. masses --      1.7331                 2.0395                 1.4447
 Frc consts  --      1.1273                 1.3465                 0.9768
 IR Inten    --     17.4499                63.3598                 4.3623

                     25                     26                     27
                      A                      A                      A
 Frequencies --   1096.1355              1104.6402              1114.0032
 Red. masses --      1.4331                 1.8565                 1.3408
 Frc consts  --      1.0145                 1.3347                 0.9803
 IR Inten    --      6.7407                20.3489                 9.0383

                     28                     29                     30
                      A                      A                      A
 Frequencies --   1125.6092              1185.9617              1235.0885
 Red. masses --      1.9119                 1.5317                 2.0216
 Frc consts  --      1.4272                 1.2693                 1.8170
 IR Inten    --     37.0838                 2.3934                13.5898

                     31                     32                     33
                      A                      A                      A
 Frequencies --   1267.0950              1286.9104              1308.4132
 Red. masses --      1.5738                 1.3142                 1.5572
 Frc consts  --      1.4887                 1.2823                 1.5706
 IR Inten    --     17.0178                 3.7078                 3.6816

                     34                     35                     36
                      A                      A                      A
 Frequencies --   1345.1246              1378.9315              1410.1176
 Red. masses --      1.9062                 2.6663                 1.3180
 Frc consts  --      2.0321                 2.9870                 1.5441
 IR Inten    --      3.2714                 9.9679                 5.4073

                     37                     38                     39
                      A                      A                      A
 Frequencies --   1439.9041              1442.4874              1482.6039
 Red. masses --      1.2696                 2.7142                 1.1220
 Frc consts  --      1.5509                 3.3275                 1.4531
 IR Inten    --    102.6850                 8.4859                 0.7035

                     40                     41                     42
                      A                      A                      A
 Frequencies --   1489.6514              1496.6596              3038.6896
 Red. masses --      1.2188                 1.1393                 1.0361
 Frc consts  --      1.5935                 1.5036                 5.6366
 IR Inten    --     10.0853                 1.3036                19.4179

                     43                     44                     45
                      A                      A                      A
 Frequencies --   3054.8383              3101.8262              3120.7251
 Red. masses --      1.0853                 1.1001                 1.0558
 Frc consts  --      5.9675                 6.2364                 6.0581
 IR Inten    --     32.8979                14.0563                14.1828

                     46                     47                     48
                      A                      A                      A
 Frequencies --   3126.6938              3146.9351              3166.6058
 Red. masses --      1.1015                 1.0913                 1.0898
 Frc consts  --      6.3449                 6.3676                 6.4386
 IR Inten    --     13.1460                25.5969                11.8869

                     49                     50                     51
                      A                      A                      A
 Frequencies --   3185.9132              3210.4951              3758.3907
 Red. masses --      1.0934                 1.1130                 1.0650
 Frc consts  --      6.5391                 6.7588                 8.8634
 IR Inten    --      6.0407                12.9501                24.1757

 - Thermochemistry -
 -------------------
 Temperature   298.150 Kelvin.  Pressure   1.00000 Atm.
 Atom     1 has atomic number  6 and mass  12.00000

 Molecular mass:   126.06808 amu.
 Principal axes and moments of inertia in atomic units:
                           1         2         3
     Eigenvalues --   698.266991019.104191461.59281
           X            0.99959  -0.02729   0.00856
           Y            0.02744   0.99947  -0.01754
           Z           -0.00807   0.01777   0.99981
 This molecule is an asymmetric top.
 Rotational symmetry number  1.
 Warning -- assumption of classical behavior for rotation
           may cause significant error
 Rotational temperatures (Kelvin)      0.12404     0.08499     0.05926
 Rotational constants (GHZ):           2.58460     1.77091     1.23478
 Zero-point vibrational energy     419159.0 (Joules/Mol)
                                  100.18141 (Kcal/Mol)
 Warning -- explicit consideration of  11 degrees of freedom as
           vibrations may cause significant error
 Vibrational temperatures:    203.48   278.99   289.85   383.18   416.19
          (Kelvin)            534.09   608.20   673.67   724.09   816.01
                              833.60  1021.96  1110.91  1170.62  1197.56
                             1223.85  1276.43  1323.48  1372.49  1438.44
                             1486.07  1511.75  1523.03  1541.24  1577.09
                             1589.33  1602.80  1619.50  1706.33  1777.01
                             1823.06  1851.57  1882.51  1935.33  1983.97
                             2028.84  2071.70  2075.42  2133.13  2143.27
                             2153.36  4371.99  4395.23  4462.83  4490.02
                             4498.61  4527.73  4556.03  4583.81  4619.18
                             5407.48

 Zero-point correction=                           0.159649 (Hartree/Particle)
 Thermal correction to Energy=                    0.167542
 Thermal correction to Enthalpy=                  0.168486
 Thermal correction to Gibbs Free Energy=         0.127734
 Sum of electronic and zero-point Energies=           -423.011369
 Sum of electronic and thermal Energies=              -423.003476
 Sum of electronic and thermal Enthalpies=            -423.002532
 Sum of electronic and thermal Free Energies=         -423.043285

                     E (Thermal)             CV                S
                      KCal/Mol        Cal/Mol-Kelvin    Cal/Mol-Kelvin
 Total                  105.134             31.786             85.771
 Electronic               0.000              0.000              0.000
 Translational            0.889              2.981             40.409
 Rotational               0.889              2.981             28.433
 Vibrational            103.357             25.824             16.930
 Vibration     1          0.615              1.912              2.785
 Vibration     2          0.635              1.848              2.190
 Vibration     3          0.638              1.838              2.120
 Vibration     4          0.672              1.735              1.620
 Vibration     5          0.686              1.694              1.478
 Vibration     6          0.743              1.531              1.075
 Vibration     7          0.785              1.421              0.883
 Vibration     8          0.825              1.321              0.743
 Vibration     9          0.859              1.243              0.650
 Vibration    10          0.923              1.102              0.510
 Vibration    11          0.936              1.076              0.487

 Optimization completed.
    -- Stationary point found.
 Normal termination of Gaussian 09 at Mon Jan 27 23:56:44 2020.
