 Gaussian 09, Revision D.01,
 Gaussian 09:  ES64L-G09RevD.01 24-Apr-2013

 -----------------------------
 # b3lyp 6-31G(2df,p) opt Freq
 -----------------------------

 -----
 titel
 -----
 Symbolic Z-matrix:
 Charge =  0 Multiplicity = 1

 SCF Done:  E(RB3LYP) =  -423.176463033     A.U. after   12 cycles
 Optimization completed.
    -- Stationary point found.
 Normal termination of Gaussian 09 at Mon Jan 27 18:58:07 2020.

 ----------------------------------------------------------------------
 #N Geom=AllCheck Guess=TCheck SCRF=Check GenChk RB3LYP/6-31G(2df,p) Fr
 eq
 ----------------------------------------------------------------------

 Structure from the checkpoint file:  "/scratch/puck/g09_4ae8f3f4-6794-432d-8b46-16dbe48421b9/Gau-172823.chk"
 -----
 titel
 -----
 Charge =  0 Multiplicity = 1

                         Standard orientation:
 ---------------------------------------------------------------------
 Center     Atomic      Atomic             Coordinates (Angstroms)
 Number     Number       Type             X           Y           Z
 ---------------------------------------------------------------------
      1          8           0        0.085427    2.089250    0.000104
      2          6           0        0.336511    0.724650    0.000027
      3          6           0        1.820676    0.369363    0.000006
      4          8           0        1.739363   -1.066349   -0.000032
      5          6           0        0.328014   -1.277439   -0.000046
      6          6           0       -0.268462   -0.289200   -1.041389
      7          6           0       -1.775119   -0.273641   -0.782314
      8          6           0       -1.775101   -0.273646    0.782362
      9          6           0       -0.268448   -0.289306    1.041391
     10          1           0       -0.866517    2.232934   -0.000772
     11          1           0        2.345657    0.728550   -0.892857
     12          1           0        2.345684    0.728503    0.892871
     13          1           0        0.099216   -2.342368   -0.000121
     14          1           0        0.086933   -0.302168   -2.072800
     15          1           0       -2.261236    0.611529   -1.208047
     16          1           0       -2.281156   -1.147111   -1.203158
     17          1           0       -2.261052    0.611625    1.208074
     18          1           0       -2.281264   -1.147025    1.203231
     19          1           0        0.086987   -0.302367    2.072786
 ---------------------------------------------------------------------

 SCF Done:  E(RB3LYP) =  -423.176463033     A.U. after    1 cycles

 The electronic state is 1-A.
 Alpha  occ. eigenvalues --  -19.15190 -19.13350 -10.24207 -10.23285 -10.22118
 Alpha  occ. eigenvalues --  -10.19038 -10.19020 -10.18640 -10.18638  -1.04979
 Alpha  occ. eigenvalues --   -1.02825  -0.87102  -0.73832  -0.70862  -0.69937
 Alpha  occ. eigenvalues --   -0.57751  -0.57495  -0.57337  -0.51870  -0.49982
 Alpha  occ. eigenvalues --   -0.47202  -0.44538  -0.41202  -0.41166  -0.40679
 Alpha  occ. eigenvalues --   -0.36759  -0.35459  -0.35436  -0.34411  -0.34117
 Alpha  occ. eigenvalues --   -0.34011  -0.28852  -0.26238  -0.23153
 Alpha virt. eigenvalues --    0.04993   0.11101   0.11462   0.12053   0.13633
 Alpha virt. eigenvalues --    0.13654   0.14957   0.15650   0.16970   0.17643
 Alpha virt. eigenvalues --    0.17762   0.18692   0.20930   0.20996   0.23752

 Mulliken charges:
               1
     1  O   -0.487862
     2  C    0.367729
     3  C   -0.120497
     4  O   -0.283320
     5  C    0.114815
     6  C   -0.096115
     7  C   -0.256827
     8  C   -0.256800
     9  C   -0.096087
    10  H    0.287566
    11  H    0.104596
    12  H    0.104604
    13  H    0.082484
    14  H    0.067978
    15  H    0.093859
    16  H    0.106015
    17  H    0.093879
    18  H    0.106005
    19  H    0.067978
 Sum of Mulliken charges =   0.00000

 Dipole moment (field-independent basis, Debye):
    X=             -2.3239    Y=              0.2004    Z=             -0.0013  Tot=              2.3325
 Quadrupole moment (field-independent basis, Debye-Ang):
   XX=            -53.5813   YY=            -55.0082   ZZ=            -52.4373
   XY=              0.6911   XZ=              0.0016   YZ=             -0.0032

  Exact polarizability:  81.201   2.857  70.527   0.001  -0.001  68.077
 Approx polarizability: 112.170   1.819 109.899   0.003  -0.001 102.837

                      1                      2                      3
                      A                      A                      A
 Frequencies --    215.5343               229.1773               235.7254
 Red. masses --      1.2319                 1.5839                 3.4899
 Frc consts  --      0.0337                 0.0490                 0.1143
 IR Inten    --     43.4682                32.4423                 1.4164

                      4                      5                      6
                      A                      A                      A
 Frequencies --    286.4895               371.5631               404.5221
 Red. masses --      2.2572                 4.0376                 3.5558
 Frc consts  --      0.1092                 0.3284                 0.3428
 IR Inten    --     15.1051                 0.5752                 6.2826

                      7                      8                      9
                      A                      A                      A
 Frequencies --    425.6971               606.1624               649.8052
 Red. masses --      3.0645                 4.7079                 5.0038
 Frc consts  --      0.3272                 1.0192                 1.2448
 IR Inten    --      4.9151                 0.4895                 1.5778

                     10                     11                     12
                      A                      A                      A
 Frequencies --    680.6917               705.0254               767.5882
 Red. masses --      3.9375                 4.2744                 3.6627
 Frc consts  --      1.0749                 1.2518                 1.2715
 IR Inten    --      3.4237                 3.1141                 1.1774

                     13                     14                     15
                      A                      A                      A
 Frequencies --    832.5418               908.6539               910.4070
 Red. masses --      1.2576                 3.1468                 2.1199
 Frc consts  --      0.5136                 1.5308                 1.0352
 IR Inten    --      2.4299                 2.4819                 6.0510

                     16                     17                     18
                      A                      A                      A
 Frequencies --    946.4865               951.7225               967.9471
 Red. masses --      2.7049                 3.2987                 1.4288
 Frc consts  --      1.4277                 1.7604                 0.7887
 IR Inten    --     23.1077                10.8436                 0.2609

                     19                     20                     21
                      A                      A                      A
 Frequencies --   1003.7806              1013.5801              1021.4244
 Red. masses --      1.2434                 3.6824                 2.2516
 Frc consts  --      0.7381                 2.2289                 1.3841
 IR Inten    --      0.5058                 5.9147                 6.0721

                     22                     23                     24
                      A                      A                      A
 Frequencies --   1042.1842              1063.4705              1096.1556
 Red. masses --      3.1201                 2.2695                 1.8408
 Frc consts  --      1.9967                 1.5123                 1.3032
 IR Inten    --     90.6892                22.3966                 0.7293

                     25                     26                     27
                      A                      A                      A
 Frequencies --   1119.5909              1145.4492              1186.2910
 Red. masses --      1.2211                 1.7104                 1.2298
 Frc consts  --      0.9018                 1.3222                 1.0197
 IR Inten    --     17.1982                 0.0174                 1.6436

                     28                     29                     30
                      A                      A                      A
 Frequencies --   1208.1814              1221.8115              1237.4697
 Red. masses --      1.6365                 1.9422                 1.9917
 Frc consts  --      1.4074                 1.7082                 1.7970
 IR Inten    --      1.0571                35.3948                18.3824

                     31                     32                     33
                      A                      A                      A
 Frequencies --   1252.3897              1263.8609              1269.4028
 Red. masses --      1.1580                 1.8307                 1.6257
 Frc consts  --      1.0702                 1.7229                 1.5435
 IR Inten    --      0.0269                 0.0125                23.3777

                     34                     35                     36
                      A                      A                      A
 Frequencies --   1296.2838              1318.4121              1334.9570
 Red. masses --      1.7511                 1.5645                 1.4026
 Frc consts  --      1.7336                 1.6022                 1.4727
 IR Inten    --    119.6261                 0.3949                 6.1868

                     37                     38                     39
                      A                      A                      A
 Frequencies --   1395.0266              1405.9450              1500.0576
 Red. masses --      1.8263                 2.1701                 1.0788
 Frc consts  --      2.0941                 2.5274                 1.4302
 IR Inten    --     36.4135                 0.7443                 0.3184

                     40                     41                     42
                      A                      A                      A
 Frequencies --   1520.1256              1529.5743              3025.3546
 Red. masses --      1.1042                 1.1040                 1.0557
 Frc consts  --      1.5034                 1.5218                 5.6928
 IR Inten    --      1.8468                 1.1383                69.6687

                     43                     44                     45
                      A                      A                      A
 Frequencies --   3032.3647              3044.4173              3066.3593
 Red. masses --      1.0656                 1.0638                 1.1104
 Frc consts  --      5.7732                 5.8090                 6.1516
 IR Inten    --     29.4866                59.6838                29.1030

                     46                     47                     48
                      A                      A                      A
 Frequencies --   3074.2261              3092.3988              3108.4143
 Red. masses --      1.0993                 1.1012                 1.0876
 Frc consts  --      6.1211                 6.2047                 6.1916
 IR Inten    --      2.8691                44.0255                64.9211

                     49                     50                     51
                      A                      A                      A
 Frequencies --   3111.2262              3134.0765              3814.5344
 Red. masses --      1.0887                 1.0930                 1.0658
 Frc consts  --      6.2092                 6.3252                 9.1367
 IR Inten    --      5.9023                31.1272                14.3277

 - Thermochemistry -
 -------------------
 Temperature   298.150 Kelvin.  Pressure   1.00000 Atm.
 Atom     1 has atomic number  8 and mass  15.99491

 Molecular mass:   126.06808 amu.
 Principal axes and moments of inertia in atomic units:
                           1         2         3
     Eigenvalues --   682.74864 920.645391197.40797
           X            0.99850   0.05474   0.00000
           Y           -0.05474   0.99850  -0.00002
           Z           -0.00001   0.00002   1.00000
 This molecule is an asymmetric top.
 Rotational symmetry number  1.
 Warning -- assumption of classical behavior for rotation
           may cause significant error
 Rotational temperatures (Kelvin)      0.12686     0.09408     0.07233
 Rotational constants (GHZ):           2.64335     1.96030     1.50721
 Zero-point vibrational energy     424940.7 (Joules/Mol)
                                  101.56326 (Kcal/Mol)
 Warning -- explicit consideration of   8 degrees of freedom as
           vibrations may cause significant error
 Vibrational temperatures:    310.11   329.73   339.16   412.19   534.60
          (Kelvin)            582.02   612.48   872.13   934.92   979.36
                             1014.37  1104.39  1197.84  1307.35  1309.87
                             1361.78  1369.31  1392.66  1444.21  1458.31
                             1469.60  1499.47  1530.10  1577.12  1610.84
                             1648.04  1706.81  1738.30  1757.91  1780.44
                             1801.91  1818.41  1826.39  1865.06  1896.90
                             1920.70  2007.13  2022.84  2158.25  2187.12
                             2200.71  4352.81  4362.89  4380.23  4411.80
                             4423.12  4449.27  4472.31  4476.36  4509.23
                             5488.26

 Zero-point correction=                           0.161851 (Hartree/Particle)
 Thermal correction to Energy=                    0.168923
 Thermal correction to Enthalpy=                  0.169867
 Thermal correction to Gibbs Free Energy=         0.130870
 Sum of electronic and zero-point Energies=           -423.014612
 Sum of electronic and thermal Energies=              -423.007540
 Sum of electronic and thermal Enthalpies=            -423.006596
 Sum of electronic and thermal Free Energies=         -423.045593

                     E (Thermal)             CV                S
                      KCal/Mol        Cal/Mol-Kelvin    Cal/Mol-Kelvin
 Total                  106.001             29.326             82.076
 Electronic               0.000              0.000              0.000
 Translational            0.889              2.981             40.409
 Rotational               0.889              2.981             28.111
 Vibrational            104.223             23.364             13.556
 Vibration     1          0.645              1.817              1.996
 Vibration     2          0.652              1.796              1.885
 Vibration     3          0.655              1.786              1.835
 Vibration     4          0.684              1.699              1.495
 Vibration     5          0.743              1.531              1.073
 Vibration     6          0.770              1.460              0.946
 Vibration     7          0.788              1.414              0.873
 Vibration     8          0.965              1.019              0.439

 Optimization completed.
    -- Stationary point found.
 Normal termination of Gaussian 09 at Mon Jan 27 19:42:53 2020.
