 Gaussian 09, Revision D.01,
 Gaussian 09:  ES64L-G09RevD.01 24-Apr-2013

 -----------------------------
 # b3lyp 6-31G(2df,p) opt Freq
 -----------------------------

 -----
 titel
 -----
 Symbolic Z-matrix:
 Charge =  0 Multiplicity = 1

 SCF Done:  E(RB3LYP) =  -423.139778693     A.U. after   12 cycles
 Optimization completed.
    -- Stationary point found.
 Normal termination of Gaussian 09 at Tue Jan 28 02:20:33 2020.

 ----------------------------------------------------------------------
 #N Geom=AllCheck Guess=TCheck SCRF=Check GenChk RB3LYP/6-31G(2df,p) Fr
 eq
 ----------------------------------------------------------------------

 Structure from the checkpoint file:  "/scratch/puck/g09_e0cab0b5-fbff-4825-b176-aa9fede21a80/Gau-112303.chk"
 -----
 titel
 -----
 Charge =  0 Multiplicity = 1

                         Standard orientation:
 ---------------------------------------------------------------------
 Center     Atomic      Atomic             Coordinates (Angstroms)
 Number     Number       Type             X           Y           Z
 ---------------------------------------------------------------------
      1          8           0       -2.486589   -0.709489    0.115394
      2          6           0       -1.573387    0.235223   -0.393446
      3          6           0       -0.868700    1.204021    0.603551
      4          6           0        0.515107    0.758233    0.092574
      5          8           0        1.336466    1.832348   -0.249839
      6          6           0        1.097074   -0.422859    0.849013
      7          6           0        1.884675   -1.307900   -0.081886
      8          6           0        0.387832   -1.404359   -0.102352
      9          6           0       -0.201293   -0.269477   -0.921535
     10          1           0       -2.063903   -1.159538    0.854373
     11          1           0       -2.122723    0.777854   -1.166287
     12          1           0       -1.061105    2.257774    0.391879
     13          1           0       -1.065086    1.018755    1.664378
     14          1           0        2.204674    1.485412   -0.482259
     15          1           0        1.214597   -0.479661    1.926427
     16          1           0        2.415484   -0.895571   -0.938391
     17          1           0        2.403818   -2.131124    0.397908
     18          1           0       -0.121076   -2.325871    0.155425
     19          1           0       -0.051549   -0.288185   -2.003412
 ---------------------------------------------------------------------

 SCF Done:  E(RB3LYP) =  -423.139778693     A.U. after    1 cycles

 The electronic state is 1-A.
 Alpha  occ. eigenvalues --  -19.14210 -19.13402 -10.24063 -10.22851 -10.20108
 Alpha  occ. eigenvalues --  -10.19751 -10.19698 -10.18079 -10.17526  -1.02907
 Alpha  occ. eigenvalues --   -1.01650  -0.90222  -0.79880  -0.67893  -0.65738
 Alpha  occ. eigenvalues --   -0.60226  -0.58810  -0.54879  -0.51937  -0.49729
 Alpha  occ. eigenvalues --   -0.48524  -0.44059  -0.42473  -0.41112  -0.39313
 Alpha  occ. eigenvalues --   -0.38458  -0.37316  -0.35523  -0.33110  -0.32071
 Alpha  occ. eigenvalues --   -0.28039  -0.27874  -0.25375  -0.24489
 Alpha virt. eigenvalues --    0.07188   0.07883   0.09757   0.10529   0.11437
 Alpha virt. eigenvalues --    0.11982   0.13331   0.15585   0.16600   0.17527
 Alpha virt. eigenvalues --    0.18149   0.18762   0.20917   0.22078   0.22796

 Mulliken charges:
               1
     1  O   -0.432355
     2  C    0.147025
     3  C   -0.324225
     4  C    0.420852
     5  O   -0.480509
     6  C   -0.127061
     7  C   -0.320153
     8  C   -0.040835
     9  C   -0.162027
    10  H    0.279560
    11  H    0.094520
    12  H    0.116147
    13  H    0.091858
    14  H    0.279032
    15  H    0.085443
    16  H    0.102175
    17  H    0.117442
    18  H    0.089534
    19  H    0.063576
 Sum of Mulliken charges =   0.00000

 Dipole moment (field-independent basis, Debye):
    X=              1.9233    Y=             -1.1547    Z=              0.6618  Tot=              2.3389
 Quadrupole moment (field-independent basis, Debye-Ang):
   XX=            -55.5068   YY=            -55.1807   ZZ=            -50.8215
   XY=             -2.6595   XZ=             -1.7769   YZ=             -2.4753

  Exact polarizability:  80.705  -3.905  74.968   0.075  -0.615  66.851
 Approx polarizability: 113.167   0.388 111.141   1.000   0.371 104.900

                      1                      2                      3
                      A                      A                      A
 Frequencies --     83.5876               216.7362               258.1478
 Red. masses --      3.5273                 3.3640                 2.5270
 Frc consts  --      0.0145                 0.0931                 0.0992
 IR Inten    --      0.6572                 2.8664                 6.5772

                      4                      5                      6
                      A                      A                      A
 Frequencies --    286.8919               329.4169               334.3727
 Red. masses --      2.1811                 1.4831                 1.4852
 Frc consts  --      0.1058                 0.0948                 0.0978
 IR Inten    --      8.3502                55.1862                73.1068

                      7                      8                      9
                      A                      A                      A
 Frequencies --    382.1131               424.2691               484.6499
 Red. masses --      2.2343                 2.3176                 2.9433
 Frc consts  --      0.1922                 0.2458                 0.4073
 IR Inten    --     35.3272                 4.8865                 8.1037

                     10                     11                     12
                      A                      A                      A
 Frequencies --    569.6035               600.4047               669.4424
 Red. masses --      3.5440                 3.7882                 3.2080
 Frc consts  --      0.6775                 0.8046                 0.8471
 IR Inten    --      6.4802                 8.4135                 1.2199

                     13                     14                     15
                      A                      A                      A
 Frequencies --    755.3343               787.8050               834.3482
 Red. masses --      2.2156                 2.1329                 1.9607
 Frc consts  --      0.7448                 0.7799                 0.8042
 IR Inten    --      2.7970                 8.5972                 5.6876

                     16                     17                     18
                      A                      A                      A
 Frequencies --    900.7065               915.4872               937.8641
 Red. masses --      2.8216                 2.4696                 1.8910
 Frc consts  --      1.3487                 1.2195                 0.9800
 IR Inten    --     15.4806                 0.6816                 6.1353

                     19                     20                     21
                      A                      A                      A
 Frequencies --    947.3390               984.3685              1020.1467
 Red. masses --      1.8922                 2.3153                 1.5434
 Frc consts  --      1.0005                 1.3218                 0.9463
 IR Inten    --     18.5555                 8.0984                 1.5561

                     22                     23                     24
                      A                      A                      A
 Frequencies --   1025.7179              1050.6580              1077.3280
 Red. masses --      1.6795                 1.4110                 1.3537
 Frc consts  --      1.0411                 0.9177                 0.9257
 IR Inten    --     20.4217                 0.7896                 2.7643

                     25                     26                     27
                      A                      A                      A
 Frequencies --   1087.0950              1093.2834              1100.9825
 Red. masses --      2.1847                 1.4913                 1.6658
 Frc consts  --      1.5211                 1.0502                 1.1897
 IR Inten    --      1.2735                 9.2363               160.9483

                     28                     29                     30
                      A                      A                      A
 Frequencies --   1137.4970              1143.9947              1182.2106
 Red. masses --      1.6669                 2.3778                 1.8088
 Frc consts  --      1.2707                 1.8334                 1.4895
 IR Inten    --     15.2955                51.2033                18.5364

                     31                     32                     33
                      A                      A                      A
 Frequencies --   1222.0069              1249.6433              1264.7650
 Red. masses --      1.6250                 1.5884                 1.4862
 Frc consts  --      1.4298                 1.4615                 1.4007
 IR Inten    --      2.1774                26.2370                10.0406

                     34                     35                     36
                      A                      A                      A
 Frequencies --   1290.3227              1313.8919              1332.9058
 Red. masses --      1.6451                 1.9566                 1.8282
 Frc consts  --      1.6137                 1.9901                 1.9137
 IR Inten    --     14.5194                43.2759                 7.6719

                     37                     38                     39
                      A                      A                      A
 Frequencies --   1354.1116              1384.9350              1434.4861
 Red. masses --      2.4755                 1.9683                 1.2305
 Frc consts  --      2.6744                 2.2243                 1.4918
 IR Inten    --     27.9493                56.1990                68.1074

                     40                     41                     42
                      A                      A                      A
 Frequencies --   1473.3554              1494.1555              3051.7839
 Red. masses --      1.1230                 1.1975                 1.0628
 Frc consts  --      1.4363                 1.5751                 5.8321
 IR Inten    --      2.2946                 2.1370                29.9007

                     43                     44                     45
                      A                      A                      A
 Frequencies --   3074.6663              3087.2200              3099.6616
 Red. masses --      1.0874                 1.0891                 1.0596
 Frc consts  --      6.0565                 6.1160                 5.9984
 IR Inten    --      9.8316                48.8329                23.8496

                     46                     47                     48
                      A                      A                      A
 Frequencies --   3119.1490              3160.1240              3177.1293
 Red. masses --      1.1027                 1.0904                 1.0951
 Frc consts  --      6.3211                 6.4157                 6.5131
 IR Inten    --     20.7974                19.3442                 9.7710

                     49                     50                     51
                      A                      A                      A
 Frequencies --   3199.0277              3804.1326              3809.5665
 Red. masses --      1.1080                 1.0656                 1.0657
 Frc consts  --      6.6808                 9.0855                 9.1121
 IR Inten    --     15.7355                13.4474                 9.4463

 - Thermochemistry -
 -------------------
 Temperature   298.150 Kelvin.  Pressure   1.00000 Atm.
 Atom     1 has atomic number  8 and mass  15.99491

 Molecular mass:   126.06808 amu.
 Principal axes and moments of inertia in atomic units:
                           1         2         3
     Eigenvalues --   698.757071068.340111476.30187
           X            0.99769  -0.06771  -0.00627
           Y            0.06768   0.99769  -0.00622
           Z            0.00668   0.00578   0.99996
 This molecule is an asymmetric top.
 Rotational symmetry number  1.
 Warning -- assumption of classical behavior for rotation
           may cause significant error
 Rotational temperatures (Kelvin)      0.12395     0.08107     0.05867
 Rotational constants (GHZ):           2.58279     1.68929     1.22247
 Zero-point vibrational energy     418805.7 (Joules/Mol)
                                  100.09696 (Kcal/Mol)
 Warning -- explicit consideration of  11 degrees of freedom as
           vibrations may cause significant error
 Vibrational temperatures:    120.26   311.83   371.42   412.77   473.96
          (Kelvin)            481.09   549.77   610.43   697.30   819.53
                              863.85   963.18  1086.76  1133.47  1200.44
                             1295.91  1317.18  1349.38  1363.01  1416.28
                             1467.76  1475.78  1511.66  1550.03  1564.09
                             1572.99  1584.07  1636.60  1645.95  1700.94
                             1758.19  1797.96  1819.71  1856.48  1890.40
                             1917.75  1948.26  1992.61  2063.90  2119.83
                             2149.75  4390.83  4423.75  4441.82  4459.72
                             4487.75  4546.71  4571.17  4602.68  5473.29
                             5481.11

 Zero-point correction=                           0.159515 (Hartree/Particle)
 Thermal correction to Energy=                    0.167485
 Thermal correction to Enthalpy=                  0.168430
 Thermal correction to Gibbs Free Energy=         0.127362
 Sum of electronic and zero-point Energies=           -422.980264
 Sum of electronic and thermal Energies=              -422.972293
 Sum of electronic and thermal Enthalpies=            -422.971349
 Sum of electronic and thermal Free Energies=         -423.012416

                     E (Thermal)             CV                S
                      KCal/Mol        Cal/Mol-Kelvin    Cal/Mol-Kelvin
 Total                  105.099             32.235             86.434
 Electronic               0.000              0.000              0.000
 Translational            0.889              2.981             40.409
 Rotational               0.889              2.981             28.490
 Vibrational            103.321             26.274             17.535
 Vibration     1          0.600              1.960              3.805
 Vibration     2          0.646              1.816              1.986
 Vibration     3          0.667              1.749              1.674
 Vibration     4          0.684              1.698              1.492
 Vibration     5          0.712              1.617              1.263
 Vibration     6          0.716              1.607              1.239
 Vibration     7          0.752              1.508              1.031
 Vibration     8          0.786              1.417              0.878
 Vibration     9          0.841              1.284              0.698
 Vibration    10          0.926              1.097              0.505
 Vibration    11          0.959              1.031              0.449

 Normal termination of Gaussian 09 at Tue Jan 28 03:05:56 2020.
