 Gaussian 09, Revision D.01,
 Gaussian 09:  ES64L-G09RevD.01 24-Apr-2013

 -----------------------------
 # b3lyp 6-31G(2df,p) opt Freq
 -----------------------------

 -----
 titel
 -----
 Symbolic Z-matrix:
 Charge =  0 Multiplicity = 1

 SCF Done:  E(RB3LYP) =  -423.148456866     A.U. after   12 cycles
 Optimization completed.
    -- Stationary point found.
 Normal termination of Gaussian 09 at Mon Jan 27 12:04:37 2020.

 ----------------------------------------------------------------------
 #N Geom=AllCheck Guess=TCheck SCRF=Check GenChk RB3LYP/6-31G(2df,p) Fr
 eq
 ----------------------------------------------------------------------

 Structure from the checkpoint file:  "/scratch/puck/g09_dcf352ac-9753-4a54-99f9-fe1845f8be81/Gau-24897.chk"
 -----
 titel
 -----
 Charge =  0 Multiplicity = 1

                         Standard orientation:
 ---------------------------------------------------------------------
 Center     Atomic      Atomic             Coordinates (Angstroms)
 Number     Number       Type             X           Y           Z
 ---------------------------------------------------------------------
      1          6           0        1.561035   -0.999490    0.866770
      2          6           0        1.428177   -1.426041   -0.588053
      3          6           0        0.714030   -0.217772   -0.104730
      4          8           0        1.178025    1.043073   -0.534186
      5          6           0        0.341088    1.952986    0.138529
      6          8           0       -0.947284    1.367283    0.202869
      7          6           0       -0.776654   -0.027782    0.020760
      8          6           0       -1.722963   -0.958339    0.704906
      9          6           0       -1.808509   -0.739508   -0.800296
     10          1           0        1.069473   -1.595915    1.627405
     11          1           0        2.500353   -0.549264    1.167246
     12          1           0        2.278109   -1.263207   -1.240957
     13          1           0        0.845009   -2.312155   -0.816907
     14          1           0        0.713970    2.147521    1.159206
     15          1           0        0.296797    2.883844   -0.434624
     16          1           0       -1.351312   -1.910913    1.070096
     17          1           0       -2.492009   -0.507303    1.321565
     18          1           0       -1.490827   -1.539943   -1.459919
     19          1           0       -2.632712   -0.139838   -1.169893
 ---------------------------------------------------------------------

 SCF Done:  E(RB3LYP) =  -423.148456866     A.U. after    1 cycles

 The electronic state is 1-A.
 Alpha  occ. eigenvalues --  -19.15276 -19.14534 -10.27459 -10.24657 -10.24446
 Alpha  occ. eigenvalues --  -10.19290 -10.18773 -10.18734 -10.18339  -1.09345
 Alpha  occ. eigenvalues --   -1.00065  -0.87266  -0.83450  -0.69327  -0.61947
 Alpha  occ. eigenvalues --   -0.61185  -0.60143  -0.56693  -0.51835  -0.50005
 Alpha  occ. eigenvalues --   -0.49142  -0.46461  -0.44686  -0.44215  -0.38202
 Alpha  occ. eigenvalues --   -0.37886  -0.36943  -0.36111  -0.35091  -0.32392
 Alpha  occ. eigenvalues --   -0.31148  -0.29399  -0.24763  -0.23218
 Alpha virt. eigenvalues --    0.08314   0.09368   0.09615   0.11042   0.11936
 Alpha virt. eigenvalues --    0.13909   0.14344   0.15729   0.17142   0.18142
 Alpha virt. eigenvalues --    0.19550   0.19781   0.20950   0.21284   0.21933

 Mulliken charges:
               1
     1  C   -0.330623
     2  C   -0.346678
     3  C    0.339106
     4  O   -0.273447
     5  C    0.009646
     6  O   -0.309101
     7  C    0.394429
     8  C   -0.337674
     9  C   -0.323233
    10  H    0.117973
    11  H    0.123157
    12  H    0.131879
    13  H    0.119274
    14  H    0.087238
    15  H    0.117329
    16  H    0.113365
    17  H    0.127342
    18  H    0.115548
    19  H    0.124469
 Sum of Mulliken charges =   0.00000

 Dipole moment (field-independent basis, Debye):
    X=              0.2303    Y=             -0.9632    Z=              0.4903  Tot=              1.1051
 Quadrupole moment (field-independent basis, Debye-Ang):
   XX=            -54.0574   YY=            -50.6033   ZZ=            -53.0671
   XY=              0.8179   XZ=              0.9787   YZ=              0.7435

  Exact polarizability:  77.265   1.073  79.699   2.044   0.951  67.874
 Approx polarizability: 104.140   1.174 111.706   1.379   0.442 103.523

                      1                      2                      3
                      A                      A                      A
 Frequencies --     47.6365               170.0681               213.3820
 Red. masses --      4.2264                 2.4440                 2.7394
 Frc consts  --      0.0057                 0.0416                 0.0735
 IR Inten    --      1.0210                 3.7383                 0.2285

                      4                      5                      6
                      A                      A                      A
 Frequencies --    221.6936               305.8825               359.3964
 Red. masses --      2.2022                 2.2592                 2.6882
 Frc consts  --      0.0638                 0.1245                 0.2046
 IR Inten    --      0.6396                 0.4491                 0.0258

                      7                      8                      9
                      A                      A                      A
 Frequencies --    413.7170               509.9753               564.2347
 Red. masses --      3.3133                 4.3095                 3.5400
 Frc consts  --      0.3341                 0.6603                 0.6640
 IR Inten    --      5.2120                 3.0241                 2.0780

                     10                     11                     12
                      A                      A                      A
 Frequencies --    573.4424               740.8266               761.5111
 Red. masses --      3.7349                 6.4879                 1.0512
 Frc consts  --      0.7236                 2.0979                 0.3592
 IR Inten    --      4.4104                 0.7239                 1.2864

                     13                     14                     15
                      A                      A                      A
 Frequencies --    766.4233               842.5406               873.0741
 Red. masses --      1.0713                 2.4909                 1.6085
 Frc consts  --      0.3707                 1.0418                 0.7224
 IR Inten    --      1.3579                 1.3457                10.2953

                     16                     17                     18
                      A                      A                      A
 Frequencies --    880.8450               905.7673               953.6027
 Red. masses --      1.6695                 1.3950                 2.3066
 Frc consts  --      0.7632                 0.6743                 1.2358
 IR Inten    --     10.3797                 2.7433                25.4282

                     19                     20                     21
                      A                      A                      A
 Frequencies --    969.4378               980.1372              1000.6627
 Red. masses --      3.3918                 4.2303                 3.8050
 Frc consts  --      1.8781                 2.3944                 2.2448
 IR Inten    --     40.2603                 3.7208                16.4023

                     22                     23                     24
                      A                      A                      A
 Frequencies --   1030.2924              1049.4976              1055.0270
 Red. masses --      2.2433                 2.3181                 1.5910
 Frc consts  --      1.4030                 1.5044                 1.0434
 IR Inten    --     20.9614                43.3411                13.3903

                     25                     26                     27
                      A                      A                      A
 Frequencies --   1072.6699              1079.0570              1108.4095
 Red. masses --      1.4730                 1.4613                 4.4871
 Frc consts  --      0.9986                 1.0025                 3.2480
 IR Inten    --      0.4395                 1.6711               127.7634

                     28                     29                     30
                      A                      A                      A
 Frequencies --   1169.8729              1178.3737              1187.3351
 Red. masses --      1.6232                 1.7283                 1.2921
 Frc consts  --      1.3089                 1.4140                 1.0732
 IR Inten    --     14.7840                15.0221                 1.9315

                     31                     32                     33
                      A                      A                      A
 Frequencies --   1190.0840              1233.6421              1259.8991
 Red. masses --      1.2662                 1.2836                 3.1297
 Frc consts  --      1.0566                 1.1510                 2.9270
 IR Inten    --      0.4935                10.9524               161.6257

                     34                     35                     36
                      A                      A                      A
 Frequencies --   1325.6451              1417.1907              1431.8441
 Red. masses --      2.3938                 1.9580                 1.2848
 Frc consts  --      2.4785                 2.3170                 1.5520
 IR Inten    --     22.4835                 0.3345                11.0212

                     37                     38                     39
                      A                      A                      A
 Frequencies --   1447.0279              1452.6001              1495.2739
 Red. masses --      1.0942                 1.0897                 1.5845
 Frc consts  --      1.3499                 1.3547                 2.0873
 IR Inten    --      0.2248                 4.6611                11.2136

                     40                     41                     42
                      A                      A                      A
 Frequencies --   1509.0617              1544.9485              2949.0024
 Red. masses --      1.8286                 1.1588                 1.0700
 Frc consts  --      2.4535                 1.6296                 5.4827
 IR Inten    --     18.0591                 1.4547               110.9599

                     43                     44                     45
                      A                      A                      A
 Frequencies --   3081.8806              3126.4226              3131.8689
 Red. masses --      1.0954                 1.0539                 1.0559
 Frc consts  --      6.1297                 6.0692                 6.1022
 IR Inten    --     51.3840                 8.8642                 0.6757

                     46                     47                     48
                      A                      A                      A
 Frequencies --   3133.3796              3136.7793              3213.5409
 Red. masses --      1.0531                 1.0555                 1.1172
 Frc consts  --      6.0916                 6.1191                 6.7976
 IR Inten    --     17.5165                 6.7135                 0.3154

                     49                     50                     51
                      A                      A                      A
 Frequencies --   3217.8149              3228.2062              3232.4591
 Red. masses --      1.1178                 1.1154                 1.1158
 Frc consts  --      6.8192                 6.8486                 6.8692
 IR Inten    --      0.3283                 9.9574                 8.8498

 - Thermochemistry -
 -------------------
 Temperature   298.150 Kelvin.  Pressure   1.00000 Atm.
 Atom     1 has atomic number  6 and mass  12.00000

 Molecular mass:   126.06808 amu.
 Principal axes and moments of inertia in atomic units:
                           1         2         3
     Eigenvalues --   797.34339 920.922661385.42722
           X            0.99951   0.02803   0.01422
           Y           -0.02816   0.99957   0.00852
           Z           -0.01397  -0.00892   0.99986
 This molecule is an asymmetric top.
 Rotational symmetry number  1.
 Warning -- assumption of classical behavior for rotation
           may cause significant error
 Rotational temperatures (Kelvin)      0.10863     0.09405     0.06252
 Rotational constants (GHZ):           2.26344     1.95971     1.30266
 Zero-point vibrational energy     417157.9 (Joules/Mol)
                                   99.70314 (Kcal/Mol)
 Warning -- explicit consideration of  10 degrees of freedom as
           vibrations may cause significant error
 Vibrational temperatures:     68.54   244.69   307.01   318.97   440.10
          (Kelvin)            517.09   595.25   733.74   811.81   825.05
                             1065.88  1095.64  1102.71  1212.23  1256.16
                             1267.34  1303.20  1372.02  1394.80  1410.20
                             1439.73  1482.36  1509.99  1517.95  1543.33
                             1552.52  1594.75  1683.18  1695.41  1708.31
                             1712.26  1774.93  1812.71  1907.31  2039.02
                             2060.10  2081.95  2089.96  2151.36  2171.20
                             2222.83  4242.95  4434.13  4498.22  4506.06
                             4508.23  4513.12  4623.56  4629.71  4644.66
                             4650.78

 Zero-point correction=                           0.158887 (Hartree/Particle)
 Thermal correction to Energy=                    0.166866
 Thermal correction to Enthalpy=                  0.167810
 Thermal correction to Gibbs Free Energy=         0.126111
 Sum of electronic and zero-point Energies=           -422.989570
 Sum of electronic and thermal Energies=              -422.981591
 Sum of electronic and thermal Enthalpies=            -422.980646
 Sum of electronic and thermal Free Energies=         -423.022346

                     E (Thermal)             CV                S
                      KCal/Mol        Cal/Mol-Kelvin    Cal/Mol-Kelvin
 Total                  104.710             31.281             87.764
 Electronic               0.000              0.000              0.000
 Translational            0.889              2.981             40.409
 Rotational               0.889              2.981             28.411
 Vibrational            102.933             25.319             18.945
 Vibration     1          0.595              1.978              4.913
 Vibration     2          0.625              1.879              2.435
 Vibration     3          0.644              1.821              2.015
 Vibration     4          0.648              1.808              1.945
 Vibration     5          0.696              1.663              1.385
 Vibration     6          0.734              1.556              1.125
 Vibration     7          0.777              1.440              0.914
 Vibration     8          0.865              1.228              0.634
 Vibration     9          0.920              1.109              0.515
 Vibration    10          0.930              1.089              0.498

 Optimization completed.
    -- Stationary point found.
 Normal termination of Gaussian 09 at Mon Jan 27 12:54:31 2020.
