 Gaussian 09, Revision D.01,
 Gaussian 09:  ES64L-G09RevD.01 24-Apr-2013

 -----------------------------
 # b3lyp 6-31G(2df,p) opt Freq
 -----------------------------

 -----
 titel
 -----
 Symbolic Z-matrix:
 Charge =  0 Multiplicity = 1

 SCF Done:  E(RB3LYP) =  -423.156441540     A.U. after   12 cycles
 Optimization completed.
    -- Stationary point found.
 Normal termination of Gaussian 09 at Mon Jan 27 18:58:41 2020.

 ----------------------------------------------------------------------
 #N Geom=AllCheck Guess=TCheck SCRF=Check GenChk RB3LYP/6-31G(2df,p) Fr
 eq
 ----------------------------------------------------------------------

 Structure from the checkpoint file:  "/scratch/puck/g09_545f8a1a-be9c-4f9a-9f21-a21a6022b73f/Gau-54873.chk"
 -----
 titel
 -----
 Charge =  0 Multiplicity = 1

                         Standard orientation:
 ---------------------------------------------------------------------
 Center     Atomic      Atomic             Coordinates (Angstroms)
 Number     Number       Type             X           Y           Z
 ---------------------------------------------------------------------
      1          6           0       -2.155438   -0.788999    0.242187
      2          6           0       -0.687172   -0.483055    0.199904
      3          8           0        0.111044   -1.568531   -0.249050
      4          6           0        1.233155   -1.006854   -0.943208
      5          6           0        1.349297    0.406929   -0.377755
      6          6           0        1.445470    0.350569    1.183169
      7          6           0       -0.076440    0.452454    1.258457
      8          6           0       -0.148051    0.824958   -0.232921
      9          8           0       -0.860677    1.755998   -0.955158
     10          1           0       -2.719439    0.085414    0.576419
     11          1           0       -2.516291   -1.071106   -0.751294
     12          1           0       -2.357217   -1.617483    0.928182
     13          1           0        2.107329   -1.634982   -0.742493
     14          1           0        1.047717   -0.991421   -2.028766
     15          1           0        2.035781    1.070415   -0.903366
     16          1           0        1.906920   -0.550328    1.600586
     17          1           0        1.937828    1.234077    1.597905
     18          1           0       -0.666956    0.804274    2.097830
     19          1           0       -0.543528    2.635385   -0.720343
 ---------------------------------------------------------------------

 SCF Done:  E(RB3LYP) =  -423.156441540     A.U. after    1 cycles

 The electronic state is 1-A.
 Alpha  occ. eigenvalues --  -19.15628 -19.13095 -10.23376 -10.23070 -10.22247
 Alpha  occ. eigenvalues --  -10.19192 -10.18545 -10.18450 -10.17462  -1.04694
 Alpha  occ. eigenvalues --   -1.02715  -0.87343  -0.77452  -0.69422  -0.67652
 Alpha  occ. eigenvalues --   -0.62065  -0.57048  -0.53484  -0.51912  -0.47336
 Alpha  occ. eigenvalues --   -0.46793  -0.44848  -0.41396  -0.40567  -0.38947
 Alpha  occ. eigenvalues --   -0.38600  -0.38093  -0.37288  -0.33936  -0.32179
 Alpha  occ. eigenvalues --   -0.31346  -0.28230  -0.24548  -0.22021
 Alpha virt. eigenvalues --    0.07176   0.10042   0.11175   0.12078   0.12523
 Alpha virt. eigenvalues --    0.13771   0.15334   0.15502   0.16328   0.17136
 Alpha virt. eigenvalues --    0.18660   0.18944   0.19699   0.21169   0.22530

 Mulliken charges:
               1
     1  C   -0.476618
     2  C    0.416811
     3  O   -0.310620
     4  C   -0.089435
     5  C   -0.143346
     6  C   -0.234856
     7  C   -0.214853
     8  C    0.298564
     9  O   -0.463312
    10  H    0.124508
    11  H    0.128994
    12  H    0.125989
    13  H    0.104417
    14  H    0.093373
    15  H    0.072392
    16  H    0.101917
    17  H    0.096814
    18  H    0.082377
    19  H    0.286885
 Sum of Mulliken charges =   0.00000

 Dipole moment (field-independent basis, Debye):
    X=              1.0041    Y=              2.0785    Z=              0.5103  Tot=              2.3640
 Quadrupole moment (field-independent basis, Debye-Ang):
   XX=            -51.2381   YY=            -51.3131   ZZ=            -53.5296
   XY=              1.0103   XZ=             -2.4639   YZ=              0.9784

  Exact polarizability:  80.000   0.813  72.173  -1.163   1.854  71.654
 Approx polarizability: 107.713   0.226 109.621  -0.460   0.053 108.844

                      1                      2                      3
                      A                      A                      A
 Frequencies --    178.8640               194.9610               219.9462
 Red. masses --      1.0536                 3.1181                 2.5643
 Frc consts  --      0.0199                 0.0698                 0.0731
 IR Inten    --      0.1480                 3.6027                 2.4504

                      4                      5                      6
                      A                      A                      A
 Frequencies --    234.8158               316.2253               341.9043
 Red. masses --      3.2714                 1.6888                 2.0018
 Frc consts  --      0.1063                 0.0995                 0.1379
 IR Inten    --      2.2781                23.7326                23.9085

                      7                      8                      9
                      A                      A                      A
 Frequencies --    371.2165               417.8211               528.3342
 Red. masses --      1.9878                 2.6083                 2.9634
 Frc consts  --      0.1614                 0.2683                 0.4874
 IR Inten    --     35.0425                16.1045                 0.1790

                     10                     11                     12
                      A                      A                      A
 Frequencies --    567.5755               633.8632               676.5674
 Red. masses --      4.5046                 4.5980                 3.8176
 Frc consts  --      0.8550                 1.0885                 1.0296
 IR Inten    --      3.1738                 3.8430                 4.0577

                     13                     14                     15
                      A                      A                      A
 Frequencies --    750.7380               793.6630               846.2875
 Red. masses --      3.9621                 4.8568                 2.4479
 Frc consts  --      1.3157                 1.8025                 1.0329
 IR Inten    --      4.1381                21.7771                 2.8789

                     16                     17                     18
                      A                      A                      A
 Frequencies --    887.0669               899.3369               933.4873
 Red. masses --      1.7082                 2.2005                 1.6873
 Frc consts  --      0.7919                 1.0486                 0.8663
 IR Inten    --     13.3858                 5.0859                 5.9385

                     19                     20                     21
                      A                      A                      A
 Frequencies --    977.1082               991.5132              1008.1515
 Red. masses --      1.8180                 1.7630                 1.8975
 Frc consts  --      1.0227                 1.0212                 1.1363
 IR Inten    --      9.8090                15.3234                14.8036

                     22                     23                     24
                      A                      A                      A
 Frequencies --   1031.8542              1068.8144              1085.2621
 Red. masses --      3.4167                 2.0355                 2.1562
 Frc consts  --      2.1434                 1.3700                 1.4963
 IR Inten    --     15.9859                13.7598                25.5029

                     25                     26                     27
                      A                      A                      A
 Frequencies --   1123.2210              1131.3974              1155.6714
 Red. masses --      1.9606                 1.5872                 1.5724
 Frc consts  --      1.4574                 1.1971                 1.2373
 IR Inten    --      8.3775                 8.7463                 2.8669

                     28                     29                     30
                      A                      A                      A
 Frequencies --   1192.6870              1224.3909              1233.2664
 Red. masses --      2.4321                 1.5554                 1.3822
 Frc consts  --      2.0384                 1.3738                 1.2386
 IR Inten    --     76.3936                 5.6683                22.0007

                     31                     32                     33
                      A                      A                      A
 Frequencies --   1265.6027              1293.8099              1299.5698
 Red. masses --      1.6358                 1.8334                 1.5234
 Frc consts  --      1.5437                 1.8082                 1.5158
 IR Inten    --     39.0336                28.7026                74.9033

                     34                     35                     36
                      A                      A                      A
 Frequencies --   1328.3682              1377.1850              1418.9525
 Red. masses --      2.8928                 1.4015                 1.3803
 Frc consts  --      3.0075                 1.5662                 1.6375
 IR Inten    --     24.6452                 4.4747                 3.5660

                     37                     38                     39
                      A                      A                      A
 Frequencies --   1470.9123              1483.5180              1490.6840
 Red. masses --      1.2361                 1.2841                 1.1035
 Frc consts  --      1.5757                 1.6651                 1.4448
 IR Inten    --      0.4348                 5.1446                 1.7750

                     40                     41                     42
                      A                      A                      A
 Frequencies --   1513.8967              1521.4283              2981.1570
 Red. masses --      1.0967                 1.8728                 1.0688
 Frc consts  --      1.4809                 2.5542                 5.5963
 IR Inten    --      0.3765                14.6177                78.3995

                     43                     44                     45
                      A                      A                      A
 Frequencies --   3042.8871              3044.6896              3070.8993
 Red. masses --      1.0364                 1.0568                 1.0949
 Frc consts  --      5.6537                 5.7722                 6.0834
 IR Inten    --     35.5102                35.7499                38.3100

                     46                     47                     48
                      A                      A                      A
 Frequencies --   3097.7413              3108.6002              3120.0426
 Red. masses --      1.1071                 1.1018                 1.0898
 Frc consts  --      6.2592                 6.2732                 6.2506
 IR Inten    --     21.5954                16.3172                32.8651

                     49                     50                     51
                      A                      A                      A
 Frequencies --   3125.5280              3167.4769              3787.6345
 Red. masses --      1.1007                 1.0924                 1.0661
 Frc consts  --      6.3351                 6.4577                 9.0114
 IR Inten    --     14.0390                18.6090                19.2256

 - Thermochemistry -
 -------------------
 Temperature   298.150 Kelvin.  Pressure   1.00000 Atm.
 Atom     1 has atomic number  6 and mass  12.00000

 Molecular mass:   126.06808 amu.
 Principal axes and moments of inertia in atomic units:
                           1         2         3
     Eigenvalues --   806.81997 927.043861142.11400
           X            0.99460   0.10135  -0.02241
           Y           -0.10042   0.99416   0.03949
           Z            0.02629  -0.03702   0.99897
 This molecule is an asymmetric top.
 Rotational symmetry number  1.
 Warning -- assumption of classical behavior for rotation
           may cause significant error
 Rotational temperatures (Kelvin)      0.10735     0.09343     0.07584
 Rotational constants (GHZ):           2.23686     1.94677     1.58018
 Zero-point vibrational energy     418852.1 (Joules/Mol)
                                  100.10804 (Kcal/Mol)
 Warning -- explicit consideration of  10 degrees of freedom as
           vibrations may cause significant error
 Vibrational temperatures:    257.35   280.51   316.45   337.85   454.98
          (Kelvin)            491.92   534.10   601.15   760.15   816.61
                              911.99   973.43  1080.14  1141.90  1217.62
                             1276.29  1293.94  1343.08  1405.84  1426.56
                             1450.50  1484.61  1537.78  1561.45  1616.06
                             1627.83  1662.75  1716.01  1761.62  1774.39
                             1820.92  1861.50  1869.79  1911.22  1981.46
                             2041.55  2116.31  2134.45  2144.76  2178.16
                             2188.99  4289.21  4378.03  4380.62  4418.33
                             4456.95  4472.58  4489.04  4496.93  4557.29
                             5449.55

 Zero-point correction=                           0.159532 (Hartree/Particle)
 Thermal correction to Energy=                    0.167413
 Thermal correction to Enthalpy=                  0.168357
 Thermal correction to Gibbs Free Energy=         0.127807
 Sum of electronic and zero-point Energies=           -422.996909
 Sum of electronic and thermal Energies=              -422.989029
 Sum of electronic and thermal Enthalpies=            -422.988085
 Sum of electronic and thermal Free Energies=         -423.028635

                     E (Thermal)             CV                S
                      KCal/Mol        Cal/Mol-Kelvin    Cal/Mol-Kelvin
 Total                  105.053             31.677             85.344
 Electronic               0.000              0.000              0.000
 Translational            0.889              2.981             40.409
 Rotational               0.889              2.981             28.237
 Vibrational            103.276             25.715             16.698
 Vibration     1          0.629              1.868              2.340
 Vibration     2          0.636              1.847              2.180
 Vibration     3          0.647              1.811              1.960
 Vibration     4          0.655              1.788              1.842
 Vibration     5          0.703              1.643              1.330
 Vibration     6          0.721              1.592              1.203
 Vibration     7          0.743              1.531              1.075
 Vibration     8          0.781              1.432              0.899
 Vibration     9          0.883              1.187              0.591
 Vibration    10          0.924              1.101              0.509

 Normal termination of Gaussian 09 at Mon Jan 27 19:41:48 2020.
