 Gaussian 09, Revision D.01,
 Gaussian 09:  ES64L-G09RevD.01 24-Apr-2013

 -----------------------------
 # b3lyp 6-31G(2df,p) opt Freq
 -----------------------------

 -----
 titel
 -----
 Symbolic Z-matrix:
 Charge =  0 Multiplicity = 1

 SCF Done:  E(RB3LYP) =  -423.160774242     A.U. after   15 cycles
 Optimization completed.
    -- Stationary point found.
 Normal termination of Gaussian 09 at Tue Jan 28 12:04:20 2020.

 ----------------------------------------------------------------------
 #N Geom=AllCheck Guess=TCheck SCRF=Check GenChk RB3LYP/6-31G(2df,p) Fr
 eq
 ----------------------------------------------------------------------

 Structure from the checkpoint file:  "/scratch/puck/g09_051ac577-14b0-41f6-ba64-3185266b8933/Gau-113781.chk"
 -----
 titel
 -----
 Charge =  0 Multiplicity = 1

                         Standard orientation:
 ---------------------------------------------------------------------
 Center     Atomic      Atomic             Coordinates (Angstroms)
 Number     Number       Type             X           Y           Z
 ---------------------------------------------------------------------
      1          6           0        2.722029   -1.554114    0.034459
      2          6           0        1.926316   -0.300792   -0.402541
      3          6           0        2.428477    0.904472    0.398071
      4          8           0        3.103491    1.787033   -0.057507
      5          6           0        0.491663   -0.458404   -0.185808
      6          6           0       -0.687553   -0.568897    0.036984
      7          6           0       -2.120685   -0.682640    0.273830
      8          6           0       -2.899604    0.541825   -0.220686
      9          8           0       -4.265656    0.302345    0.068268
     10          1           0        3.786613   -1.419962   -0.176693
     11          1           0        2.595511   -1.740104    1.105176
     12          1           0        2.361933   -2.432554   -0.505927
     13          1           0        2.136438   -0.087362   -1.456538
     14          1           0        2.124549    0.886944    1.469002
     15          1           0       -2.520952   -1.572935   -0.226375
     16          1           0       -2.322692   -0.812821    1.343943
     17          1           0       -2.525511    1.442627    0.288170
     18          1           0       -2.726246    0.673441   -1.299048
     19          1           0       -4.776178    1.059001   -0.233659
 ---------------------------------------------------------------------

 SCF Done:  E(RB3LYP) =  -423.160774242     A.U. after    1 cycles

 The electronic state is 1-A.
 Alpha  occ. eigenvalues --  -19.14493 -19.14184 -10.27574 -10.23761 -10.22217
 Alpha  occ. eigenvalues --  -10.20875 -10.19639 -10.18355 -10.17954  -1.05270
 Alpha  occ. eigenvalues --   -1.02377  -0.82187  -0.79136  -0.71714  -0.66770
 Alpha  occ. eigenvalues --   -0.63002  -0.58623  -0.53321  -0.50838  -0.47984
 Alpha  occ. eigenvalues --   -0.46057  -0.44622  -0.43573  -0.42665  -0.41766
 Alpha  occ. eigenvalues --   -0.39412  -0.39107  -0.37738  -0.37076  -0.34279
 Alpha  occ. eigenvalues --   -0.27679  -0.27521  -0.26049  -0.24453
 Alpha virt. eigenvalues --   -0.02725   0.04520   0.05774   0.07248   0.11338
 Alpha virt. eigenvalues --    0.11670   0.12563   0.14599   0.15206   0.15484
 Alpha virt. eigenvalues --    0.16287   0.17470   0.19103   0.19454   0.21243

 Mulliken charges:
               1
     1  C   -0.397152
     2  C   -0.212294
     3  C    0.173259
     4  O   -0.243223
     5  C    0.085311
     6  C    0.017298
     7  C   -0.324961
     8  C   -0.063086
     9  O   -0.414703
    10  H    0.132296
    11  H    0.131765
    12  H    0.138177
    13  H    0.122083
    14  H    0.085324
    15  H    0.140102
    16  H    0.139175
    17  H    0.099842
    18  H    0.100250
    19  H    0.290538
 Sum of Mulliken charges =   0.00000

 Dipole moment (field-independent basis, Debye):
    X=             -1.3545    Y=             -0.8976    Z=             -0.0580  Tot=              1.6260
 Quadrupole moment (field-independent basis, Debye-Ang):
   XX=            -54.9052   YY=            -54.9906   ZZ=            -52.0091
   XY=            -13.2192   XZ=              3.6032   YZ=              0.1815

  Exact polarizability: 115.197   2.849  71.538  -4.460  -1.001  62.420
 Approx polarizability: 155.239  13.245 102.987 -13.028  -4.515  94.575

                      1                      2                      3
                      A                      A                      A
 Frequencies --     16.4852                43.2082                77.8566
 Red. masses --      2.4388                 6.4565                 3.2026
 Frc consts  --      0.0004                 0.0071                 0.0114
 IR Inten    --      3.2533                 4.2951                 3.8515

                      4                      5                      6
                      A                      A                      A
 Frequencies --     87.9238               139.1351               168.1609
 Red. masses --      3.8683                 3.3346                 3.5455
 Frc consts  --      0.0176                 0.0380                 0.0591
 IR Inten    --      2.3385                 2.6195                 0.6458

                      7                      8                      9
                      A                      A                      A
 Frequencies --    225.6269               237.4480               289.9205
 Red. masses --      1.0583                 1.0801                 2.5700
 Frc consts  --      0.0317                 0.0359                 0.1273
 IR Inten    --      0.0737               112.7604                 5.8180

                     10                     11                     12
                      A                      A                      A
 Frequencies --    330.7459               357.9815               407.4997
 Red. masses --      3.0535                 3.9248                 5.9344
 Frc consts  --      0.1968                 0.2963                 0.5806
 IR Inten    --      6.1107                10.2667                 6.2936

                     13                     14                     15
                      A                      A                      A
 Frequencies --    472.4685               527.9568               552.6611
 Red. masses --      4.6553                 4.9461                 6.6292
 Frc consts  --      0.6123                 0.8123                 1.1930
 IR Inten    --     12.3150                 3.3972                 1.3620

                     16                     17                     18
                      A                      A                      A
 Frequencies --    792.5221               793.6291               887.7497
 Red. masses --      1.5321                 1.6965                 1.7278
 Frc consts  --      0.5670                 0.6296                 0.8023
 IR Inten    --      2.6313                 3.5977                29.4638

                     19                     20                     21
                      A                      A                      A
 Frequencies --    932.5923               999.1857              1050.7593
 Red. masses --      2.4193                 2.8230                 2.0067
 Frc consts  --      1.2397                 1.6605                 1.3054
 IR Inten    --      2.8771                29.2261                18.3901

                     22                     23                     24
                      A                      A                      A
 Frequencies --   1082.1675              1084.9703              1087.7223
 Red. masses --      6.1264                 2.0578                 1.5734
 Frc consts  --      4.2271                 1.4272                 1.0968
 IR Inten    --     95.8928                 0.1952                 1.5168

                     25                     26                     27
                      A                      A                      A
 Frequencies --   1126.6029              1177.9759              1222.1123
 Red. masses --      2.2759                 1.9747                 1.1854
 Frc consts  --      1.7019                 1.6145                 1.0431
 IR Inten    --      6.9599                 0.7778                 0.9887

                     28                     29                     30
                      A                      A                      A
 Frequencies --   1238.1246              1270.1133              1304.3045
 Red. masses --      1.1877                 1.4256                 1.0909
 Frc consts  --      1.0727                 1.3549                 1.0935
 IR Inten    --     48.3195                 5.0624                 0.1350

                     31                     32                     33
                      A                      A                      A
 Frequencies --   1324.2161              1334.9029              1398.5308
 Red. masses --      1.3478                 1.6538                 1.1891
 Frc consts  --      1.3925                 1.7363                 1.3703
 IR Inten    --     15.3170                 2.2441                 1.7547

                     34                     35                     36
                      A                      A                      A
 Frequencies --   1417.3581              1454.8153              1476.6714
 Red. masses --      1.1875                 1.4312                 1.0886
 Frc consts  --      1.4055                 1.7847                 1.3986
 IR Inten    --      3.6751                 9.4257                 1.7892

                     37                     38                     39
                      A                      A                      A
 Frequencies --   1492.1422              1497.7440              1528.2425
 Red. masses --      1.0462                 1.0504                 1.0850
 Frc consts  --      1.3724                 1.3882                 1.4931
 IR Inten    --      5.8990                 2.8721                 1.9558

                     40                     41                     42
                      A                      A                      A
 Frequencies --   1839.0988              2362.0014              2882.2829
 Red. masses --     10.3180                11.8852                 1.0838
 Frc consts  --     20.5616                39.0677                 5.3048
 IR Inten    --    204.1406                 3.2410                81.2848

                     43                     44                     45
                      A                      A                      A
 Frequencies --   2984.7713              3015.7667              3031.9590
 Red. masses --      1.0545                 1.1068                 1.0580
 Frc consts  --      5.5352                 5.9309                 5.7306
 IR Inten    --     38.1238                39.9099                20.9685

                     46                     47                     48
                      A                      A                      A
 Frequencies --   3044.4255              3051.8728              3069.4386
 Red. masses --      1.0343                 1.0823                 1.1032
 Frc consts  --      5.6481                 5.9391                 6.1238
 IR Inten    --     20.8508                 8.4376                20.5435

                     49                     50                     51
                      A                      A                      A
 Frequencies --   3121.1234              3130.3122              3835.3276
 Red. masses --      1.1025                 1.1029                 1.0664
 Frc consts  --      6.3280                 6.3676                 9.2422
 IR Inten    --     20.1262                12.5308                30.1307

 - Thermochemistry -
 -------------------
 Temperature   298.150 Kelvin.  Pressure   1.00000 Atm.
 Atom     1 has atomic number  6 and mass  12.00000

 Molecular mass:   126.06808 amu.
 Principal axes and moments of inertia in atomic units:
                           1         2         3
     Eigenvalues --   505.365283261.674123656.77958
           X            0.99971  -0.02383   0.00278
           Y            0.02384   0.99971  -0.00461
           Z           -0.00267   0.00467   0.99999
 This molecule is an asymmetric top.
 Rotational symmetry number  1.
 Warning -- assumption of classical behavior for rotation
           may cause significant error
 Rotational temperatures (Kelvin)      0.17139     0.02656     0.02369
 Rotational constants (GHZ):           3.57116     0.55332     0.49353
 Zero-point vibrational energy     408396.8 (Joules/Mol)
                                   97.60918 (Kcal/Mol)
 Warning -- explicit consideration of  15 degrees of freedom as
           vibrations may cause significant error
 Vibrational temperatures:     23.72    62.17   112.02   126.50   200.18
          (Kelvin)            241.95   324.63   341.63   417.13   475.87
                              515.05   586.30   679.78   759.61   795.16
                             1140.26  1141.85  1277.27  1341.79  1437.60
                             1511.81  1557.00  1561.03  1564.99  1620.93
                             1694.84  1758.34  1781.38  1827.41  1876.60
                             1905.25  1920.63  2012.17  2039.26  2093.15
                             2124.60  2146.86  2154.92  2198.80  2646.05
                             3398.39  4146.96  4294.41  4339.01  4362.31
                             4380.24  4390.96  4416.23  4490.59  4503.82
                             5518.17

 Zero-point correction=                           0.155550 (Hartree/Particle)
 Thermal correction to Energy=                    0.166651
 Thermal correction to Enthalpy=                  0.167595
 Thermal correction to Gibbs Free Energy=         0.116532
 Sum of electronic and zero-point Energies=           -423.005224
 Sum of electronic and thermal Energies=              -422.994123
 Sum of electronic and thermal Enthalpies=            -422.993179
 Sum of electronic and thermal Free Energies=         -423.044242

                     E (Thermal)             CV                S
                      KCal/Mol        Cal/Mol-Kelvin    Cal/Mol-Kelvin
 Total                  104.575             37.113            107.471
 Electronic               0.000              0.000              0.000
 Translational            0.889              2.981             40.409
 Rotational               0.889              2.981             30.178
 Vibrational            102.798             31.152             36.884
 Vibration     1          0.593              1.986              7.018
 Vibration     2          0.595              1.980              5.106
 Vibration     3          0.599              1.964              3.944
 Vibration     4          0.601              1.958              3.706
 Vibration     5          0.615              1.914              2.816
 Vibration     6          0.625              1.882              2.456
 Vibration     7          0.650              1.802              1.913
 Vibration     8          0.656              1.783              1.822
 Vibration     9          0.686              1.692              1.474
 Vibration    10          0.713              1.614              1.256
 Vibration    11          0.733              1.559              1.131
 Vibration    12          0.772              1.454              0.935
 Vibration    13          0.829              1.311              0.731
 Vibration    14          0.883              1.188              0.592
 Vibration    15          0.908              1.134              0.539

 Optimization completed on the basis of negligible forces.
    -- Stationary point found.
 Normal termination of Gaussian 09 at Tue Jan 28 12:34:34 2020.
