 Gaussian 09, Revision D.01,
 Gaussian 09:  ES64L-G09RevD.01 24-Apr-2013

 -----------------------------
 # b3lyp 6-31G(2df,p) opt Freq
 -----------------------------

 -----
 titel
 -----
 Symbolic Z-matrix:
 Charge =  0 Multiplicity = 1

 SCF Done:  E(RB3LYP) =  -423.198617992     A.U. after   14 cycles
 Optimization completed.
    -- Stationary point found.
 Normal termination of Gaussian 09 at Tue Jan 28 02:01:50 2020.

 ----------------------------------------------------------------------
 #N Geom=AllCheck Guess=TCheck SCRF=Check GenChk RB3LYP/6-31G(2df,p) Fr
 eq
 ----------------------------------------------------------------------

 Structure from the checkpoint file:  "/scratch/puck/g09_acc9264d-dc19-4a38-a665-ca75640bd45b/Gau-110915.chk"
 -----
 titel
 -----
 Charge =  0 Multiplicity = 1

                         Standard orientation:
 ---------------------------------------------------------------------
 Center     Atomic      Atomic             Coordinates (Angstroms)
 Number     Number       Type             X           Y           Z
 ---------------------------------------------------------------------
      1          6           0        2.318682    0.380912   -0.979018
      2          6           0        1.511542   -0.707848   -0.309440
      3          6           0        1.308904   -0.736830    1.172226
      4          6           0        0.121037   -0.451186    0.284017
      5          6           0       -1.049283   -1.394804    0.072624
      6          8           0       -2.022600   -0.631602   -0.645035
      7          6           0       -1.929439    0.713193   -0.216003
      8          6           0       -0.483063    0.915019    0.245164
      9          8           0        0.035390    1.967578    0.531721
     10          1           0        2.042805    0.486891   -2.033498
     11          1           0        2.165397    1.344033   -0.488440
     12          1           0        3.385738    0.136937   -0.935805
     13          1           0        1.582329   -1.683359   -0.786962
     14          1           0        1.322703   -1.690391    1.690933
     15          1           0        1.677965    0.107798    1.746861
     16          1           0       -0.809304   -2.275797   -0.529032
     17          1           0       -1.463990   -1.735256    1.036349
     18          1           0       -2.191051    1.381952   -1.040949
     19          1           0       -2.605187    0.928647    0.629644
 ---------------------------------------------------------------------

 SCF Done:  E(RB3LYP) =  -423.198617992     A.U. after    1 cycles

 The electronic state is 1-A.
 Alpha  occ. eigenvalues --  -19.14857 -19.13414 -10.27068 -10.23937 -10.23617
 Alpha  occ. eigenvalues --  -10.21238 -10.20657 -10.20003 -10.17896  -1.05434
 Alpha  occ. eigenvalues --   -1.03635  -0.87916  -0.73846  -0.73531  -0.69843
 Alpha  occ. eigenvalues --   -0.60865  -0.59085  -0.52841  -0.50468  -0.49282
 Alpha  occ. eigenvalues --   -0.46329  -0.45809  -0.43878  -0.41707  -0.40844
 Alpha  occ. eigenvalues --   -0.40048  -0.39008  -0.37391  -0.36159  -0.35190
 Alpha  occ. eigenvalues --   -0.30215  -0.29131  -0.26607  -0.23973
 Alpha virt. eigenvalues --   -0.02419   0.08104   0.09851   0.11498   0.12050
 Alpha virt. eigenvalues --    0.12909   0.14140   0.15706   0.16670   0.16991
 Alpha virt. eigenvalues --    0.17428   0.17919   0.18504   0.20537   0.22244

 Mulliken charges:
               1
     1  C   -0.422492
     2  C   -0.027827
     3  C   -0.335142
     4  C    0.199500
     5  C   -0.175508
     6  O   -0.250759
     7  C   -0.179168
     8  C    0.310716
     9  O   -0.330880
    10  H    0.119978
    11  H    0.155616
    12  H    0.119127
    13  H    0.094695
    14  H    0.118662
    15  H    0.135536
    16  H    0.115846
    17  H    0.096141
    18  H    0.138334
    19  H    0.117626
 Sum of Mulliken charges =   0.00000

 Dipole moment (field-independent basis, Debye):
    X=              0.5602    Y=             -1.9607    Z=              0.1931  Tot=              2.0483
 Quadrupole moment (field-independent basis, Debye-Ang):
   XX=            -53.4716   YY=            -56.0084   ZZ=            -52.6814
   XY=             -3.4883   XZ=             -2.1706   YZ=             -2.7757

  Exact polarizability:  85.953  -3.648  77.607  -0.680  -1.761  66.127
 Approx polarizability: 114.373  -3.632 119.990   1.870   2.421 100.516

                      1                      2                      3
                      A                      A                      A
 Frequencies --     84.0050               152.2795               173.0582
 Red. masses --      3.4465                 2.6839                 2.9702
 Frc consts  --      0.0143                 0.0367                 0.0524
 IR Inten    --      1.1021                 1.1938                 9.3447

                      4                      5                      6
                      A                      A                      A
 Frequencies --    194.3916               228.3383               296.3209
 Red. masses --      3.3092                 1.1372                 2.3951
 Frc consts  --      0.0737                 0.0349                 0.1239
 IR Inten    --      0.7974                 1.9587                 2.4487

                      7                      8                      9
                      A                      A                      A
 Frequencies --    368.9898               417.9451               436.1215
 Red. masses --      2.9998                 2.3101                 3.9454
 Frc consts  --      0.2406                 0.2377                 0.4421
 IR Inten    --      0.3725                 1.8097                 9.7386

                     10                     11                     12
                      A                      A                      A
 Frequencies --    573.9187               582.5229               651.8019
 Red. masses --      4.5126                 2.6973                 6.5242
 Frc consts  --      0.8758                 0.5393                 1.6331
 IR Inten    --      2.8361                 6.1789                 3.2913

                     13                     14                     15
                      A                      A                      A
 Frequencies --    719.3297               771.0472               865.2783
 Red. masses --      3.8659                 2.5361                 2.7147
 Frc consts  --      1.1786                 0.8883                 1.1975
 IR Inten    --     10.9020                 3.8713                24.0380

                     16                     17                     18
                      A                      A                      A
 Frequencies --    888.4313               913.2505               948.1767
 Red. masses --      1.3173                 1.6634                 4.0155
 Frc consts  --      0.6126                 0.8174                 2.1270
 IR Inten    --      4.9146                 3.4952                20.6282

                     19                     20                     21
                      A                      A                      A
 Frequencies --    998.2886              1029.3629              1064.0485
 Red. masses --      1.6711                 1.6892                 2.0509
 Frc consts  --      0.9812                 1.0545                 1.3681
 IR Inten    --     16.5013                 1.7299                 6.1062

                     22                     23                     24
                      A                      A                      A
 Frequencies --   1068.1619              1091.7352              1099.3301
 Red. masses --      1.5683                 2.0986                 3.8215
 Frc consts  --      1.0542                 1.4737                 2.7210
 IR Inten    --      1.1069                 8.8090                25.2915

                     25                     26                     27
                      A                      A                      A
 Frequencies --   1125.5128              1144.5292              1196.0897
 Red. masses --      1.6666                 3.1473                 1.6259
 Frc consts  --      1.2439                 2.4291                 1.3705
 IR Inten    --      2.8749               123.0774                 1.0596

                     28                     29                     30
                      A                      A                      A
 Frequencies --   1206.0435              1239.3598              1267.2957
 Red. masses --      1.1411                 1.2660                 2.6109
 Frc consts  --      0.9779                 1.1458                 2.4706
 IR Inten    --      7.6462                 1.8454                 7.6384

                     31                     32                     33
                      A                      A                      A
 Frequencies --   1311.9890              1332.8794              1387.5083
 Red. masses --      1.4956                 1.6224                 1.3409
 Frc consts  --      1.5168                 1.6982                 1.5210
 IR Inten    --     15.1206                31.4104                 6.4936

                     34                     35                     36
                      A                      A                      A
 Frequencies --   1405.5975              1428.7899              1476.7224
 Red. masses --      1.4142                 1.5465                 1.2473
 Frc consts  --      1.6462                 1.8601                 1.6025
 IR Inten    --     31.0964                21.1015                14.2703

                     37                     38                     39
                      A                      A                      A
 Frequencies --   1479.1622              1502.3214              1503.5741
 Red. masses --      1.1357                 1.1336                 1.0515
 Frc consts  --      1.4640                 1.5074                 1.4006
 IR Inten    --      8.4308                 8.9451                 1.2785

                     40                     41                     42
                      A                      A                      A
 Frequencies --   1518.7721              1828.3290              2959.9751
 Red. masses --      1.0970                12.2510                 1.0704
 Frc consts  --      1.4909                24.1285                 5.5258
 IR Inten    --      0.6827               158.4171                51.4405

                     43                     44                     45
                      A                      A                      A
 Frequencies --   2966.4689              3036.6650              3082.9628
 Red. masses --      1.0715                 1.0377                 1.0918
 Frc consts  --      5.5556                 5.6378                 6.1142
 IR Inten    --     60.9420                30.6275                24.6381

                     46                     47                     48
                      A                      A                      A
 Frequencies --   3089.9896              3094.3864              3119.2268
 Red. masses --      1.0910                 1.1011                 1.0775
 Frc consts  --      6.1377                 6.2117                 6.1768
 IR Inten    --     10.5266                21.9096                 7.8508

                     49                     50                     51
                      A                      A                      A
 Frequencies --   3121.1295              3141.1857              3211.4202
 Red. masses --      1.0644                 1.0973                 1.1171
 Frc consts  --      6.1093                 6.3792                 6.7877
 IR Inten    --     11.9557                12.5113                 4.1006

 - Thermochemistry -
 -------------------
 Temperature   298.150 Kelvin.  Pressure   1.00000 Atm.
 Atom     1 has atomic number  6 and mass  12.00000

 Molecular mass:   126.06808 amu.
 Principal axes and moments of inertia in atomic units:
                           1         2         3
     Eigenvalues --   716.151191206.486131515.43155
           X            0.99969  -0.01287  -0.02147
           Y            0.01175   0.99859  -0.05178
           Z            0.02211   0.05151   0.99843
 This molecule is an asymmetric top.
 Rotational symmetry number  1.
 Warning -- assumption of classical behavior for rotation
           may cause significant error
 Rotational temperatures (Kelvin)      0.12094     0.07179     0.05715
 Rotational constants (GHZ):           2.52006     1.49587     1.19091
 Zero-point vibrational energy     417460.9 (Joules/Mol)
                                   99.77556 (Kcal/Mol)
 Warning -- explicit consideration of  11 degrees of freedom as
           vibrations may cause significant error
 Vibrational temperatures:    120.86   219.10   248.99   279.69   328.53
          (Kelvin)            426.34   530.89   601.33   627.48   825.74
                              838.12   937.80  1034.95  1109.36  1244.94
                             1278.25  1313.96  1364.21  1436.31  1481.02
                             1530.93  1536.84  1570.76  1581.69  1619.36
                             1646.72  1720.90  1735.23  1783.16  1823.35
                             1887.66  1917.71  1996.31  2022.34  2055.71
                             2124.67  2128.18  2161.50  2163.31  2185.17
                             2630.55  4258.74  4268.08  4369.08  4435.69
                             4445.80  4452.13  4487.87  4490.60  4519.46
                             4620.51

 Zero-point correction=                           0.159002 (Hartree/Particle)
 Thermal correction to Energy=                    0.167500
 Thermal correction to Enthalpy=                  0.168444
 Thermal correction to Gibbs Free Energy=         0.125904
 Sum of electronic and zero-point Energies=           -423.039616
 Sum of electronic and thermal Energies=              -423.031118
 Sum of electronic and thermal Enthalpies=            -423.030174
 Sum of electronic and thermal Free Energies=         -423.072714

                     E (Thermal)             CV                S
                      KCal/Mol        Cal/Mol-Kelvin    Cal/Mol-Kelvin
 Total                  105.108             32.100             89.533
 Electronic               0.000              0.000              0.000
 Translational            0.889              2.981             40.409
 Rotational               0.889              2.981             28.661
 Vibrational            103.330             26.139             20.463
 Vibration     1          0.601              1.960              3.795
 Vibration     2          0.619              1.900              2.644
 Vibration     3          0.627              1.876              2.402
 Vibration     4          0.635              1.848              2.186
 Vibration     5          0.651              1.798              1.892
 Vibration     6          0.690              1.681              1.438
 Vibration     7          0.741              1.536              1.084
 Vibration     8          0.781              1.431              0.899
 Vibration     9          0.797              1.391              0.839
 Vibration    10          0.930              1.088              0.497
 Vibration    11          0.939              1.069              0.481

 Optimization completed.
    -- Stationary point found.
 Normal termination of Gaussian 09 at Tue Jan 28 02:45:32 2020.
