 Gaussian 09, Revision D.01,
 Gaussian 09:  ES64L-G09RevD.01 24-Apr-2013

 -----------------------------
 # b3lyp 6-31G(2df,p) opt Freq
 -----------------------------

 -----
 titel
 -----
 Symbolic Z-matrix:
 Charge =  0 Multiplicity = 1

 SCF Done:  E(RB3LYP) =  -423.179963475     A.U. after   13 cycles
 Optimization completed.
    -- Stationary point found.
 Normal termination of Gaussian 09 at Mon Jan 27 18:19:23 2020.

 ----------------------------------------------------------------------
 #N Geom=AllCheck Guess=TCheck SCRF=Check GenChk RB3LYP/6-31G(2df,p) Fr
 eq
 ----------------------------------------------------------------------

 Structure from the checkpoint file:  "/scratch/puck/g09_7411abc4-2441-41da-843d-94bf72fe7bd2/Gau-68795.chk"
 -----
 titel
 -----
 Charge =  0 Multiplicity = 1

                         Standard orientation:
 ---------------------------------------------------------------------
 Center     Atomic      Atomic             Coordinates (Angstroms)
 Number     Number       Type             X           Y           Z
 ---------------------------------------------------------------------
      1          8           0        0.874497    1.991986   -0.174846
      2          6           0        0.630776    0.628936   -0.075151
      3          6           0        1.785679   -0.366952    0.094573
      4          6           0        0.637038   -1.320340    0.540349
      5          6           0       -0.121590   -1.505787   -0.793741
      6          6           0       -0.386252   -0.002575   -1.065379
      7          8           0       -1.659422    0.376483   -0.526231
      8          6           0       -1.574127    0.100626    0.888151
      9          6           0       -0.077399   -0.054415    1.144173
     10          1           0        0.036444    2.418750   -0.390794
     11          1           0        2.376883   -0.645348   -0.782842
     12          1           0        2.443882   -0.078726    0.917502
     13          1           0        0.837509   -2.202335    1.146196
     14          1           0        0.502654   -1.982373   -1.555135
     15          1           0       -1.060471   -2.060418   -0.719097
     16          1           0       -0.345551    0.334094   -2.101552
     17          1           0       -2.009686    0.945451    1.433484
     18          1           0       -2.154153   -0.798423    1.136958
     19          1           0        0.287134    0.244615    2.126047
 ---------------------------------------------------------------------

 SCF Done:  E(RB3LYP) =  -423.179963475     A.U. after    1 cycles

 The electronic state is 1-A.
 Alpha  occ. eigenvalues --  -19.14207 -19.13648 -10.23527 -10.22817 -10.22526
 Alpha  occ. eigenvalues --  -10.19730 -10.18694 -10.18348 -10.18176  -1.04441
 Alpha  occ. eigenvalues --   -1.01757  -0.87803  -0.74634  -0.70099  -0.67320
 Alpha  occ. eigenvalues --   -0.61965  -0.56307  -0.54713  -0.53017  -0.48822
 Alpha  occ. eigenvalues --   -0.48187  -0.43509  -0.41891  -0.41268  -0.39420
 Alpha  occ. eigenvalues --   -0.38134  -0.36570  -0.35631  -0.33513  -0.32257
 Alpha  occ. eigenvalues --   -0.31721  -0.29504  -0.27020  -0.23124
 Alpha virt. eigenvalues --    0.08243   0.09597   0.11080   0.11793   0.12842
 Alpha virt. eigenvalues --    0.14059   0.14799   0.15391   0.16674   0.17129
 Alpha virt. eigenvalues --    0.17889   0.19111   0.20257   0.20475   0.22572

 Mulliken charges:
               1
     1  O   -0.496563
     2  C    0.439533
     3  C   -0.285655
     4  C   -0.052937
     5  C   -0.239714
     6  C    0.029520
     7  O   -0.285646
     8  C   -0.130039
     9  C   -0.097459
    10  H    0.285861
    11  H    0.092694
    12  H    0.106267
    13  H    0.067760
    14  H    0.098952
    15  H    0.106187
    16  H    0.077689
    17  H    0.105084
    18  H    0.099140
    19  H    0.079327
 Sum of Mulliken charges =   0.00000

 Dipole moment (field-independent basis, Debye):
    X=             -0.0222    Y=             -0.9930    Z=              0.5987  Tot=              1.1598
 Quadrupole moment (field-independent basis, Debye-Ang):
   XX=            -56.7920   YY=            -52.7895   ZZ=            -50.8595
   XY=             -2.8203   XZ=             -1.8528   YZ=             -0.0082

  Exact polarizability:  75.750  -1.856  72.773  -2.574   1.245  70.584
 Approx polarizability: 110.043  -1.583 107.549  -2.743  -0.313 107.021

                      1                      2                      3
                      A                      A                      A
 Frequencies --    227.5384               254.2793               300.9109
 Red. masses --      4.4432                 2.6313                 2.6407
 Frc consts  --      0.1355                 0.1002                 0.1409
 IR Inten    --      6.9636                 7.0803                 3.8328

                      4                      5                      6
                      A                      A                      A
 Frequencies --    364.3139               425.4451               453.5330
 Red. masses --      1.1500                 2.9412                 2.5977
 Frc consts  --      0.0899                 0.3137                 0.3148
 IR Inten    --     75.0077                 1.2306                 7.0092

                      7                      8                      9
                      A                      A                      A
 Frequencies --    468.0520               597.1338               635.7626
 Red. masses --      1.9887                 5.1076                 4.5225
 Frc consts  --      0.2567                 1.0730                 1.0770
 IR Inten    --      0.8330                 2.8831                12.1302

                     10                     11                     12
                      A                      A                      A
 Frequencies --    688.2090               742.2210               810.1959
 Red. masses --      3.5986                 4.0454                 2.8132
 Frc consts  --      1.0042                 1.3131                 1.0880
 IR Inten    --      1.8879                 7.2951                 0.9894

                     13                     14                     15
                      A                      A                      A
 Frequencies --    841.4601               880.8798               888.7143
 Red. masses --      2.5027                 2.5936                 3.9092
 Frc consts  --      1.0441                 1.1857                 1.8191
 IR Inten    --     11.2206                 0.7917                 0.9433

                     16                     17                     18
                      A                      A                      A
 Frequencies --    911.7206               940.4190               967.3721
 Red. masses --      2.7711                 1.8381                 1.8909
 Frc consts  --      1.3572                 0.9578                 1.0426
 IR Inten    --      8.6704                 2.5646                 7.9519

                     19                     20                     21
                      A                      A                      A
 Frequencies --    982.4243              1003.2003              1035.7163
 Red. masses --      1.5704                 1.6245                 1.9190
 Frc consts  --      0.8930                 0.9633                 1.2128
 IR Inten    --     20.5965                15.3547                 5.7886

                     22                     23                     24
                      A                      A                      A
 Frequencies --   1044.9273              1071.2640              1078.9043
 Red. masses --      2.1885                 1.8585                 1.7758
 Frc consts  --      1.4079                 1.2566                 1.2179
 IR Inten    --     19.0020                16.3359                20.6770

                     25                     26                     27
                      A                      A                      A
 Frequencies --   1108.8557              1137.4856              1163.4151
 Red. masses --      1.8388                 2.0855                 1.6002
 Frc consts  --      1.3321                 1.5898                 1.2762
 IR Inten    --     17.3919                27.6292                26.9110

                     28                     29                     30
                      A                      A                      A
 Frequencies --   1194.2039              1200.5441              1226.2081
 Red. masses --      1.4153                 1.4501                 1.4417
 Frc consts  --      1.1892                 1.2314                 1.2772
 IR Inten    --      2.3600                 0.5706                 7.5537

                     31                     32                     33
                      A                      A                      A
 Frequencies --   1239.7305              1249.4664              1295.0672
 Red. masses --      1.4519                 1.8845                 1.3560
 Frc consts  --      1.3148                 1.7334                 1.3400
 IR Inten    --      0.5138                50.9466                 0.2468

                     34                     35                     36
                      A                      A                      A
 Frequencies --   1317.5456              1328.6509              1342.2081
 Red. masses --      1.5280                 1.4895                 2.4097
 Frc consts  --      1.5628                 1.5492                 2.5577
 IR Inten    --     10.9510                11.6496               103.4754

                     37                     38                     39
                      A                      A                      A
 Frequencies --   1378.8577              1396.0528              1492.2443
 Red. masses --      1.5040                 1.8818                 1.1030
 Frc consts  --      1.6848                 2.1608                 1.4471
 IR Inten    --     29.8875                 4.2140                 1.4214

                     40                     41                     42
                      A                      A                      A
 Frequencies --   1514.0932              1525.7377              3007.8514
 Red. masses --      1.1486                 1.0908                 1.0639
 Frc consts  --      1.5514                 1.4960                 5.6711
 IR Inten    --      4.6260                 2.6539                63.8457

                     43                     44                     45
                      A                      A                      A
 Frequencies --   3052.7898              3055.7451              3057.4703
 Red. masses --      1.0593                 1.0936                 1.0662
 Frc consts  --      5.8167                 6.0165                 5.8723
 IR Inten    --     36.7353                12.5811                54.9745

                     46                     47                     48
                      A                      A                      A
 Frequencies --   3104.5961              3116.2429              3119.5622
 Red. masses --      1.1053                 1.1057                 1.0909
 Frc consts  --      6.2766                 6.3261                 6.2550
 IR Inten    --     19.5047                11.4417                47.1106

                     49                     50                     51
                      A                      A                      A
 Frequencies --   3125.0889              3133.8874              3786.7634
 Red. masses --      1.0889                 1.0908                 1.0654
 Frc consts  --      6.2658                 6.3119                 9.0013
 IR Inten    --     26.3848                31.3263                24.6626

 - Thermochemistry -
 -------------------
 Temperature   298.150 Kelvin.  Pressure   1.00000 Atm.
 Atom     1 has atomic number  8 and mass  15.99491

 Molecular mass:   126.06808 amu.
 Principal axes and moments of inertia in atomic units:
                           1         2         3
     Eigenvalues --   765.04085 829.318901072.31333
           X            0.99001  -0.13740  -0.03173
           Y            0.13825   0.99004   0.02662
           Z            0.02776  -0.03074   0.99914
 This molecule is an asymmetric top.
 Rotational symmetry number  1.
 Warning -- assumption of classical behavior for rotation
           may cause significant error
 Rotational temperatures (Kelvin)      0.11321     0.10444     0.08077
 Rotational constants (GHZ):           2.35901     2.17617     1.68304
 Zero-point vibrational energy     426378.8 (Joules/Mol)
                                  101.90697 (Kcal/Mol)
 Warning -- explicit consideration of   8 degrees of freedom as
           vibrations may cause significant error
 Vibrational temperatures:    327.38   365.85   432.94   524.17   612.12
          (Kelvin)            652.53   673.42   859.14   914.72   990.18
                             1067.89  1165.69  1210.67  1267.39  1278.66
                             1311.76  1353.05  1391.83  1413.49  1443.38
                             1490.16  1503.42  1541.31  1552.30  1595.39
                             1636.59  1673.89  1718.19  1727.31  1764.24
                             1783.69  1797.70  1863.31  1895.65  1911.63
                             1931.14  1983.87  2008.61  2147.00  2178.44
                             2195.19  4327.62  4392.28  4396.53  4399.01
                             4466.82  4483.57  4488.35  4496.30  4508.96
                             5448.30

 Zero-point correction=                           0.162399 (Hartree/Particle)
 Thermal correction to Energy=                    0.169112
 Thermal correction to Enthalpy=                  0.170056
 Thermal correction to Gibbs Free Energy=         0.131852
 Sum of electronic and zero-point Energies=           -423.017564
 Sum of electronic and thermal Energies=              -423.010852
 Sum of electronic and thermal Enthalpies=            -423.009908
 Sum of electronic and thermal Free Energies=         -423.048111

                     E (Thermal)             CV                S
                      KCal/Mol        Cal/Mol-Kelvin    Cal/Mol-Kelvin
 Total                  106.119             28.773             80.407
 Electronic               0.000              0.000              0.000
 Translational            0.889              2.981             40.409
 Rotational               0.889              2.981             28.011
 Vibrational            104.342             22.811             11.987
 Vibration     1          0.651              1.799              1.898
 Vibration     2          0.665              1.756              1.701
 Vibration     3          0.693              1.672              1.412
 Vibration     4          0.738              1.546              1.104
 Vibration     5          0.787              1.415              0.874
 Vibration     6          0.812              1.353              0.785
 Vibration     7          0.825              1.321              0.743
 Vibration     8          0.955              1.038              0.455

 Optimization completed.
    -- Stationary point found.
 Normal termination of Gaussian 09 at Mon Jan 27 19:11:05 2020.
