 Gaussian 09, Revision D.01,
 Gaussian 09:  ES64L-G09RevD.01 24-Apr-2013

 -----------------------------
 # b3lyp 6-31G(2df,p) opt Freq
 -----------------------------

 -----
 titel
 -----
 Symbolic Z-matrix:
 Charge =  0 Multiplicity = 1

 SCF Done:  E(RB3LYP) =  -423.128578254     A.U. after   14 cycles
 Optimization completed.
    -- Stationary point found.
 Normal termination of Gaussian 09 at Mon Jan 27 23:06:42 2020.

 ----------------------------------------------------------------------
 #N Geom=AllCheck Guess=TCheck SCRF=Check GenChk RB3LYP/6-31G(2df,p) Fr
 eq
 ----------------------------------------------------------------------

 Structure from the checkpoint file:  "/scratch/puck/g09_78c21fb3-e9b1-4ee5-895f-5fb081c331ab/Gau-56579.chk"
 -----
 titel
 -----
 Charge =  0 Multiplicity = 1

                         Standard orientation:
 ---------------------------------------------------------------------
 Center     Atomic      Atomic             Coordinates (Angstroms)
 Number     Number       Type             X           Y           Z
 ---------------------------------------------------------------------
      1          6           0       -0.315729    2.105137   -0.099562
      2          6           0       -0.941706    0.821419   -0.609824
      3          6           0       -1.973303    0.073988    0.277961
      4          6           0       -1.713145   -1.225934   -0.513451
      5          6           0       -0.357172   -0.561246   -0.165104
      6          6           0        1.037441   -1.119548   -0.292496
      7          6           0        2.082780   -0.247670    0.379564
      8          8           0        3.051331    0.199456   -0.178812
      9          8           0       -0.881942   -0.310772    1.207288
     10          1           0        0.616544    2.327000   -0.629125
     11          1           0       -0.992161    2.951926   -0.257298
     12          1           0       -0.100787    2.030077    0.968568
     13          1           0       -1.206555    0.878053   -1.670986
     14          1           0       -2.898376    0.439883    0.723159
     15          1           0       -1.923416   -2.146557    0.032049
     16          1           0       -2.016040   -1.265616   -1.562720
     17          1           0        1.056951   -2.103687    0.196269
     18          1           0        1.302732   -1.246358   -1.346014
     19          1           0        1.890994   -0.051061    1.455770
 ---------------------------------------------------------------------

 SCF Done:  E(RB3LYP) =  -423.128578254     A.U. after    1 cycles

 The electronic state is 1-A.
 Alpha  occ. eigenvalues --  -19.14191 -19.13720 -10.27453 -10.26264 -10.25250
 Alpha  occ. eigenvalues --  -10.20363 -10.20336 -10.19839 -10.17690  -1.06076
 Alpha  occ. eigenvalues --   -1.04832  -0.80715  -0.77775  -0.73958  -0.63767
 Alpha  occ. eigenvalues --   -0.63363  -0.58269  -0.53249  -0.50611  -0.48072
 Alpha  occ. eigenvalues --   -0.46239  -0.44988  -0.44067  -0.42973  -0.40832
 Alpha  occ. eigenvalues --   -0.38491  -0.37966  -0.37649  -0.34836  -0.33471
 Alpha  occ. eigenvalues --   -0.32502  -0.30779  -0.25512  -0.24295
 Alpha virt. eigenvalues --   -0.02559   0.08569   0.10006   0.10972   0.11485
 Alpha virt. eigenvalues --    0.12250   0.13198   0.13653   0.14292   0.15954
 Alpha virt. eigenvalues --    0.16916   0.17572   0.18013   0.18649   0.18976

 Mulliken charges:
               1
     1  C   -0.441710
     2  C    0.005516
     3  C    0.037003
     4  C   -0.268667
     5  C    0.388795
     6  C   -0.414753
     7  C    0.160625
     8  O   -0.242266
     9  O   -0.347375
    10  H    0.131499
    11  H    0.116244
    12  H    0.135763
    13  H    0.072430
    14  H    0.097369
    15  H    0.107671
    16  H    0.097922
    17  H    0.132745
    18  H    0.129539
    19  H    0.101648
 Sum of Mulliken charges =   0.00000

 Dipole moment (field-independent basis, Debye):
    X=             -2.5065    Y=             -0.8253    Z=             -0.9831  Tot=              2.8160
 Quadrupole moment (field-independent basis, Debye-Ang):
   XX=            -59.9212   YY=            -50.8430   ZZ=            -54.3829
   XY=             -3.2730   XZ=              3.2174   YZ=              0.6075

  Exact polarizability:  85.193   3.736  76.599  -1.126   0.982  66.921
 Approx polarizability: 120.314   5.839 106.960  -5.532  -1.576 111.001

                      1                      2                      3
                      A                      A                      A
 Frequencies --     52.5039                61.7535               154.1719
 Red. masses --      5.7179                 3.2822                 2.7458
 Frc consts  --      0.0093                 0.0074                 0.0385
 IR Inten    --      6.5834                 2.2955                 3.4863

                      4                      5                      6
                      A                      A                      A
 Frequencies --    224.5838               241.0201               291.9309
 Red. masses --      1.2977                 1.8445                 2.9698
 Frc consts  --      0.0386                 0.0631                 0.1491
 IR Inten    --      1.4530                 1.6221                 3.0607

                      7                      8                      9
                      A                      A                      A
 Frequencies --    343.3116               375.7232               464.3688
 Red. masses --      2.4955                 3.3656                 3.0868
 Frc consts  --      0.1733                 0.2799                 0.3922
 IR Inten    --      3.6507                 1.0755                11.6321

                     10                     11                     12
                      A                      A                      A
 Frequencies --    525.3841               636.6335               675.4751
 Red. masses --      2.3107                 2.6309                 3.4990
 Frc consts  --      0.3758                 0.6283                 0.9406
 IR Inten    --      5.0958                 6.1812                 6.7985

                     13                     14                     15
                      A                      A                      A
 Frequencies --    721.9462               784.9157               793.2651
 Red. masses --      4.1370                 2.2834                 2.8110
 Frc consts  --      1.2704                 0.8289                 1.0422
 IR Inten    --     14.1646                 2.6773                 3.3925

                     16                     17                     18
                      A                      A                      A
 Frequencies --    836.4785               905.7881               938.4847
 Red. masses --      1.9646                 3.0435                 3.0227
 Frc consts  --      0.8099                 1.4712                 1.5686
 IR Inten    --      6.7381                15.4183                 1.9704

                     19                     20                     21
                      A                      A                      A
 Frequencies --    952.9640              1014.9033              1023.1699
 Red. masses --      2.1599                 1.2128                 1.6463
 Frc consts  --      1.1557                 0.7360                 1.0154
 IR Inten    --      6.9944                 5.2353                 5.0711

                     22                     23                     24
                      A                      A                      A
 Frequencies --   1042.9967              1073.8035              1090.3354
 Red. masses --      1.4031                 1.8579                 2.3028
 Frc consts  --      0.8993                 1.2622                 1.6130
 IR Inten    --     25.0950                13.8373                18.6471

                     25                     26                     27
                      A                      A                      A
 Frequencies --   1120.6976              1147.8423              1167.0239
 Red. masses --      1.7170                 2.3578                 1.5294
 Frc consts  --      1.2705                 1.8303                 1.2273
 IR Inten    --      6.4615                 2.1845                 4.5381

                     28                     29                     30
                      A                      A                      A
 Frequencies --   1207.6403              1212.8821              1225.2386
 Red. masses --      1.7077                 1.4916                 1.4410
 Frc consts  --      1.4673                 1.2929                 1.2745
 IR Inten    --      4.0004                 4.6715                 3.1767

                     31                     32                     33
                      A                      A                      A
 Frequencies --   1251.0810              1285.0841              1343.0796
 Red. masses --      1.7773                 1.5219                 2.8396
 Frc consts  --      1.6390                 1.4808                 3.0179
 IR Inten    --     17.8073                 7.4290                29.7277

                     34                     35                     36
                      A                      A                      A
 Frequencies --   1394.3281              1412.2901              1424.5098
 Red. masses --      1.3260                 1.5080                 1.1984
 Frc consts  --      1.5189                 1.7722                 1.4328
 IR Inten    --      2.2710                 7.9762                 6.1146

                     37                     38                     39
                      A                      A                      A
 Frequencies --   1445.3064              1487.6648              1500.8079
 Red. masses --      1.0961                 1.1318                 1.1450
 Frc consts  --      1.3490                 1.4758                 1.5195
 IR Inten    --      7.3023                 3.0479                 6.7873

                     40                     41                     42
                      A                      A                      A
 Frequencies --   1505.4575              1830.6560              2911.8681
 Red. masses --      1.0490                 9.8302                 1.0840
 Frc consts  --      1.4007                19.4100                 5.4155
 IR Inten    --      6.8291               166.3295                62.8122

                     43                     44                     45
                      A                      A                      A
 Frequencies --   3021.9840              3038.8159              3052.1723
 Red. masses --      1.0638                 1.0391                 1.0780
 Frc consts  --      5.7237                 5.6537                 5.9166
 IR Inten    --      7.4991                19.8587                19.0163

                     46                     47                     48
                      A                      A                      A
 Frequencies --   3066.9686              3098.4857              3103.5423
 Red. masses --      1.0600                 1.1005                 1.0970
 Frc consts  --      5.8744                 6.2251                 6.2254
 IR Inten    --     45.1216                18.6275                 6.3134

                     49                     50                     51
                      A                      A                      A
 Frequencies --   3122.2071              3132.0797              3148.7618
 Red. masses --      1.0937                 1.0999                 1.1101
 Frc consts  --      6.2814                 6.3571                 6.4850
 IR Inten    --     50.3948                10.4458                24.6563

 - Thermochemistry -
 -------------------
 Temperature   298.150 Kelvin.  Pressure   1.00000 Atm.
 Atom     1 has atomic number  6 and mass  12.00000

 Molecular mass:   126.06808 amu.
 Principal axes and moments of inertia in atomic units:
                           1         2         3
     Eigenvalues --   640.785801406.391571713.81051
           X            0.99989  -0.00661   0.01328
           Y            0.00636   0.99980   0.01894
           Z           -0.01340  -0.01885   0.99973
 This molecule is an asymmetric top.
 Rotational symmetry number  1.
 Warning -- assumption of classical behavior for rotation
           may cause significant error
 Rotational temperatures (Kelvin)      0.13517     0.06159     0.05054
 Rotational constants (GHZ):           2.81645     1.28324     1.05306
 Zero-point vibrational energy     412020.1 (Joules/Mol)
                                   98.47517 (Kcal/Mol)
 Warning -- explicit consideration of  10 degrees of freedom as
           vibrations may cause significant error
 Vibrational temperatures:     75.54    88.85   221.82   323.13   346.77
          (Kelvin)            420.02   493.95   540.58   668.12   755.91
                              915.97   971.86  1038.72  1129.32  1141.33
                             1203.50  1303.23  1350.27  1371.10  1460.22
                             1472.11  1500.64  1544.96  1568.75  1612.43
                             1651.49  1679.09  1737.52  1745.06  1762.84
                             1800.02  1848.95  1932.39  2006.12  2031.97
                             2049.55  2079.47  2140.42  2159.33  2166.01
                             2633.90  4189.52  4347.96  4372.17  4391.39
                             4412.68  4458.02  4465.30  4492.15  4506.36
                             4530.36

 Zero-point correction=                           0.156930 (Hartree/Particle)
 Thermal correction to Energy=                    0.165737
 Thermal correction to Enthalpy=                  0.166681
 Thermal correction to Gibbs Free Energy=         0.122685
 Sum of electronic and zero-point Energies=           -422.971648
 Sum of electronic and thermal Energies=              -422.962841
 Sum of electronic and thermal Enthalpies=            -422.961897
 Sum of electronic and thermal Free Energies=         -423.005893

                     E (Thermal)             CV                S
                      KCal/Mol        Cal/Mol-Kelvin    Cal/Mol-Kelvin
 Total                  104.002             32.696             92.598
 Electronic               0.000              0.000              0.000
 Translational            0.889              2.981             40.409
 Rotational               0.889              2.981             28.826
 Vibrational            102.224             26.735             23.364
 Vibration     1          0.596              1.977              4.721
 Vibration     2          0.597              1.973              4.400
 Vibration     3          0.620              1.898              2.620
 Vibration     4          0.649              1.804              1.922
 Vibration     5          0.658              1.778              1.795
 Vibration     6          0.687              1.689              1.463
 Vibration     7          0.722              1.589              1.197
 Vibration     8          0.747              1.522              1.056
 Vibration     9          0.822              1.329              0.753
 Vibration    10          0.880              1.194              0.598

 Optimization completed.
    -- Stationary point found.
 Normal termination of Gaussian 09 at Mon Jan 27 23:52:18 2020.
