 Gaussian 09, Revision D.01,
 Gaussian 09:  ES64L-G09RevD.01 24-Apr-2013

 -----------------------------
 # b3lyp 6-31G(2df,p) opt Freq
 -----------------------------

 -----
 titel
 -----
 Symbolic Z-matrix:
 Charge =  0 Multiplicity = 1

 SCF Done:  E(RB3LYP) =  -423.152718596     A.U. after   13 cycles
 Optimization completed.
    -- Stationary point found.
 Normal termination of Gaussian 09 at Tue Jan 28 04:01:38 2020.

 ----------------------------------------------------------------------
 #N Geom=AllCheck Guess=TCheck SCRF=Check GenChk RB3LYP/6-31G(2df,p) Fr
 eq
 ----------------------------------------------------------------------

 Structure from the checkpoint file:  "/scratch/puck/g09_ec9f861b-fcaa-44ae-ab5a-77a1a616be4a/Gau-93565.chk"
 -----
 titel
 -----
 Charge =  0 Multiplicity = 1

                         Standard orientation:
 ---------------------------------------------------------------------
 Center     Atomic      Atomic             Coordinates (Angstroms)
 Number     Number       Type             X           Y           Z
 ---------------------------------------------------------------------
      1          8           0       -3.059198   -0.040491    0.051144
      2          6           0       -1.705156   -0.011009   -0.373831
      3          6           0       -1.075031    1.274638    0.154485
      4          6           0        0.433112    1.288031   -0.126569
      5          6           0        1.084526   -0.009929    0.389869
      6          8           0        0.446487   -1.155676   -0.173098
      7          6           0       -0.927271   -1.218333    0.168465
      8          6           0        2.507594   -0.074446    0.073053
      9          6           0        3.681425   -0.085702   -0.180507
     10          1           0       -3.488750   -0.797649   -0.359866
     11          1           0       -1.635432   -0.020459   -1.473460
     12          1           0       -1.565249    2.144827   -0.292513
     13          1           0       -1.260029    1.322720    1.235654
     14          1           0        0.625784    1.359333   -1.202656
     15          1           0        0.912251    2.149270    0.349301
     16          1           0        0.965834   -0.043685    1.488297
     17          1           0       -1.303512   -2.154566   -0.257907
     18          1           0       -1.063920   -1.261136    1.262367
     19          1           0        4.719526   -0.108818   -0.403366
 ---------------------------------------------------------------------

 SCF Done:  E(RB3LYP) =  -423.152718596     A.U. after    1 cycles

 The electronic state is 1-A.
 Alpha  occ. eigenvalues --  -19.14590 -19.14150 -10.25725 -10.23325 -10.22799
 Alpha  occ. eigenvalues --  -10.19033 -10.18511 -10.18173 -10.17662  -1.04259
 Alpha  occ. eigenvalues --   -1.02184  -0.80492  -0.78213  -0.72689  -0.65647
 Alpha  occ. eigenvalues --   -0.64381  -0.57449  -0.53896  -0.51720  -0.49920
 Alpha  occ. eigenvalues --   -0.49161  -0.45973  -0.44633  -0.41535  -0.39135
 Alpha  occ. eigenvalues --   -0.38350  -0.36690  -0.35261  -0.34157  -0.30915
 Alpha  occ. eigenvalues --   -0.28915  -0.27537  -0.26821  -0.24719
 Alpha virt. eigenvalues --    0.03611   0.05386   0.06952   0.09601   0.11021
 Alpha virt. eigenvalues --    0.12674   0.13493   0.15337   0.16073   0.17091
 Alpha virt. eigenvalues --    0.17529   0.17826   0.18967   0.21675   0.22261

 Mulliken charges:
               1
     1  O   -0.431204
     2  C    0.115345
     3  C   -0.223756
     4  C   -0.215603
     5  C   -0.057250
     6  O   -0.256727
     7  C   -0.098615
     8  C    0.294723
     9  C   -0.406431
    10  H    0.284646
    11  H    0.072882
    12  H    0.106590
    13  H    0.106998
    14  H    0.115568
    15  H    0.111259
    16  H    0.094017
    17  H    0.097576
    18  H    0.094240
    19  H    0.195741
 Sum of Mulliken charges =   0.00000

 Dipole moment (field-independent basis, Debye):
    X=             -0.4980    Y=              0.1457    Z=             -0.2851  Tot=              0.5920
 Quadrupole moment (field-independent basis, Debye-Ang):
   XX=            -49.8773   YY=            -52.9982   ZZ=            -52.8044
   XY=              5.9059   XZ=              2.4874   YZ=              0.1538

  Exact polarizability: 106.927   2.875  67.178  -3.401   0.463  60.159
 Approx polarizability: 144.306   2.887  95.006  -9.853   2.618  95.301

                      1                      2                      3
                      A                      A                      A
 Frequencies --     83.2219               141.2434               204.3781
 Red. masses --      4.8277                 4.1842                 3.2096
 Frc consts  --      0.0197                 0.0492                 0.0790
 IR Inten    --      0.3032                 0.5919                 2.0953

                      4                      5                      6
                      A                      A                      A
 Frequencies --    234.2663               287.5329               326.8845
 Red. masses --      2.1271                 1.0739                 4.4864
 Frc consts  --      0.0688                 0.0523                 0.2824
 IR Inten    --      8.9623                98.9796                 8.4965

                      7                      8                      9
                      A                      A                      A
 Frequencies --    331.2115               378.8707               442.3672
 Red. masses --      3.6322                 5.6725                 4.3341
 Frc consts  --      0.2348                 0.4797                 0.4997
 IR Inten    --      5.8825                 2.6536                 0.4144

                     10                     11                     12
                      A                      A                      A
 Frequencies --    460.4702               534.1681               541.2622
 Red. masses --      1.9447                 3.8084                 3.8344
 Frc consts  --      0.2429                 0.6403                 0.6619
 IR Inten    --      5.1463                 5.4928                 2.7847

                     13                     14                     15
                      A                      A                      A
 Frequencies --    605.9655               622.2184               672.4918
 Red. masses --      4.7783                 1.2168                 1.2582
 Frc consts  --      1.0338                 0.2776                 0.3352
 IR Inten    --      1.5287                43.1469                33.5092

                     16                     17                     18
                      A                      A                      A
 Frequencies --    805.6406               850.2484               904.6981
 Red. masses --      2.5163                 1.6235                 2.6462
 Frc consts  --      0.9623                 0.6915                 1.2761
 IR Inten    --      2.1010                 5.3492                21.5866

                     19                     20                     21
                      A                      A                      A
 Frequencies --    958.9937               979.0699              1035.8271
 Red. masses --      1.6649                 2.2135                 4.0353
 Frc consts  --      0.9021                 1.2502                 2.5509
 IR Inten    --      1.9152                12.1960                17.6622

                     22                     23                     24
                      A                      A                      A
 Frequencies --   1057.7802              1091.6916              1106.9621
 Red. masses --      2.1475                 2.0247                 4.3524
 Frc consts  --      1.4157                 1.4217                 3.1423
 IR Inten    --     11.5045                60.3194                 6.1356

                     25                     26                     27
                      A                      A                      A
 Frequencies --   1119.1135              1124.5416              1185.2188
 Red. masses --      5.3513                 2.2464                 1.3657
 Frc consts  --      3.9487                 1.6737                 1.1304
 IR Inten    --    194.4322                 5.2035                21.6677

                     28                     29                     30
                      A                      A                      A
 Frequencies --   1236.5175              1262.2469              1294.4445
 Red. masses --      1.4117                 1.1632                 1.2935
 Frc consts  --      1.2718                 1.0920                 1.2770
 IR Inten    --     24.3551                31.5807                 3.0931

                     31                     32                     33
                      A                      A                      A
 Frequencies --   1322.9661              1343.2276              1347.0452
 Red. masses --      1.2371                 1.2432                 1.3292
 Frc consts  --      1.2757                 1.3216                 1.4211
 IR Inten    --      8.1575                 1.1301                14.8935

                     34                     35                     36
                      A                      A                      A
 Frequencies --   1366.2176              1385.6568              1402.7057
 Red. masses --      1.2266                 1.5810                 1.4505
 Frc consts  --      1.3489                 1.7885                 1.6815
 IR Inten    --     13.1699                21.9224                 2.5398

                     37                     38                     39
                      A                      A                      A
 Frequencies --   1441.9244              1479.0449              1487.6517
 Red. masses --      1.5309                 1.0918                 1.0899
 Frc consts  --      1.8754                 1.4073                 1.4212
 IR Inten    --      3.6091                 3.1338                 1.5229

                     40                     41                     42
                      A                      A                      A
 Frequencies --   1501.5588              2245.9252              2935.6788
 Red. masses --      1.1049                 5.9059                 1.0800
 Frc consts  --      1.4678                17.5521                 5.4841
 IR Inten    --      4.1804                 1.2229                28.2403

                     43                     44                     45
                      A                      A                      A
 Frequencies --   2965.0532              2978.1240              3029.5121
 Red. masses --      1.0714                 1.0785                 1.0643
 Frc consts  --      5.5496                 5.6360                 5.7550
 IR Inten    --     12.6861                74.6036                26.1531

                     46                     47                     48
                      A                      A                      A
 Frequencies --   3046.7468              3069.6384              3084.5517
 Red. masses --      1.0604                 1.0954                 1.0975
 Frc consts  --      5.7993                 6.0814                 6.1525
 IR Inten    --     17.4778                43.6612                23.8889

                     49                     50                     51
                      A                      A                      A
 Frequencies --   3095.6686              3504.4249              3814.8538
 Red. masses --      1.1048                 1.1635                 1.0662
 Frc consts  --      6.2382                 8.4188                 9.1422
 IR Inten    --     30.5895                65.3462                19.1135

 - Thermochemistry -
 -------------------
 Temperature   298.150 Kelvin.  Pressure   1.00000 Atm.
 Atom     1 has atomic number  8 and mass  15.99491

 Molecular mass:   126.06808 amu.
 Principal axes and moments of inertia in atomic units:
                           1         2         3
     Eigenvalues --   405.003431884.700302183.40084
           X            0.99995   0.00991   0.00123
           Y           -0.00990   0.99993  -0.00716
           Z           -0.00131   0.00715   0.99997
 This molecule is an asymmetric top.
 Rotational symmetry number  1.
 Rotational temperatures (Kelvin)      0.21386     0.04596     0.03967
 Rotational constants (GHZ):           4.45611     0.95757     0.82657
 Zero-point vibrational energy     417064.4 (Joules/Mol)
                                   99.68078 (Kcal/Mol)
 Warning -- explicit consideration of  13 degrees of freedom as
           vibrations may cause significant error
 Vibrational temperatures:    119.74   203.22   294.05   337.06   413.70
          (Kelvin)            470.31   476.54   545.11   636.47   662.51
                              768.55   778.75   871.85   895.23   967.56
                             1159.14  1223.32  1301.66  1379.78  1408.66
                             1490.32  1521.91  1570.70  1592.67  1610.15
                             1617.96  1705.26  1779.07  1816.09  1862.41
                             1903.45  1932.60  1938.10  1965.68  1993.65
                             2018.18  2074.61  2128.01  2140.40  2160.41
                             3231.38  4223.78  4266.04  4284.85  4358.79
                             4383.58  4416.52  4437.98  4453.97  5042.08
                             5488.72

 Zero-point correction=                           0.158851 (Hartree/Particle)
 Thermal correction to Energy=                    0.167626
 Thermal correction to Enthalpy=                  0.168570
 Thermal correction to Gibbs Free Energy=         0.125683
 Sum of electronic and zero-point Energies=           -422.993867
 Sum of electronic and thermal Energies=              -422.985093
 Sum of electronic and thermal Enthalpies=            -422.984149
 Sum of electronic and thermal Free Energies=         -423.027036

                     E (Thermal)             CV                S
                      KCal/Mol        Cal/Mol-Kelvin    Cal/Mol-Kelvin
 Total                  105.187             33.887             90.264
 Electronic               0.000              0.000              0.000
 Translational            0.889              2.981             40.409
 Rotational               0.889              2.981             28.901
 Vibrational            103.409             27.925             20.955
 Vibration     1          0.600              1.961              3.813
 Vibration     2          0.615              1.912              2.787
 Vibration     3          0.640              1.834              2.093
 Vibration     4          0.654              1.788              1.846
 Vibration     5          0.685              1.697              1.488
 Vibration     6          0.711              1.622              1.275
 Vibration     7          0.714              1.613              1.254
 Vibration     8          0.749              1.515              1.044
 Vibration     9          0.802              1.378              0.819
 Vibration    10          0.818              1.338              0.765
 Vibration    11          0.889              1.174              0.578
 Vibration    12          0.896              1.159              0.563
 Vibration    13          0.965              1.019              0.440

 Optimization completed.
    -- Stationary point found.
 Normal termination of Gaussian 09 at Tue Jan 28 04:42:36 2020.
