 Gaussian 09, Revision D.01,
 Gaussian 09:  ES64L-G09RevD.01 24-Apr-2013

 -----------------------------
 # b3lyp 6-31G(2df,p) opt Freq
 -----------------------------

 -----
 titel
 -----
 Symbolic Z-matrix:
 Charge =  0 Multiplicity = 1

 SCF Done:  E(RB3LYP) =  -423.104481647     A.U. after   14 cycles
 Optimization completed.
    -- Stationary point found.
 Normal termination of Gaussian 09 at Mon Jan 27 22:08:06 2020.

 ----------------------------------------------------------------------
 #N Geom=AllCheck Guess=TCheck SCRF=Check GenChk RB3LYP/6-31G(2df,p) Fr
 eq
 ----------------------------------------------------------------------

 Structure from the checkpoint file:  "/scratch/puck/g09_60d12183-83ed-414d-b642-6540d9116f32/Gau-159553.chk"
 -----
 titel
 -----
 Charge =  0 Multiplicity = 1

                         Standard orientation:
 ---------------------------------------------------------------------
 Center     Atomic      Atomic             Coordinates (Angstroms)
 Number     Number       Type             X           Y           Z
 ---------------------------------------------------------------------
      1          6           0       -2.567849   -0.608782   -0.001010
      2          6           0       -1.183738   -0.044388    0.002917
      3          8           0       -1.014512    1.407978    0.004452
      4          6           0        0.354352    0.888144    0.004541
      5          6           0        1.497519    1.848250    0.004487
      6          6           0        0.021036   -0.301992   -0.961645
      7          6           0        0.634408   -1.330773   -0.007284
      8          8           0        2.041663   -1.413763   -0.092188
      9          6           0        0.019858   -0.304261    0.967898
     10          1           0       -3.118089   -0.280876    0.886359
     11          1           0       -3.114664   -0.274410   -0.888066
     12          1           0       -2.537073   -1.702856   -0.005255
     13          1           0        1.464089    2.485353    0.894112
     14          1           0        2.437826    1.292020   -0.003360
     15          1           0        1.456798    2.491746   -0.880057
     16          1           0        0.009059   -0.281542   -2.051488
     17          1           0        0.173144   -2.327984   -0.011036
     18          1           0        2.357002   -1.949315    0.642543
     19          1           0        0.001183   -0.283057    2.058717
 ---------------------------------------------------------------------

 SCF Done:  E(RB3LYP) =  -423.104481647     A.U. after    1 cycles

 The electronic state is 1-A.
 Alpha  occ. eigenvalues --  -19.14096 -19.11674 -10.24784 -10.24526 -10.23726
 Alpha  occ. eigenvalues --  -10.19048 -10.18999 -10.18424 -10.17544  -1.05383
 Alpha  occ. eigenvalues --   -1.02123  -0.85472  -0.75484  -0.72193  -0.64511
 Alpha  occ. eigenvalues --   -0.63177  -0.56793  -0.51555  -0.50531  -0.47468
 Alpha  occ. eigenvalues --   -0.45024  -0.44534  -0.43367  -0.42081  -0.40563
 Alpha  occ. eigenvalues --   -0.39575  -0.36919  -0.35352  -0.33039  -0.31129
 Alpha  occ. eigenvalues --   -0.29940  -0.28433  -0.26428  -0.22279
 Alpha virt. eigenvalues --    0.07389   0.09917   0.10821   0.11693   0.12580
 Alpha virt. eigenvalues --    0.13634   0.14161   0.14400   0.16120   0.16309
 Alpha virt. eigenvalues --    0.17207   0.18155   0.19107   0.19678   0.22440

 Mulliken charges:
               1
     1  C   -0.527214
     2  C    0.458645
     3  O   -0.390539
     4  C    0.477028
     5  C   -0.529792
     6  C   -0.206109
     7  C    0.098962
     8  O   -0.441080
     9  C   -0.239568
    10  H    0.134415
    11  H    0.135548
    12  H    0.126308
    13  H    0.127200
    14  H    0.144312
    15  H    0.129934
    16  H    0.078676
    17  H    0.066650
    18  H    0.283888
    19  H    0.072738
 Sum of Mulliken charges =   0.00000

 Dipole moment (field-independent basis, Debye):
    X=              0.2758    Y=             -2.0260    Z=              1.0511  Tot=              2.2990
 Quadrupole moment (field-independent basis, Debye-Ang):
   XX=            -52.6104   YY=            -52.7109   ZZ=            -51.0756
   XY=              2.7877   XZ=              3.0432   YZ=             -2.5115

  Exact polarizability:  83.650   3.257  76.208   1.051  -1.034  67.279
 Approx polarizability: 113.745  -0.761 110.736   0.732  -1.538 105.974

                      1                      2                      3
                      A                      A                      A
 Frequencies --    166.1831               193.3686               208.3810
 Red. masses --      3.8663                 1.1632                 1.2886
 Frc consts  --      0.0629                 0.0256                 0.0330
 IR Inten    --      0.6152                 0.4919                 0.5912

                      4                      5                      6
                      A                      A                      A
 Frequencies --    217.9486               228.9477               270.9937
 Red. masses --      1.4766                 2.5078                 2.0664
 Frc consts  --      0.0413                 0.0774                 0.0894
 IR Inten    --      2.7749                 2.3110                21.5132

                      7                      8                      9
                      A                      A                      A
 Frequencies --    290.6556               365.4994               405.9515
 Red. masses --      1.3713                 4.1268                 2.8174
 Frc consts  --      0.0683                 0.3248                 0.2736
 IR Inten    --     81.5266                 4.6250                 4.0548

                     10                     11                     12
                      A                      A                      A
 Frequencies --    556.4136               560.3498               592.0014
 Red. masses --      5.0616                 3.4912                 3.8139
 Frc consts  --      0.9233                 0.6459                 0.7875
 IR Inten    --     11.5239                 0.7102                 0.0960

                     13                     14                     15
                      A                      A                      A
 Frequencies --    675.9006               731.6135               757.7603
 Red. masses --      3.4339                 3.5514                 3.5581
 Frc consts  --      0.9243                 1.1200                 1.2037
 IR Inten    --      1.8130                 0.5367                22.5120

                     16                     17                     18
                      A                      A                      A
 Frequencies --    794.3017               849.1094               881.7641
 Red. masses --      2.4475                 2.2454                 2.8393
 Frc consts  --      0.9098                 0.9538                 1.3007
 IR Inten    --      6.1476                 1.0212                41.7823

                     19                     20                     21
                      A                      A                      A
 Frequencies --    921.9063               927.0341              1016.9138
 Red. masses --      1.7763                 2.0702                 1.4231
 Frc consts  --      0.8895                 1.0482                 0.8671
 IR Inten    --      2.9560                 0.4377                 2.0613

                     22                     23                     24
                      A                      A                      A
 Frequencies --   1057.7416              1073.8700              1081.2629
 Red. masses --      2.1031                 1.6073                 3.9548
 Frc consts  --      1.3863                 1.0920                 2.7242
 IR Inten    --     31.1234                 2.9962                 6.7914

                     25                     26                     27
                      A                      A                      A
 Frequencies --   1107.1629              1114.5079              1123.5103
 Red. masses --      1.8037                 2.5057                 1.7358
 Frc consts  --      1.3027                 1.8338                 1.2909
 IR Inten    --     16.0677                57.0967                 7.7041

                     28                     29                     30
                      A                      A                      A
 Frequencies --   1173.0692              1199.6563              1218.2638
 Red. masses --      1.7346                 1.5400                 2.8723
 Frc consts  --      1.4064                 1.3058                 2.5116
 IR Inten    --      3.0406                41.4822                32.7814

                     31                     32                     33
                      A                      A                      A
 Frequencies --   1257.7086              1277.6678              1309.9412
 Red. masses --      2.2180                 3.0260                 1.4164
 Frc consts  --      2.0671                 2.9104                 1.4320
 IR Inten    --     43.4630                42.5763                56.6903

                     34                     35                     36
                      A                      A                      A
 Frequencies --   1387.8535              1406.8260              1429.8556
 Red. masses --      1.2959                 1.4048                 1.5683
 Frc consts  --      1.4706                 1.6381                 1.8892
 IR Inten    --      2.7143                21.0795                 5.0323

                     37                     38                     39
                      A                      A                      A
 Frequencies --   1448.3837              1474.0812              1482.5434
 Red. masses --      4.1116                 1.0462                 1.0473
 Frc consts  --      5.0819                 1.3394                 1.3563
 IR Inten    --      3.3788                 3.1102                 4.2083

                     40                     41                     42
                      A                      A                      A
 Frequencies --   1489.1473              1493.5344              3005.3387
 Red. masses --      1.0479                 1.0530                 1.0838
 Frc consts  --      1.3692                 1.3839                 5.7675
 IR Inten    --      3.1079                 2.7658                69.9150

                     43                     44                     45
                      A                      A                      A
 Frequencies --   3038.0532              3040.3413              3106.4439
 Red. masses --      1.0347                 1.0354                 1.0922
 Frc consts  --      5.6265                 5.6392                 6.2098
 IR Inten    --     20.8961                18.6862                64.4885

                     46                     47                     48
                      A                      A                      A
 Frequencies --   3106.7502              3110.7491              3113.0771
 Red. masses --      1.1008                 1.1017                 1.1009
 Frc consts  --      6.2600                 6.2813                 6.2858
 IR Inten    --      2.3496                10.6943                14.9124

                     49                     50                     51
                      A                      A                      A
 Frequencies --   3121.3956              3135.0664              3818.8230
 Red. masses --      1.0929                 1.1002                 1.0662
 Frc consts  --      6.2736                 6.3711                 9.1610
 IR Inten    --     21.4621                 6.4384                26.2893

 - Thermochemistry -
 -------------------
 Temperature   298.150 Kelvin.  Pressure   1.00000 Atm.
 Atom     1 has atomic number  6 and mass  12.00000

 Molecular mass:   126.06808 amu.
 Principal axes and moments of inertia in atomic units:
                           1         2         3
     Eigenvalues --   720.758201036.894461510.85168
           X            0.99155   0.12958   0.00645
           Y           -0.12953   0.99154  -0.00838
           Z           -0.00748   0.00747   0.99994
 This molecule is an asymmetric top.
 Rotational symmetry number  1.
 Warning -- assumption of classical behavior for rotation
           may cause significant error
 Rotational temperatures (Kelvin)      0.12017     0.08353     0.05733
 Rotational constants (GHZ):           2.50395     1.74053     1.19452
 Zero-point vibrational energy     411608.8 (Joules/Mol)
                                   98.37687 (Kcal/Mol)
 Warning -- explicit consideration of  12 degrees of freedom as
           vibrations may cause significant error
 Vibrational temperatures:    239.10   278.21   299.81   313.58   329.40
          (Kelvin)            389.90   418.19   525.87   584.07   800.55
                              806.22   851.76   972.47  1052.63  1090.25
                             1142.82  1221.68  1268.66  1326.42  1333.79
                             1463.11  1521.85  1545.06  1555.69  1592.96
                             1603.53  1616.48  1687.78  1726.04  1752.81
                             1809.56  1838.28  1884.71  1996.81  2024.11
                             2057.24  2083.90  2120.87  2133.05  2142.55
                             2148.86  4324.01  4371.08  4374.37  4469.47
                             4469.91  4475.67  4479.02  4490.99  4510.66
                             5494.43

 Zero-point correction=                           0.156774 (Hartree/Particle)
 Thermal correction to Energy=                    0.165403
 Thermal correction to Enthalpy=                  0.166347
 Thermal correction to Gibbs Free Energy=         0.124261
 Sum of electronic and zero-point Energies=           -422.947708
 Sum of electronic and thermal Energies=              -422.939079
 Sum of electronic and thermal Enthalpies=            -422.938135
 Sum of electronic and thermal Free Energies=         -422.980221

                     E (Thermal)             CV                S
                      KCal/Mol        Cal/Mol-Kelvin    Cal/Mol-Kelvin
 Total                  103.792             33.795             88.578
 Electronic               0.000              0.000              0.000
 Translational            0.889              2.981             40.409
 Rotational               0.889              2.981             28.514
 Vibrational            102.014             27.833             19.655
 Vibration     1          0.624              1.884              2.478
 Vibration     2          0.635              1.849              2.195
 Vibration     3          0.642              1.828              2.058
 Vibration     4          0.646              1.814              1.976
 Vibration     5          0.652              1.797              1.887
 Vibration     6          0.675              1.727              1.590
 Vibration     7          0.687              1.691              1.470
 Vibration     8          0.739              1.543              1.099
 Vibration     9          0.771              1.457              0.941
 Vibration    10          0.912              1.126              0.531
 Vibration    11          0.916              1.117              0.523
 Vibration    12          0.949              1.049              0.464

 Optimization completed.
    -- Stationary point found.
 Normal termination of Gaussian 09 at Mon Jan 27 23:00:25 2020.
