 Gaussian 09, Revision D.01,
 Gaussian 09:  ES64L-G09RevD.01 24-Apr-2013

 -----------------------------
 # b3lyp 6-31G(2df,p) opt Freq
 -----------------------------

 -----
 titel
 -----
 Symbolic Z-matrix:
 Charge =  0 Multiplicity = 1

 SCF Done:  E(RB3LYP) =  -423.098754927     A.U. after   12 cycles
 Optimization completed.
    -- Stationary point found.
 Normal termination of Gaussian 09 at Mon Jan 27 11:13:10 2020.

 ----------------------------------------------------------------------
 #N Geom=AllCheck Guess=TCheck SCRF=Check GenChk RB3LYP/6-31G(2df,p) Fr
 eq
 ----------------------------------------------------------------------

 Structure from the checkpoint file:  "/scratch/puck/g09_b561f7e2-7692-42ea-861f-4165266486c1/Gau-15874.chk"
 -----
 titel
 -----
 Charge =  0 Multiplicity = 1

                         Standard orientation:
 ---------------------------------------------------------------------
 Center     Atomic      Atomic             Coordinates (Angstroms)
 Number     Number       Type             X           Y           Z
 ---------------------------------------------------------------------
      1          6           0        2.687565   -0.691739    0.732624
      2          6           0        3.202787    0.338908   -0.254522
      3          6           0        1.814714   -0.191307   -0.388574
      4          8           0        0.783415    0.709896   -0.091008
      5          6           0       -0.395198    0.078997    0.306311
      6          6           0       -1.613743    0.936842    0.072234
      7          6           0       -2.848065    0.181335    0.543428
      8          8           0       -2.480380   -0.990791   -0.241711
      9          6           0       -1.362824   -0.287411   -0.785965
     10          1           0        3.069899   -1.705196    0.683095
     11          1           0        2.453513   -0.339348    1.730930
     12          1           0        3.295004    1.358463    0.101650
     13          1           0        3.943708    0.042553   -0.988120
     14          1           0        1.587339   -0.873470   -1.206343
     15          1           0       -0.316602   -0.562316    1.186880
     16          1           0       -1.531939    1.990014   -0.157103
     17          1           0       -2.933960   -0.046193    1.612593
     18          1           0       -3.789694    0.606187    0.177557
     19          1           0       -1.112969   -0.417286   -1.832596
 ---------------------------------------------------------------------

 SCF Done:  E(RB3LYP) =  -423.098754927     A.U. after    1 cycles

 The electronic state is 1-A.
 Alpha  occ. eigenvalues --  -19.15465 -19.13860 -10.23766 -10.23707 -10.23705
 Alpha  occ. eigenvalues --  -10.23678 -10.19557 -10.18689 -10.18613  -1.06043
 Alpha  occ. eigenvalues --   -1.04194  -0.85659  -0.81462  -0.70045  -0.62771
 Alpha  occ. eigenvalues --   -0.60357  -0.57761  -0.55212  -0.53601  -0.50030
 Alpha  occ. eigenvalues --   -0.48608  -0.47333  -0.45526  -0.41715  -0.40968
 Alpha  occ. eigenvalues --   -0.39009  -0.36862  -0.35417  -0.33533  -0.31437
 Alpha  occ. eigenvalues --   -0.29261  -0.27165  -0.26325  -0.22402
 Alpha virt. eigenvalues --    0.07646   0.08978   0.10653   0.11059   0.12411
 Alpha virt. eigenvalues --    0.13332   0.13869   0.14306   0.14849   0.16798
 Alpha virt. eigenvalues --    0.17786   0.18828   0.19340   0.21128   0.22439

 Mulliken charges:
               1
     1  C   -0.285139
     2  C   -0.290107
     3  C    0.145029
     4  O   -0.263348
     5  C    0.076474
     6  C   -0.170891
     7  C   -0.090953
     8  O   -0.286230
     9  C    0.060717
    10  H    0.115569
    11  H    0.121703
    12  H    0.127267
    13  H    0.115736
    14  H    0.089826
    15  H    0.092487
    16  H    0.111618
    17  H    0.107622
    18  H    0.112656
    19  H    0.109965
 Sum of Mulliken charges =   0.00000

 Dipole moment (field-independent basis, Debye):
    X=              0.6623    Y=              0.5407    Z=              0.1557  Tot=              0.8691
 Quadrupole moment (field-independent basis, Debye-Ang):
   XX=            -51.8002   YY=            -54.7471   ZZ=            -50.8676
   XY=             -5.8323   XZ=             -2.2918   YZ=              0.4030

  Exact polarizability:  97.183  -2.587  65.394  -3.560  -0.074  67.111
 Approx polarizability: 115.908  -0.998 103.075  -3.766   1.942 101.793

                      1                      2                      3
                      A                      A                      A
 Frequencies --     59.1899                76.3817               126.3413
 Red. masses --      3.1398                 3.6222                 3.1725
 Frc consts  --      0.0065                 0.0125                 0.0298
 IR Inten    --      0.3141                 1.8579                 1.1138

                      4                      5                      6
                      A                      A                      A
 Frequencies --    247.5656               315.0382               340.1996
 Red. masses --      3.5213                 2.5930                 3.2338
 Frc consts  --      0.1272                 0.1516                 0.2205
 IR Inten    --      1.8916                 0.2739                 9.6923

                      7                      8                      9
                      A                      A                      A
 Frequencies --    346.4768               461.9033               560.0919
 Red. masses --      3.4406                 2.7168                 3.8972
 Frc consts  --      0.2434                 0.3415                 0.7203
 IR Inten    --      1.2913                 3.9397                 2.1146

                     10                     11                     12
                      A                      A                      A
 Frequencies --    750.2608               758.8921               803.3718
 Red. masses --      1.8842                 1.6856                 1.3948
 Frc consts  --      0.6249                 0.5720                 0.5304
 IR Inten    --     11.4308                 3.5454                 6.8183

                     13                     14                     15
                      A                      A                      A
 Frequencies --    819.2380               835.2040               916.6532
 Red. masses --      1.3796                 2.1373                 2.5841
 Frc consts  --      0.5456                 0.8784                 1.2793
 IR Inten    --      6.9769                 7.3160                17.8503

                     16                     17                     18
                      A                      A                      A
 Frequencies --    932.0870               948.9537               975.5299
 Red. masses --      2.8077                 3.5776                 2.0187
 Frc consts  --      1.4372                 1.8981                 1.1319
 IR Inten    --      8.2758                 5.9030                 6.4341

                     19                     20                     21
                      A                      A                      A
 Frequencies --    982.1985               991.8052              1008.3924
 Red. masses --      2.5024                 2.4870                 1.6082
 Frc consts  --      1.4223                 1.4414                 0.9635
 IR Inten    --     22.3511                58.8936                13.4240

                     22                     23                     24
                      A                      A                      A
 Frequencies --   1044.7314              1051.9118              1072.9605
 Red. masses --      2.2445                 1.4293                 1.4236
 Frc consts  --      1.4434                 0.9318                 0.9656
 IR Inten    --     17.4542                10.9330                 1.0984

                     25                     26                     27
                      A                      A                      A
 Frequencies --   1097.5934              1103.0195              1124.0997
 Red. masses --      2.4094                 1.4454                 1.2933
 Frc consts  --      1.7102                 1.0361                 0.9629
 IR Inten    --     29.8752                 2.6253                 3.7185

                     28                     29                     30
                      A                      A                      A
 Frequencies --   1151.5021              1158.1803              1193.2640
 Red. masses --      2.2007                 1.2036                 1.4477
 Frc consts  --      1.7193                 0.9512                 1.2145
 IR Inten    --     37.8587                 5.3283                 6.3812

                     31                     32                     33
                      A                      A                      A
 Frequencies --   1195.1049              1204.2607              1234.8118
 Red. masses --      2.4395                 2.3713                 1.4400
 Frc consts  --      2.0529                 2.0262                 1.2936
 IR Inten    --     61.8212                17.2144                11.5642

                     34                     35                     36
                      A                      A                      A
 Frequencies --   1243.0989              1278.1990              1337.2859
 Red. masses --      2.0339                 1.3783                 1.5243
 Frc consts  --      1.8518                 1.3268                 1.6061
 IR Inten    --     42.6981                10.9472                46.4145

                     37                     38                     39
                      A                      A                      A
 Frequencies --   1388.2974              1428.6989              1453.1343
 Red. masses --      1.5519                 2.0547                 1.0924
 Frc consts  --      1.7623                 2.4710                 1.3590
 IR Inten    --     62.1266                 2.9593                 1.5725

                     40                     41                     42
                      A                      A                      A
 Frequencies --   1497.2367              1515.4897              3022.9742
 Red. masses --      1.4717                 1.1060                 1.0546
 Frc consts  --      1.9438                 1.4966                 5.6783
 IR Inten    --     17.4206                 0.9060                81.6408

                     43                     44                     45
                      A                      A                      A
 Frequencies --   3071.5156              3078.3008              3113.7271
 Red. masses --      1.1110                 1.0882                 1.0867
 Frc consts  --      6.1756                 6.0757                 6.2073
 IR Inten    --     29.0698                32.8983                19.8160

                     46                     47                     48
                      A                      A                      A
 Frequencies --   3137.1823              3143.5352              3181.7959
 Red. masses --      1.0520                 1.0585                 1.0919
 Frc consts  --      6.1005                 6.1627                 6.5129
 IR Inten    --     12.4752                 6.9583                16.2528

                     49                     50                     51
                      A                      A                      A
 Frequencies --   3216.1855              3221.5930              3236.0427
 Red. masses --      1.0959                 1.1185                 1.1158
 Frc consts  --      6.6790                 6.8393                 6.8844
 IR Inten    --      4.5564                 1.1282                13.1590

 - Thermochemistry -
 -------------------
 Temperature   298.150 Kelvin.  Pressure   1.00000 Atm.
 Atom     1 has atomic number  6 and mass  12.00000

 Molecular mass:   126.06808 amu.
 Principal axes and moments of inertia in atomic units:
                           1         2         3
     Eigenvalues --   319.246532204.803642269.65288
           X            0.99989  -0.01402  -0.00414
           Y            0.01384   0.99907  -0.04093
           Z            0.00471   0.04087   0.99915
 This molecule is an asymmetric top.
 Rotational symmetry number  1.
 Rotational temperatures (Kelvin)      0.27131     0.03928     0.03816
 Rotational constants (GHZ):           5.65313     0.81855     0.79516
 Zero-point vibrational energy     415412.3 (Joules/Mol)
                                   99.28591 (Kcal/Mol)
 Warning -- explicit consideration of   9 degrees of freedom as
           vibrations may cause significant error
 Vibrational temperatures:     85.16   109.90   181.78   356.19   453.27
          (Kelvin)            489.47   498.50   664.57   805.85  1079.46
                             1091.88  1155.87  1178.70  1201.67  1318.86
                             1341.06  1365.33  1403.57  1413.16  1426.98
                             1450.85  1503.13  1513.46  1543.75  1579.19
                             1587.00  1617.33  1656.75  1666.36  1716.84
                             1719.49  1732.66  1776.62  1788.54  1839.04
                             1924.05  1997.45  2055.58  2090.73  2154.19
                             2180.45  4349.38  4419.22  4428.98  4479.95
                             4513.70  4522.84  4577.89  4627.37  4635.15
                             4655.94

 Zero-point correction=                           0.158222 (Hartree/Particle)
 Thermal correction to Energy=                    0.166437
 Thermal correction to Enthalpy=                  0.167381
 Thermal correction to Gibbs Free Energy=         0.124547
 Sum of electronic and zero-point Energies=           -422.940533
 Sum of electronic and thermal Energies=              -422.932318
 Sum of electronic and thermal Enthalpies=            -422.931374
 Sum of electronic and thermal Free Energies=         -422.974208

                     E (Thermal)             CV                S
                      KCal/Mol        Cal/Mol-Kelvin    Cal/Mol-Kelvin
 Total                  104.441             31.076             90.153
 Electronic               0.000              0.000              0.000
 Translational            0.889              2.981             40.409
 Rotational               0.889              2.981             28.859
 Vibrational            102.663             25.115             20.885
 Vibration     1          0.597              1.974              4.484
 Vibration     2          0.599              1.965              3.982
 Vibration     3          0.611              1.927              3.001
 Vibration     4          0.661              1.767              1.748
 Vibration     5          0.702              1.645              1.336
 Vibration     6          0.720              1.595              1.211
 Vibration     7          0.724              1.582              1.182
 Vibration     8          0.820              1.335              0.761
 Vibration     9          0.916              1.118              0.524

 Normal termination of Gaussian 09 at Mon Jan 27 11:55:10 2020.
