 Gaussian 09, Revision D.01,
 Gaussian 09:  ES64L-G09RevD.01 24-Apr-2013

 -----------------------------
 # b3lyp 6-31G(2df,p) opt Freq
 -----------------------------

 -----
 titel
 -----
 Symbolic Z-matrix:
 Charge =  0 Multiplicity = 1

 SCF Done:  E(RB3LYP) =  -423.145049403     A.U. after   13 cycles
 Optimization completed.
    -- Stationary point found.
 Normal termination of Gaussian 09 at Mon Jan 27 11:31:58 2020.

 ----------------------------------------------------------------------
 #N Geom=AllCheck Guess=TCheck SCRF=Check GenChk RB3LYP/6-31G(2df,p) Fr
 eq
 ----------------------------------------------------------------------

 Structure from the checkpoint file:  "/scratch/puck/g09_191eda4a-fefa-4d96-9bb8-c0148ad18c68/Gau-61429.chk"
 -----
 titel
 -----
 Charge =  0 Multiplicity = 1

                         Standard orientation:
 ---------------------------------------------------------------------
 Center     Atomic      Atomic             Coordinates (Angstroms)
 Number     Number       Type             X           Y           Z
 ---------------------------------------------------------------------
      1          6           0        0.756976    1.250063   -0.961468
      2          6           0        0.178042    1.266350    0.489767
      3          8           0       -1.210452    1.036824    0.607988
      4          6           0       -1.787894   -0.128807    0.033650
      5          8           0       -1.019311   -0.802444   -0.921210
      6          6           0        0.272029   -1.252972   -0.522605
      7          6           0        0.536577   -1.291910    1.010485
      8          6           0        1.171300    0.099139    0.883070
      9          6           0        1.364117   -0.122812   -0.655129
     10          1           0        0.037671    1.328147   -1.777875
     11          1           0        1.531029    2.014119   -1.081074
     12          1           0        0.341791    2.192486    1.043746
     13          1           0       -2.072131   -0.807401    0.851123
     14          1           0       -2.693287    0.188392   -0.493961
     15          1           0        0.455062   -2.172414   -1.081888
     16          1           0       -0.294556   -1.450540    1.699664
     17          1           0        1.305058   -2.041349    1.222873
     18          1           0        1.973190    0.394619    1.561305
     19          1           0        2.307399   -0.435408   -1.104759
 ---------------------------------------------------------------------

 SCF Done:  E(RB3LYP) =  -423.145049403     A.U. after    1 cycles

 The electronic state is 1-A.
 Alpha  occ. eigenvalues --  -19.14811 -19.13664 -10.27140 -10.23714 -10.23407
 Alpha  occ. eigenvalues --  -10.18628 -10.18581 -10.18382 -10.17453  -1.06553
 Alpha  occ. eigenvalues --   -1.00235  -0.87009  -0.75057  -0.70367  -0.67267
 Alpha  occ. eigenvalues --   -0.61363  -0.55501  -0.54887  -0.52911  -0.49685
 Alpha  occ. eigenvalues --   -0.46523  -0.44426  -0.43604  -0.42733  -0.40285
 Alpha  occ. eigenvalues --   -0.38696  -0.36993  -0.35541  -0.33927  -0.31044
 Alpha  occ. eigenvalues --   -0.28569  -0.27448  -0.25857  -0.23944
 Alpha virt. eigenvalues --    0.07669   0.08849   0.11230   0.12168   0.12770
 Alpha virt. eigenvalues --    0.13230   0.15294   0.16706   0.17241   0.17948
 Alpha virt. eigenvalues --    0.18783   0.19001   0.19069   0.20838   0.22506

 Mulliken charges:
               1
     1  C   -0.250424
     2  C    0.107793
     3  O   -0.281433
     4  C    0.021921
     5  O   -0.259177
     6  C    0.096512
     7  C   -0.270462
     8  C   -0.049358
     9  C   -0.040193
    10  H    0.110792
    11  H    0.096224
    12  H    0.087690
    13  H    0.093222
    14  H    0.112908
    15  H    0.084456
    16  H    0.110153
    17  H    0.105018
    18  H    0.062105
    19  H    0.062254
 Sum of Mulliken charges =   0.00000

 Dipole moment (field-independent basis, Debye):
    X=              1.3018    Y=             -0.6447    Z=              0.4497  Tot=              1.5207
 Quadrupole moment (field-independent basis, Debye-Ang):
   XX=            -51.6331   YY=            -52.4422   ZZ=            -54.5208
   XY=              0.9341   XZ=             -0.0387   YZ=             -1.4907

  Exact polarizability:  77.665   0.620  74.622  -0.183  -2.002  68.016
 Approx polarizability: 111.067  -0.354 106.665  -0.057   0.552 103.952

                      1                      2                      3
                      A                      A                      A
 Frequencies --    123.2026               276.4667               324.0941
 Red. masses --      3.1434                 3.8868                 2.6392
 Frc consts  --      0.0281                 0.1750                 0.1633
 IR Inten    --      5.1727                 3.8486                 2.2555

                      4                      5                      6
                      A                      A                      A
 Frequencies --    397.7020               421.9039               486.0402
 Red. masses --      2.2716                 3.7605                 3.4481
 Frc consts  --      0.2117                 0.3944                 0.4799
 IR Inten    --      1.8781                 4.0959                 1.2797

                      7                      8                      9
                      A                      A                      A
 Frequencies --    496.7832               646.0824               706.8018
 Red. masses --      2.6408                 6.7037                 4.2452
 Frc consts  --      0.3840                 1.6487                 1.2495
 IR Inten    --      1.4313                 7.9222                 1.4311

                     10                     11                     12
                      A                      A                      A
 Frequencies --    747.9233               765.6229               808.8030
 Red. masses --      2.5022                 2.2473                 2.3606
 Frc consts  --      0.8247                 0.7761                 0.9098
 IR Inten    --      5.4504                 3.6340                 5.9989

                     13                     14                     15
                      A                      A                      A
 Frequencies --    842.7115               868.2523               931.3868
 Red. masses --      2.4436                 2.2606                 3.2703
 Frc consts  --      1.0224                 1.0041                 1.6715
 IR Inten    --      0.3671                 9.0078                 8.7739

                     16                     17                     18
                      A                      A                      A
 Frequencies --    954.5911               972.5870               982.7746
 Red. masses --      2.3720                 2.0807                 1.5967
 Frc consts  --      1.2735                 1.1596                 0.9086
 IR Inten    --      8.5284                15.9910                 0.4711

                     19                     20                     21
                      A                      A                      A
 Frequencies --   1012.7113              1040.7328              1059.0438
 Red. masses --      2.8545                 3.0040                 2.6039
 Frc consts  --      1.7249                 1.9171                 1.7207
 IR Inten    --     45.7647                21.8173                 3.9712

                     22                     23                     24
                      A                      A                      A
 Frequencies --   1071.9945              1112.5790              1128.8378
 Red. masses --      1.3075                 1.7741                 2.1287
 Frc consts  --      0.8853                 1.2939                 1.5982
 IR Inten    --     14.5783                62.0890                10.9966

                     25                     26                     27
                      A                      A                      A
 Frequencies --   1133.0857              1172.8225              1198.5382
 Red. masses --      2.1848                 1.7878                 1.6328
 Frc consts  --      1.6527                 1.4489                 1.3820
 IR Inten    --     20.6739                37.5140                 8.0356

                     28                     29                     30
                      A                      A                      A
 Frequencies --   1223.9093              1230.8990              1253.0312
 Red. masses --      1.4721                 2.5567                 1.3537
 Frc consts  --      1.2992                 2.2823                 1.2523
 IR Inten    --      4.8683               167.3502                 0.3987

                     31                     32                     33
                      A                      A                      A
 Frequencies --   1268.6191              1285.6773              1292.5826
 Red. masses --      1.7203                 1.1930                 1.5639
 Frc consts  --      1.6312                 1.1618                 1.5395
 IR Inten    --      0.9270                 5.0023                 2.8601

                     34                     35                     36
                      A                      A                      A
 Frequencies --   1296.9620              1313.5902              1372.3878
 Red. masses --      1.5570                 1.5008                 1.2557
 Frc consts  --      1.5431                 1.5258                 1.3935
 IR Inten    --      0.9470                 1.4484                13.7324

                     37                     38                     39
                      A                      A                      A
 Frequencies --   1384.6388              1455.7785              1465.1818
 Red. masses --      1.2186                 1.2048                 1.1199
 Frc consts  --      1.3765                 1.5044                 1.4165
 IR Inten    --     10.0980                 7.1589                 4.5987

                     40                     41                     42
                      A                      A                      A
 Frequencies --   1481.5752              1540.5147              2985.7045
 Red. masses --      1.1122                 1.0857                 1.0686
 Frc consts  --      1.4383                 1.5181                 5.6123
 IR Inten    --      5.0083                 1.2524                82.9371

                     43                     44                     45
                      A                      A                      A
 Frequencies --   3057.6279              3059.8352              3067.3643
 Red. masses --      1.0623                 1.0631                 1.0959
 Frc consts  --      5.8517                 5.8645                 6.0750
 IR Inten    --     23.1769                20.3466                52.8965

                     46                     47                     48
                      A                      A                      A
 Frequencies --   3085.8563              3086.9415              3096.7518
 Red. masses --      1.0873                 1.0887                 1.0871
 Frc consts  --      6.1005                 6.1126                 6.1424
 IR Inten    --     39.4420                11.4881                90.2866

                     49                     50                     51
                      A                      A                      A
 Frequencies --   3108.6795              3117.5658              3126.6869
 Red. masses --      1.0915                 1.1023                 1.1036
 Frc consts  --      6.2145                 6.3124                 6.3565
 IR Inten    --     40.4388                25.0668                18.7163

 - Thermochemistry -
 -------------------
 Temperature   298.150 Kelvin.  Pressure   1.00000 Atm.
 Atom     1 has atomic number  6 and mass  12.00000

 Molecular mass:   126.06808 amu.
 Principal axes and moments of inertia in atomic units:
                           1         2         3
     Eigenvalues --   738.53618 832.270701007.98705
           X            0.99831   0.05721  -0.01036
           Y           -0.05793   0.99406  -0.09216
           Z            0.00502   0.09260   0.99569
 This molecule is an asymmetric top.
 Rotational symmetry number  1.
 Warning -- assumption of classical behavior for rotation
           may cause significant error
 Rotational temperatures (Kelvin)      0.11728     0.10407     0.08593
 Rotational constants (GHZ):           2.44367     2.16845     1.79044
 Zero-point vibrational energy     426722.5 (Joules/Mol)
                                  101.98913 (Kcal/Mol)
 Warning -- explicit consideration of   7 degrees of freedom as
           vibrations may cause significant error
 Vibrational temperatures:    177.26   397.77   466.30   572.20   607.02
          (Kelvin)            699.30   714.76   929.57  1016.93  1076.09
                             1101.56  1163.69  1212.47  1249.22  1340.06
                             1373.44  1399.33  1413.99  1457.06  1497.38
                             1523.73  1542.36  1600.75  1624.14  1630.26
                             1687.43  1724.43  1760.93  1770.99  1802.83
                             1825.26  1849.80  1859.74  1866.04  1889.96
                             1974.56  1992.18  2094.54  2108.07  2131.65
                             2216.45  4295.76  4399.24  4402.41  4413.25
                             4439.85  4441.41  4455.53  4472.69  4485.48
                             4498.60

 Zero-point correction=                           0.162530 (Hartree/Particle)
 Thermal correction to Energy=                    0.169128
 Thermal correction to Enthalpy=                  0.170072
 Thermal correction to Gibbs Free Energy=         0.131831
 Sum of electronic and zero-point Energies=           -422.982519
 Sum of electronic and thermal Energies=              -422.975921
 Sum of electronic and thermal Enthalpies=            -422.974977
 Sum of electronic and thermal Free Energies=         -423.013218

                     E (Thermal)             CV                S
                      KCal/Mol        Cal/Mol-Kelvin    Cal/Mol-Kelvin
 Total                  106.130             27.714             80.485
 Electronic               0.000              0.000              0.000
 Translational            0.889              2.981             40.409
 Rotational               0.889              2.981             27.918
 Vibrational            104.352             21.752             12.159
 Vibration     1          0.610              1.930              3.050
 Vibration     2          0.678              1.717              1.555
 Vibration     3          0.709              1.627              1.289
 Vibration     4          0.764              1.475              0.971
 Vibration     5          0.784              1.423              0.886
 Vibration     6          0.842              1.281              0.694
 Vibration     7          0.852              1.257              0.666

 Normal termination of Gaussian 09 at Mon Jan 27 13:59:34 2020.
