 Gaussian 09, Revision D.01,
 Gaussian 09:  ES64L-G09RevD.01 24-Apr-2013

 -----------------------------
 # b3lyp 6-31G(2df,p) opt Freq
 -----------------------------

 -----
 titel
 -----
 Symbolic Z-matrix:
 Charge =  0 Multiplicity = 1

 SCF Done:  E(RB3LYP) =  -423.204646691     A.U. after   14 cycles
 Optimization completed.
    -- Stationary point found.
 Normal termination of Gaussian 09 at Tue Jan 28 08:14:05 2020.

 ----------------------------------------------------------------------
 #N Geom=AllCheck Guess=TCheck SCRF=Check GenChk RB3LYP/6-31G(2df,p) Fr
 eq
 ----------------------------------------------------------------------

 Structure from the checkpoint file:  "/scratch/puck/g09_cd600672-b679-4f6a-b9a9-ed00ffca2391/Gau-17701.chk"
 -----
 titel
 -----
 Charge =  0 Multiplicity = 1

                         Standard orientation:
 ---------------------------------------------------------------------
 Center     Atomic      Atomic             Coordinates (Angstroms)
 Number     Number       Type             X           Y           Z
 ---------------------------------------------------------------------
      1          6           0       -2.309260   -1.118900    0.362321
      2          6           0       -1.009405   -0.712045   -0.333072
      3          8           0       -1.142800    0.530310   -1.031151
      4          6           0       -0.844705    1.585788   -0.123042
      5          6           0        0.310119    1.072960    0.737967
      6          6           0        1.698320    0.994318    0.028512
      7          6           0        1.554701   -0.533954   -0.000127
      8          8           0        2.256235   -1.430501   -0.368435
      9          6           0        0.162408   -0.488261    0.651736
     10          1           0       -2.208363   -2.113288    0.808901
     11          1           0       -2.578629   -0.417238    1.158504
     12          1           0       -3.126755   -1.145569   -0.363397
     13          1           0       -0.752287   -1.460314   -1.090005
     14          1           0       -0.593622    2.468600   -0.718507
     15          1           0       -1.716366    1.831636    0.502929
     16          1           0        0.333742    1.510386    1.735773
     17          1           0        1.743333    1.451424   -0.965475
     18          1           0        2.554404    1.346090    0.611584
     19          1           0        0.063993   -1.069629    1.570617
 ---------------------------------------------------------------------

 SCF Done:  E(RB3LYP) =  -423.204646691     A.U. after    1 cycles

 The electronic state is 1-A.
 Alpha  occ. eigenvalues --  -19.14277 -19.13749 -10.26895 -10.24225 -10.23314
 Alpha  occ. eigenvalues --  -10.20276 -10.19641 -10.19350 -10.18176  -1.04749
 Alpha  occ. eigenvalues --   -1.03927  -0.84828  -0.77511  -0.70610  -0.68511
 Alpha  occ. eigenvalues --   -0.60799  -0.57714  -0.52923  -0.51035  -0.49541
 Alpha  occ. eigenvalues --   -0.45580  -0.44608  -0.42342  -0.41583  -0.41505
 Alpha  occ. eigenvalues --   -0.40889  -0.38812  -0.36463  -0.34258  -0.34079
 Alpha  occ. eigenvalues --   -0.32968  -0.31366  -0.26385  -0.23864
 Alpha virt. eigenvalues --   -0.02369   0.07825   0.10519   0.11364   0.11830
 Alpha virt. eigenvalues --    0.12545   0.13863   0.14522   0.15612   0.15950
 Alpha virt. eigenvalues --    0.17622   0.18114   0.18923   0.20219   0.22901

 Mulliken charges:
               1
     1  C   -0.408931
     2  C    0.115123
     3  O   -0.263345
     4  C   -0.102052
     5  C   -0.038911
     6  C   -0.362486
     7  C    0.411372
     8  O   -0.296674
     9  C   -0.175348
    10  H    0.120575
    11  H    0.117448
    12  H    0.128653
    13  H    0.102963
    14  H    0.112229
    15  H    0.092938
    16  H    0.081344
    17  H    0.136449
    18  H    0.130944
    19  H    0.097708
 Sum of Mulliken charges =   0.00000

 Dipole moment (field-independent basis, Debye):
    X=             -1.3561    Y=              1.7554    Z=              2.0468  Tot=              3.0182
 Quadrupole moment (field-independent basis, Debye-Ang):
   XX=            -57.8178   YY=            -53.0278   ZZ=            -53.4109
   XY=              6.4248   XZ=              0.2116   YZ=             -0.1836

  Exact polarizability:  83.159   1.686  79.660  -2.597   0.886  62.340
 Approx polarizability: 110.784  -4.474 118.204  -4.284   3.278  99.449

                      1                      2                      3
                      A                      A                      A
 Frequencies --     47.1703               137.9711               182.7283
 Red. masses --      3.7116                 3.7377                 3.1299
 Frc consts  --      0.0049                 0.0419                 0.0616
 IR Inten    --      3.6409                 3.5463                 2.8661

                      4                      5                      6
                      A                      A                      A
 Frequencies --    238.3502               288.5199               354.2284
 Red. masses --      1.0652                 2.9377                 2.0846
 Frc consts  --      0.0357                 0.1441                 0.1541
 IR Inten    --      0.0574                 0.6339                 0.7352

                      7                      8                      9
                      A                      A                      A
 Frequencies --    423.2199               456.8380               523.8845
 Red. masses --      3.5221                 3.1073                 2.2561
 Frc consts  --      0.3717                 0.3821                 0.3648
 IR Inten    --      2.5894                 8.9118                 0.3245

                     10                     11                     12
                      A                      A                      A
 Frequencies --    595.0974               703.6261               727.8175
 Red. masses --      4.5520                 4.1360                 2.6108
 Frc consts  --      0.9498                 1.2065                 0.8148
 IR Inten    --      0.5567                 3.2709                 2.3281

                     13                     14                     15
                      A                      A                      A
 Frequencies --    772.6693               821.8329               856.0785
 Red. masses --      2.6701                 2.8170                 2.3744
 Frc consts  --      0.9392                 1.1210                 1.0252
 IR Inten    --      0.1433                 0.4854                16.8803

                     16                     17                     18
                      A                      A                      A
 Frequencies --    873.5804               943.2927               949.6083
 Red. masses --      2.3579                 3.3975                 2.1206
 Frc consts  --      1.0602                 1.7811                 1.1266
 IR Inten    --      3.3453                 8.1449                 3.3924

                     19                     20                     21
                      A                      A                      A
 Frequencies --    994.7380              1005.0925              1036.8672
 Red. masses --      1.8890                 1.7352                 1.6920
 Frc consts  --      1.1013                 1.0328                 1.0718
 IR Inten    --     13.3069                 6.3756                 5.6664

                     22                     23                     24
                      A                      A                      A
 Frequencies --   1068.1004              1089.1403              1114.8038
 Red. masses --      2.1479                 3.3316                 2.3390
 Frc consts  --      1.4438                 2.3285                 1.7127
 IR Inten    --     64.2881                 8.4377                40.7800

                     25                     26                     27
                      A                      A                      A
 Frequencies --   1124.5394              1156.2854              1167.9795
 Red. masses --      2.3214                 2.0240                 1.5504
 Frc consts  --      1.7296                 1.5944                 1.2461
 IR Inten    --     37.7233                10.7763                14.6341

                     28                     29                     30
                      A                      A                      A
 Frequencies --   1224.9754              1228.8754              1238.4819
 Red. masses --      1.3188                 1.6503                 1.5187
 Frc consts  --      1.1660                 1.4683                 1.3725
 IR Inten    --      1.8980                22.7518                 7.5233

                     31                     32                     33
                      A                      A                      A
 Frequencies --   1261.2537              1314.1652              1325.3172
 Red. masses --      1.3836                 1.3706                 1.6683
 Frc consts  --      1.2968                 1.3946                 1.7265
 IR Inten    --     13.1803                 3.1029                 5.1580

                     34                     35                     36
                      A                      A                      A
 Frequencies --   1373.5211              1393.9111              1401.5430
 Red. masses --      1.2688                 1.2740                 1.2789
 Frc consts  --      1.4103                 1.4584                 1.4802
 IR Inten    --     14.4328                 2.8348                13.1083

                     37                     38                     39
                      A                      A                      A
 Frequencies --   1430.1486              1486.7127              1494.7742
 Red. masses --      1.1163                 1.0509                 1.0502
 Frc consts  --      1.3452                 1.3686                 1.3825
 IR Inten    --      8.9670                 3.3262                 2.1783

                     40                     41                     42
                      A                      A                      A
 Frequencies --   1517.9785              1890.0383              2983.7320
 Red. masses --      1.0884                12.7777                 1.0702
 Frc consts  --      1.4776                26.8932                 5.6136
 IR Inten    --      0.3798               267.4544                61.3547

                     43                     44                     45
                      A                      A                      A
 Frequencies --   3037.0826              3052.8951              3056.8054
 Red. masses --      1.0351                 1.0592                 1.0861
 Frc consts  --      5.6256                 5.8165                 5.9793
 IR Inten    --     15.9426                 8.7202                14.2329

                     46                     47                     48
                      A                      A                      A
 Frequencies --   3082.4425              3096.6425              3105.1304
 Red. masses --      1.0933                 1.0878                 1.1014
 Frc consts  --      6.1202                 6.1460                 6.2569
 IR Inten    --     30.9956                 5.7906                 2.7471

                     49                     50                     51
                      A                      A                      A
 Frequencies --   3108.4091              3118.9378              3120.0257
 Red. masses --      1.1009                 1.0962                 1.0969
 Frc consts  --      6.2674                 6.2828                 6.2913
 IR Inten    --     29.6249                 4.1493                39.6824

 - Thermochemistry -
 -------------------
 Temperature   298.150 Kelvin.  Pressure   1.00000 Atm.
 Atom     1 has atomic number  6 and mass  12.00000

 Molecular mass:   126.06808 amu.
 Principal axes and moments of inertia in atomic units:
                           1         2         3
     Eigenvalues --   675.806481188.369981544.60618
           X            0.99642   0.08365  -0.01206
           Y           -0.08374   0.99646  -0.00747
           Z            0.01139   0.00845   0.99990
 This molecule is an asymmetric top.
 Rotational symmetry number  1.
 Warning -- assumption of classical behavior for rotation
           may cause significant error
 Rotational temperatures (Kelvin)      0.12816     0.07288     0.05608
 Rotational constants (GHZ):           2.67050     1.51867     1.16842
 Zero-point vibrational energy     418680.2 (Joules/Mol)
                                  100.06696 (Kcal/Mol)
 Warning -- explicit consideration of  10 degrees of freedom as
           vibrations may cause significant error
 Vibrational temperatures:     67.87   198.51   262.90   342.93   415.12
          (Kelvin)            509.66   608.92   657.29   753.75   856.21
                             1012.36  1047.17  1111.70  1182.43  1231.70
                             1256.89  1357.19  1366.27  1431.20  1446.10
                             1491.82  1536.76  1567.03  1603.95  1617.96
                             1663.63  1680.46  1762.46  1768.08  1781.90
                             1814.66  1890.79  1906.83  1976.19  2005.52
                             2016.51  2057.66  2139.05  2150.64  2184.03
                             2719.34  4292.92  4369.68  4392.43  4398.06
                             4434.94  4455.37  4467.58  4472.30  4487.45
                             4489.02

 Zero-point correction=                           0.159467 (Hartree/Particle)
 Thermal correction to Energy=                    0.167558
 Thermal correction to Enthalpy=                  0.168502
 Thermal correction to Gibbs Free Energy=         0.126353
 Sum of electronic and zero-point Energies=           -423.045180
 Sum of electronic and thermal Energies=              -423.037089
 Sum of electronic and thermal Enthalpies=            -423.036145
 Sum of electronic and thermal Free Energies=         -423.078294

                     E (Thermal)             CV                S
                      KCal/Mol        Cal/Mol-Kelvin    Cal/Mol-Kelvin
 Total                  105.144             31.010             88.710
 Electronic               0.000              0.000              0.000
 Translational            0.889              2.981             40.409
 Rotational               0.889              2.981             28.608
 Vibrational            103.366             25.048             19.694
 Vibration     1          0.595              1.979              4.933
 Vibration     2          0.614              1.915              2.832
 Vibration     3          0.630              1.863              2.300
 Vibration     4          0.656              1.782              1.815
 Vibration     5          0.685              1.695              1.483
 Vibration     6          0.730              1.567              1.147
 Vibration     7          0.785              1.420              0.881
 Vibration     8          0.815              1.346              0.775
 Vibration     9          0.879              1.197              0.601
 Vibration    10          0.953              1.042              0.458

 Optimization completed.
    -- Stationary point found.
 Normal termination of Gaussian 09 at Tue Jan 28 08:59:39 2020.
