 Gaussian 09, Revision D.01,
 Gaussian 09:  ES64L-G09RevD.01 24-Apr-2013

 -----------------------------
 # b3lyp 6-31G(2df,p) opt Freq
 -----------------------------

 -----
 titel
 -----
 Symbolic Z-matrix:
 Charge =  0 Multiplicity = 1

 SCF Done:  E(RB3LYP) =  -423.117941477     A.U. after   13 cycles
 Optimization completed.
    -- Stationary point found.
 Normal termination of Gaussian 09 at Tue Jan 28 09:29:21 2020.

 ----------------------------------------------------------------------
 #N Geom=AllCheck Guess=TCheck SCRF=Check GenChk RB3LYP/6-31G(2df,p) Fr
 eq
 ----------------------------------------------------------------------

 Structure from the checkpoint file:  "/scratch/puck/g09_e61f6c4c-36f6-45c3-b733-f9645af253d9/Gau-105223.chk"
 -----
 titel
 -----
 Charge =  0 Multiplicity = 1

                         Standard orientation:
 ---------------------------------------------------------------------
 Center     Atomic      Atomic             Coordinates (Angstroms)
 Number     Number       Type             X           Y           Z
 ---------------------------------------------------------------------
      1          8           0        2.923624   -0.722108   -0.393368
      2          6           0        2.054490   -0.277512    0.636887
      3          6           0        0.773140    0.260335    0.087533
      4          6           0        0.478515    1.636550   -0.419731
      5          6           0       -0.401662    1.022979    0.659367
      6          6           0       -1.233363   -0.066431    0.032723
      7          6           0       -2.565262   -0.050750   -0.635803
      8          6           0       -2.334959   -0.871558    0.630914
      9          8           0       -0.085547   -0.700900   -0.563812
     10          1           0        2.437323   -1.379453   -0.903563
     11          1           0        1.833945   -1.088045    1.348463
     12          1           0        2.585548    0.512099    1.177851
     13          1           0        1.148522    2.415346   -0.068516
     14          1           0        0.096759    1.770355   -1.427465
     15          1           0       -0.552710    1.459042    1.637828
     16          1           0       -3.168906    0.848446   -0.572869
     17          1           0       -2.655272   -0.596662   -1.568575
     18          1           0       -2.781120   -0.529690    1.559434
     19          1           0       -2.274098   -1.949052    0.523511
 ---------------------------------------------------------------------

 SCF Done:  E(RB3LYP) =  -423.117941477     A.U. after    1 cycles

 The electronic state is 1-A.
 Alpha  occ. eigenvalues --  -19.14235 -19.13321 -10.24711 -10.24242 -10.23216
 Alpha  occ. eigenvalues --  -10.20017 -10.19096 -10.18810 -10.18644  -1.05894
 Alpha  occ. eigenvalues --   -1.01350  -0.85218  -0.83653  -0.71152  -0.64002
 Alpha  occ. eigenvalues --   -0.60812  -0.58114  -0.52871  -0.51895  -0.50922
 Alpha  occ. eigenvalues --   -0.48551  -0.45057  -0.44771  -0.42431  -0.41049
 Alpha  occ. eigenvalues --   -0.37443  -0.36701  -0.34548  -0.33854  -0.33183
 Alpha  occ. eigenvalues --   -0.29548  -0.27616  -0.25502  -0.23029
 Alpha virt. eigenvalues --    0.06177   0.09199   0.10678   0.10976   0.11976
 Alpha virt. eigenvalues --    0.12564   0.13737   0.14504   0.15661   0.16689
 Alpha virt. eigenvalues --    0.17976   0.19245   0.21112   0.21851   0.21985

 Mulliken charges:
               1
     1  O   -0.412226
     2  C   -0.171170
     3  C    0.446169
     4  C   -0.335090
     5  C   -0.289592
     6  C    0.474618
     7  C   -0.338022
     8  C   -0.345605
     9  O   -0.361197
    10  H    0.295036
    11  H    0.095790
    12  H    0.112201
    13  H    0.117017
    14  H    0.118638
    15  H    0.104970
    16  H    0.119060
    17  H    0.126677
    18  H    0.116836
    19  H    0.125890
 Sum of Mulliken charges =   0.00000

 Dipole moment (field-independent basis, Debye):
    X=             -1.5748    Y=              0.6529    Z=              1.1183  Tot=              2.0388
 Quadrupole moment (field-independent basis, Debye-Ang):
   XX=            -58.2220   YY=            -50.5540   ZZ=            -51.1854
   XY=              0.4366   XZ=              1.1229   YZ=              1.3452

  Exact polarizability:  89.122   3.645  72.646   0.064  -1.207  67.710
 Approx polarizability: 115.701   2.376 107.582  -3.261   0.882 103.182

                      1                      2                      3
                      A                      A                      A
 Frequencies --     63.9130               105.0905               172.4072
 Red. masses --      4.2646                 4.3560                 2.5679
 Frc consts  --      0.0103                 0.0283                 0.0450
 IR Inten    --      2.4848                 0.6460                 0.2949

                      4                      5                      6
                      A                      A                      A
 Frequencies --    264.2010               287.0143               323.1603
 Red. masses --      2.1019                 2.7867                 1.7805
 Frc consts  --      0.0864                 0.1353                 0.1096
 IR Inten    --      1.7754                 2.6570                33.7680

                      7                      8                      9
                      A                      A                      A
 Frequencies --    389.5041               394.6236               465.2256
 Red. masses --      1.4978                 3.0318                 2.9294
 Frc consts  --      0.1339                 0.2782                 0.3736
 IR Inten    --     85.5356                 1.0714                 7.7931

                     10                     11                     12
                      A                      A                      A
 Frequencies --    495.2264               583.9582               726.3356
 Red. masses --      3.5118                 3.0777                 2.5000
 Frc consts  --      0.5074                 0.6184                 0.7771
 IR Inten    --      0.6030                 4.9190                16.9950

                     13                     14                     15
                      A                      A                      A
 Frequencies --    759.7787               823.9719               854.0058
 Red. masses --      1.1666                 2.1183                 2.6706
 Frc consts  --      0.3968                 0.8473                 1.1476
 IR Inten    --      3.0430                 0.8722                22.6645

                     16                     17                     18
                      A                      A                      A
 Frequencies --    887.8093               895.9559               910.9365
 Red. masses --      1.4011                 1.9958                 1.8193
 Frc consts  --      0.6507                 0.9440                 0.8895
 IR Inten    --      2.3430                29.0436                 7.4114

                     19                     20                     21
                      A                      A                      A
 Frequencies --    959.2678               962.6301               976.9877
 Red. masses --      2.8268                 1.9358                 2.5891
 Frc consts  --      1.5326                 1.0569                 1.4561
 IR Inten    --     25.3680                15.4072                11.9283

                     22                     23                     24
                      A                      A                      A
 Frequencies --   1003.6186              1016.7913              1046.2721
 Red. masses --      2.3550                 1.8312                 1.4772
 Frc consts  --      1.3976                 1.1155                 0.9528
 IR Inten    --     15.3806                40.7160                 9.7947

                     25                     26                     27
                      A                      A                      A
 Frequencies --   1059.2247              1068.1867              1069.4302
 Red. masses --      4.0673                 1.4134                 1.4926
 Frc consts  --      2.6887                 0.9502                 1.0058
 IR Inten    --    116.3574                 1.9922                 3.1823

                     28                     29                     30
                      A                      A                      A
 Frequencies --   1092.1303              1141.1937              1185.5177
 Red. masses --      2.8877                 1.8888                 1.2634
 Frc consts  --      2.0293                 1.4493                 1.0462
 IR Inten    --      9.5358                39.6057                 0.0882

                     31                     32                     33
                      A                      A                      A
 Frequencies --   1215.1825              1219.6223              1287.8705
 Red. masses --      1.6084                 1.6474                 2.2071
 Frc consts  --      1.3993                 1.4437                 2.1569
 IR Inten    --      8.3789                25.1751                15.2313

                     34                     35                     36
                      A                      A                      A
 Frequencies --   1374.3881              1384.2048              1402.7160
 Red. masses --      1.3012                 1.6145                 1.8595
 Frc consts  --      1.4482                 1.8226                 2.1557
 IR Inten    --      7.3225                37.5246                10.3391

                     37                     38                     39
                      A                      A                      A
 Frequencies --   1436.9958              1448.8815              1485.8280
 Red. masses --      1.3343                 1.0908                 1.7184
 Frc consts  --      1.6233                 1.3492                 2.2352
 IR Inten    --     39.8491                 1.6759                 4.1672

                     40                     41                     42
                      A                      A                      A
 Frequencies --   1491.4788              1511.1146              2987.9422
 Red. masses --      1.1059                 2.1158                 1.0690
 Frc consts  --      1.4495                 2.8466                 5.6231
 IR Inten    --      1.6966                27.9743                51.7014

                     43                     44                     45
                      A                      A                      A
 Frequencies --   3082.4557              3120.0962              3128.6059
 Red. masses --      1.0934                 1.0537                 1.0524
 Frc consts  --      6.1213                 6.0436                 6.0694
 IR Inten    --     21.2119                10.8806                11.9834

                     46                     47                     48
                      A                      A                      A
 Frequencies --   3133.2475              3199.5012              3213.0581
 Red. masses --      1.0562                 1.0968                 1.1170
 Frc consts  --      6.1094                 6.6153                 6.7943
 IR Inten    --      5.3864                 5.2371                 1.6014

                     49                     50                     51
                      A                      A                      A
 Frequencies --   3213.5541              3227.4084              3806.4158
 Red. masses --      1.1156                 1.1153                 1.0661
 Frc consts  --      6.7881                 6.8448                 9.1007
 IR Inten    --      7.3059                 8.4278                25.1337

 - Thermochemistry -
 -------------------
 Temperature   298.150 Kelvin.  Pressure   1.00000 Atm.
 Atom     1 has atomic number  8 and mass  15.99491

 Molecular mass:   126.06808 amu.
 Principal axes and moments of inertia in atomic units:
                           1         2         3
     Eigenvalues --   483.334541620.225251790.95295
           X            0.99994   0.00912   0.00683
           Y           -0.00893   0.99961  -0.02645
           Z           -0.00707   0.02638   0.99963
 This molecule is an asymmetric top.
 Rotational symmetry number  1.
 Warning -- assumption of classical behavior for rotation
           may cause significant error
 Rotational temperatures (Kelvin)      0.17920     0.05346     0.04836
 Rotational constants (GHZ):           3.73394     1.11388     1.00770
 Zero-point vibrational energy     414834.6 (Joules/Mol)
                                   99.14786 (Kcal/Mol)
 Warning -- explicit consideration of  11 degrees of freedom as
           vibrations may cause significant error
 Vibrational temperatures:     91.96   151.20   248.06   380.13   412.95
          (Kelvin)            464.96   560.41   567.77   669.36   712.52
                              840.18  1045.03  1093.15  1185.51  1228.72
                             1277.36  1289.08  1310.63  1380.17  1385.01
                             1405.67  1443.98  1462.93  1505.35  1523.99
                             1536.88  1538.67  1571.33  1641.92  1705.69
                             1748.37  1754.76  1852.96  1977.44  1991.56
                             2018.19  2067.51  2084.61  2137.77  2145.90
                             2174.15  4298.98  4434.96  4489.12  4501.36
                             4508.04  4603.36  4622.87  4623.58  4643.52
                             5476.58

 Zero-point correction=                           0.158002 (Hartree/Particle)
 Thermal correction to Energy=                    0.166513
 Thermal correction to Enthalpy=                  0.167457
 Thermal correction to Gibbs Free Energy=         0.124685
 Sum of electronic and zero-point Energies=           -422.959939
 Sum of electronic and thermal Energies=              -422.951429
 Sum of electronic and thermal Enthalpies=            -422.950484
 Sum of electronic and thermal Free Energies=         -422.993257

                     E (Thermal)             CV                S
                      KCal/Mol        Cal/Mol-Kelvin    Cal/Mol-Kelvin
 Total                  104.488             32.907             90.022
 Electronic               0.000              0.000              0.000
 Translational            0.889              2.981             40.409
 Rotational               0.889              2.981             28.730
 Vibrational            102.711             26.946             20.884
 Vibration     1          0.597              1.972              4.333
 Vibration     2          0.605              1.945              3.358
 Vibration     3          0.626              1.876              2.409
 Vibration     4          0.671              1.739              1.634
 Vibration     5          0.684              1.698              1.492
 Vibration     6          0.708              1.629              1.294
 Vibration     7          0.757              1.493              1.002
 Vibration     8          0.762              1.482              0.983
 Vibration     9          0.823              1.327              0.751
 Vibration    10          0.851              1.261              0.670
 Vibration    11          0.941              1.066              0.478

 Optimization completed.
    -- Stationary point found.
 Normal termination of Gaussian 09 at Tue Jan 28 10:10:21 2020.
