 Gaussian 09, Revision D.01,
 Gaussian 09:  ES64L-G09RevD.01 24-Apr-2013

 -----------------------------
 # b3lyp 6-31G(2df,p) opt Freq
 -----------------------------

 -----
 titel
 -----
 Symbolic Z-matrix:
 Charge =  0 Multiplicity = 1

 SCF Done:  E(RB3LYP) =  -423.126469232     A.U. after   14 cycles
 Optimization completed.
    -- Stationary point found.
 Normal termination of Gaussian 09 at Mon Jan 27 15:37:26 2020.

 ----------------------------------------------------------------------
 #N Geom=AllCheck Guess=TCheck SCRF=Check GenChk RB3LYP/6-31G(2df,p) Fr
 eq
 ----------------------------------------------------------------------

 Structure from the checkpoint file:  "/scratch/puck/g09_a94d3fc6-2514-4361-b47b-1c40283366f5/Gau-36860.chk"
 -----
 titel
 -----
 Charge =  0 Multiplicity = 1

                         Standard orientation:
 ---------------------------------------------------------------------
 Center     Atomic      Atomic             Coordinates (Angstroms)
 Number     Number       Type             X           Y           Z
 ---------------------------------------------------------------------
      1          6           0       -2.810925    0.762089    0.403158
      2          6           0       -1.484545    0.316071   -0.199847
      3          8           0       -1.749810   -0.839217   -0.980676
      4          6           0       -0.433433    0.014254    0.884959
      5          6           0        0.959051   -0.188543    0.305233
      6          6           0        1.738580   -1.404736    0.618784
      7          8           0        1.071445   -1.292263   -0.635917
      8          6           0        1.662862    1.008711   -0.092602
      9          6           0        2.223482    2.025563   -0.402607
     10          1           0       -3.193756    0.002404    1.092606
     11          1           0       -2.698616    1.705981    0.945232
     12          1           0       -3.549412    0.900980   -0.390793
     13          1           0       -1.095350    1.128051   -0.838054
     14          1           0       -0.902303   -1.246147   -1.198924
     15          1           0       -0.390118    0.835043    1.608557
     16          1           0       -0.743039   -0.891320    1.417705
     17          1           0        2.824561   -1.371361    0.565633
     18          1           0        1.318935   -2.130192    1.313989
     19          1           0        2.725572    2.917949   -0.685675
 ---------------------------------------------------------------------

 SCF Done:  E(RB3LYP) =  -423.126469232     A.U. after    1 cycles

 The electronic state is 1-A.
 Alpha  occ. eigenvalues --  -19.17394 -19.11675 -10.27674 -10.25292 -10.22961
 Alpha  occ. eigenvalues --  -10.19583 -10.19467 -10.19163 -10.16968  -1.09081
 Alpha  occ. eigenvalues --   -1.00285  -0.80044  -0.76045  -0.71975  -0.68140
 Alpha  occ. eigenvalues --   -0.64165  -0.58759  -0.54545  -0.51704  -0.50619
 Alpha  occ. eigenvalues --   -0.48667  -0.46118  -0.42951  -0.41060  -0.39434
 Alpha  occ. eigenvalues --   -0.37727  -0.37252  -0.36767  -0.34912  -0.31167
 Alpha  occ. eigenvalues --   -0.29346  -0.28655  -0.27254  -0.25324
 Alpha virt. eigenvalues --    0.01445   0.03368   0.09017   0.09364   0.11412
 Alpha virt. eigenvalues --    0.11728   0.12821   0.13449   0.15498   0.16773
 Alpha virt. eigenvalues --    0.17099   0.17782   0.18597   0.19611   0.21104

 Mulliken charges:
               1
     1  C   -0.385722
     2  C    0.158257
     3  O   -0.450798
     4  C   -0.308821
     5  C    0.165634
     6  C   -0.213184
     7  O   -0.271398
     8  C    0.341865
     9  C   -0.439012
    10  H    0.117818
    11  H    0.108391
    12  H    0.126564
    13  H    0.074114
    14  H    0.295720
    15  H    0.111970
    16  H    0.108698
    17  H    0.129712
    18  H    0.125190
    19  H    0.205000
 Sum of Mulliken charges =   0.00000

 Dipole moment (field-independent basis, Debye):
    X=              1.7939    Y=              0.9393    Z=              2.0836  Tot=              2.9055
 Quadrupole moment (field-independent basis, Debye-Ang):
   XX=            -53.5133   YY=            -49.1539   ZZ=            -54.2261
   XY=             -0.8859   XZ=             -1.3162   YZ=             -3.8606

  Exact polarizability:  85.473   4.663  87.880  -2.425  -6.900  60.745
 Approx polarizability: 108.323  14.550 140.080  -3.093  -9.161  94.996

                      1                      2                      3
                      A                      A                      A
 Frequencies --     50.6345                89.0649               163.4419
 Red. masses --      4.6432                 3.3716                 4.3661
 Frc consts  --      0.0070                 0.0158                 0.0687
 IR Inten    --      0.5173                 0.2755                 1.5245

                      4                      5                      6
                      A                      A                      A
 Frequencies --    182.5630               224.0507               237.3494
 Red. masses --      3.0042                 1.2391                 2.6486
 Frc consts  --      0.0590                 0.0366                 0.0879
 IR Inten    --      1.6564                 0.8238                 5.2443

                      7                      8                      9
                      A                      A                      A
 Frequencies --    304.7714               352.3115               374.0264
 Red. masses --      3.8749                 3.8355                 2.4499
 Frc consts  --      0.2121                 0.2805                 0.2019
 IR Inten    --      3.5161                 6.9581                 0.7810

                     10                     11                     12
                      A                      A                      A
 Frequencies --    443.8597               471.0134               480.8455
 Red. masses --      1.2399                 2.2482                 2.2921
 Frc consts  --      0.1439                 0.2939                 0.3122
 IR Inten    --     68.7392                 2.2847                25.8233

                     13                     14                     15
                      A                      A                      A
 Frequencies --    551.7139               580.1975               632.2643
 Red. masses --      6.6534                 4.7538                 1.2184
 Frc consts  --      1.1932                 0.9429                 0.2870
 IR Inten    --      8.0150                 3.8565                40.2747

                     16                     17                     18
                      A                      A                      A
 Frequencies --    667.3754               708.8300               808.5753
 Red. masses --      1.2572                 4.7665                 3.8572
 Frc consts  --      0.3299                 1.4110                 1.4858
 IR Inten    --     32.4520                13.7429                23.7314

                     19                     20                     21
                      A                      A                      A
 Frequencies --    853.6504               915.9574               919.6519
 Red. masses --      2.4458                 1.5113                 2.0569
 Frc consts  --      1.0501                 0.7471                 1.0250
 IR Inten    --      1.5255                 9.1308                 3.1202

                     22                     23                     24
                      A                      A                      A
 Frequencies --    951.4225               972.4877              1068.2378
 Red. masses --      2.3999                 2.9009                 2.2074
 Frc consts  --      1.2799                 1.6164                 1.4841
 IR Inten    --      5.6344                31.6594                34.9307

                     25                     26                     27
                      A                      A                      A
 Frequencies --   1086.5358              1130.5409              1154.4013
 Red. masses --      1.7085                 1.2678                 2.1890
 Frc consts  --      1.1884                 0.9547                 1.7187
 IR Inten    --     14.5433                 2.0162                30.5285

                     28                     29                     30
                      A                      A                      A
 Frequencies --   1174.5795              1207.1283              1269.7288
 Red. masses --      1.4253                 1.8516                 1.9223
 Frc consts  --      1.1586                 1.5897                 1.8260
 IR Inten    --      6.7889                17.3801                20.8532

                     31                     32                     33
                      A                      A                      A
 Frequencies --   1307.2071              1326.1600              1365.0928
 Red. masses --      1.3400                 1.2952                 2.1969
 Frc consts  --      1.3491                 1.3421                 2.4120
 IR Inten    --     18.5516                42.0857                32.8702

                     34                     35                     36
                      A                      A                      A
 Frequencies --   1386.6523              1403.3107              1452.0004
 Red. masses --      1.3944                 1.2687                 1.4683
 Frc consts  --      1.5797                 1.4721                 1.8239
 IR Inten    --      1.6015                 6.5613                47.7590

                     37                     38                     39
                      A                      A                      A
 Frequencies --   1461.3310              1484.8844              1499.8916
 Red. masses --      1.1387                 1.0747                 1.0523
 Frc consts  --      1.4327                 1.3961                 1.3948
 IR Inten    --     15.3358                 6.2582                 1.5803

                     40                     41                     42
                      A                      A                      A
 Frequencies --   1515.9967              2239.6478              2952.8648
 Red. masses --      1.2142                 5.9470                 1.0819
 Frc consts  --      1.6442                17.5756                 5.5581
 IR Inten    --      0.3939                 1.8935                41.7509

                     43                     44                     45
                      A                      A                      A
 Frequencies --   3037.8917              3043.6386              3090.1212
 Red. masses --      1.0395                 1.0545                 1.0529
 Frc consts  --      5.6520                 5.7553                 5.9234
 IR Inten    --      8.9618                22.6866                19.3099

                     46                     47                     48
                      A                      A                      A
 Frequencies --   3093.5058              3111.4651              3121.9851
 Red. masses --      1.1016                 1.1015                 1.1016
 Frc consts  --      6.2111                 6.2830                 6.3264
 IR Inten    --     13.5967                31.8086                20.7247

                     49                     50                     51
                      A                      A                      A
 Frequencies --   3186.1609              3500.3634              3777.1860
 Red. masses --      1.1201                 1.1626                 1.0658
 Frc consts  --      6.6998                 8.3925                 8.9592
 IR Inten    --     14.7049                69.8203                95.8286

 - Thermochemistry -
 -------------------
 Temperature   298.150 Kelvin.  Pressure   1.00000 Atm.
 Atom     1 has atomic number  6 and mass  12.00000

 Molecular mass:   126.06808 amu.
 Principal axes and moments of inertia in atomic units:
                           1         2         3
     Eigenvalues --   741.079711548.834281913.10543
           X            0.99956  -0.02851  -0.00852
           Y            0.02820   0.99900  -0.03464
           Z            0.00950   0.03439   0.99936
 This molecule is an asymmetric top.
 Rotational symmetry number  1.
 Warning -- assumption of classical behavior for rotation
           may cause significant error
 Rotational temperatures (Kelvin)      0.11688     0.05592     0.04527
 Rotational constants (GHZ):           2.43529     1.16523     0.94336
 Zero-point vibrational energy     409030.5 (Joules/Mol)
                                   97.76065 (Kcal/Mol)
 Warning -- explicit consideration of  14 degrees of freedom as
           vibrations may cause significant error
 Vibrational temperatures:     72.85   128.14   235.16   262.67   322.36
          (Kelvin)            341.49   438.50   506.90   538.14   638.61
                              677.68   691.83   793.79   834.77   909.69
                              960.20  1019.85  1163.36  1228.21  1317.86
                             1323.17  1368.88  1399.19  1536.95  1563.28
                             1626.59  1660.92  1689.96  1736.79  1826.85
                             1880.78  1908.05  1964.06  1995.08  2019.05
                             2089.10  2102.53  2136.41  2158.01  2181.18
                             3222.35  4248.51  4370.84  4379.11  4445.99
                             4450.86  4476.70  4491.83  4584.17  5036.24
                             5434.52

 Zero-point correction=                           0.155792 (Hartree/Particle)
 Thermal correction to Energy=                    0.165594
 Thermal correction to Enthalpy=                  0.166538
 Thermal correction to Gibbs Free Energy=         0.120960
 Sum of electronic and zero-point Energies=           -422.970678
 Sum of electronic and thermal Energies=              -422.960875
 Sum of electronic and thermal Enthalpies=            -422.959931
 Sum of electronic and thermal Free Energies=         -423.005509

                     E (Thermal)             CV                S
                      KCal/Mol        Cal/Mol-Kelvin    Cal/Mol-Kelvin
 Total                  103.912             36.551             95.928
 Electronic               0.000              0.000              0.000
 Translational            0.889              2.981             40.409
 Rotational               0.889              2.981             29.175
 Vibrational            102.134             30.589             26.344
 Vibration     1          0.595              1.977              4.792
 Vibration     2          0.602              1.957              3.681
 Vibration     3          0.623              1.887              2.510
 Vibration     4          0.630              1.864              2.302
 Vibration     5          0.649              1.804              1.926
 Vibration     6          0.656              1.784              1.823
 Vibration     7          0.696              1.665              1.391
 Vibration     8          0.729              1.571              1.156
 Vibration     9          0.745              1.525              1.063
 Vibration    10          0.803              1.374              0.815
 Vibration    11          0.828              1.314              0.735
 Vibration    12          0.837              1.293              0.708
 Vibration    13          0.907              1.136              0.541
 Vibration    14          0.937              1.074              0.485

 Optimization completed.
    -- Stationary point found.
 Normal termination of Gaussian 09 at Mon Jan 27 16:14:29 2020.
