 Gaussian 09, Revision D.01,
 Gaussian 09:  ES64L-G09RevD.01 24-Apr-2013

 -----------------------------
 # b3lyp 6-31G(2df,p) opt Freq
 -----------------------------

 -----
 titel
 -----
 Symbolic Z-matrix:
 Charge =  0 Multiplicity = 1

 SCF Done:  E(RB3LYP) =  -423.127454279     A.U. after   14 cycles
 Optimization completed.
    -- Stationary point found.
 Normal termination of Gaussian 09 at Mon Jan 27 15:36:20 2020.

 ----------------------------------------------------------------------
 #N Geom=AllCheck Guess=TCheck SCRF=Check GenChk RB3LYP/6-31G(2df,p) Fr
 eq
 ----------------------------------------------------------------------

 Structure from the checkpoint file:  "/scratch/puck/g09_fa02d086-3ddc-4352-945f-478bc6c85e5e/Gau-55450.chk"
 -----
 titel
 -----
 Charge =  0 Multiplicity = 1

                         Standard orientation:
 ---------------------------------------------------------------------
 Center     Atomic      Atomic             Coordinates (Angstroms)
 Number     Number       Type             X           Y           Z
 ---------------------------------------------------------------------
      1          6           0        1.719520    1.240765    0.593803
      2          6           0        1.474768    0.138011   -0.432865
      3          8           0        2.653408   -0.631883   -0.666050
      4          6           0        0.323921   -0.801713   -0.067978
      5          8           0       -0.303703   -0.683280    1.211022
      6          6           0       -1.104800   -0.423671    0.039326
      7          6           0       -2.183393   -1.453990   -0.235727
      8          6           0       -1.516640    0.946968   -0.166047
      9          6           0       -1.925232    2.058586   -0.374619
     10          1           0        0.843889    1.882296    0.706523
     11          1           0        1.941269    0.808635    1.575455
     12          1           0        2.569273    1.848486    0.272228
     13          1           0        1.247958    0.585597   -1.408022
     14          1           0        2.985418   -0.922419    0.190957
     15          1           0        0.522509   -1.830063   -0.376991
     16          1           0       -3.041447   -1.287304    0.421955
     17          1           0       -2.529051   -1.382003   -1.271155
     18          1           0       -1.794725   -2.459234   -0.057191
     19          1           0       -2.271608    3.047586   -0.548898
 ---------------------------------------------------------------------

 SCF Done:  E(RB3LYP) =  -423.127454279     A.U. after    1 cycles

 The electronic state is 1-A.
 Alpha  occ. eigenvalues --  -19.15862 -19.13670 -10.26794 -10.24030 -10.23797
 Alpha  occ. eigenvalues --  -10.19240 -10.19037 -10.18767 -10.17290  -1.07932
 Alpha  occ. eigenvalues --   -1.01876  -0.78612  -0.75836  -0.73448  -0.67779
 Alpha  occ. eigenvalues --   -0.63761  -0.59650  -0.53897  -0.51433  -0.49175
 Alpha  occ. eigenvalues --   -0.45679  -0.45125  -0.43956  -0.41485  -0.40442
 Alpha  occ. eigenvalues --   -0.38970  -0.37382  -0.36135  -0.33444  -0.32419
 Alpha  occ. eigenvalues --   -0.29636  -0.28173  -0.26567  -0.26042
 Alpha virt. eigenvalues --    0.02101   0.03803   0.07850   0.10466   0.11221
 Alpha virt. eigenvalues --    0.11790   0.13129   0.13639   0.14315   0.15802
 Alpha virt. eigenvalues --    0.17175   0.18024   0.19043   0.20565   0.22167

 Mulliken charges:
               1
     1  C   -0.409835
     2  C    0.078557
     3  O   -0.426883
     4  C   -0.029610
     5  O   -0.276923
     6  C    0.199193
     7  C   -0.470783
     8  C    0.294789
     9  C   -0.423623
    10  H    0.140313
    11  H    0.118106
    12  H    0.118741
    13  H    0.104918
    14  H    0.279967
    15  H    0.097478
    16  H    0.138541
    17  H    0.134338
    18  H    0.131393
    19  H    0.201321
 Sum of Mulliken charges =   0.00000

 Dipole moment (field-independent basis, Debye):
    X=             -0.7375    Y=              0.2371    Z=             -0.3082  Tot=              0.8337
 Quadrupole moment (field-independent basis, Debye-Ang):
   XX=            -52.0204   YY=            -47.7069   ZZ=            -56.7219
   XY=             -1.0426   XZ=              5.4901   YZ=             -1.0967

  Exact polarizability:  87.070  -7.869  87.787   3.421  -2.678  58.769
 Approx polarizability: 114.325 -21.904 134.288   4.987  -9.472  96.020

                      1                      2                      3
                      A                      A                      A
 Frequencies --     32.9219               121.6323               151.7209
 Red. masses --      3.7138                 4.2614                 2.2767
 Frc consts  --      0.0024                 0.0371                 0.0309
 IR Inten    --      2.0161                 0.3123                 1.7786

                      4                      5                      6
                      A                      A                      A
 Frequencies --    194.3108               205.5602               229.8638
 Red. masses --      1.6730                 1.8099                 1.7797
 Frc consts  --      0.0372                 0.0451                 0.0554
 IR Inten    --      0.9814                 2.0945                 1.4907

                      7                      8                      9
                      A                      A                      A
 Frequencies --    254.1080               292.9279               317.1667
 Red. masses --      1.5173                 2.9885                 1.1586
 Frc consts  --      0.0577                 0.1511                 0.0687
 IR Inten    --      1.3866                 3.3170                81.9638

                     10                     11                     12
                      A                      A                      A
 Frequencies --    384.7508               402.9984               447.1651
 Red. masses --      6.0292                 3.6747                 2.8322
 Frc consts  --      0.5259                 0.3516                 0.3337
 IR Inten    --     16.0535                 1.4589                15.0270

                     13                     14                     15
                      A                      A                      A
 Frequencies --    548.0412               602.3086               605.5010
 Red. masses --      6.3877                 4.6675                 3.5681
 Frc consts  --      1.1304                 0.9976                 0.7708
 IR Inten    --      2.7253                 7.0697                 4.2496

                     16                     17                     18
                      A                      A                      A
 Frequencies --    629.4204               666.6178               684.8866
 Red. masses --      1.2455                 1.2562                 4.0867
 Frc consts  --      0.2907                 0.3289                 1.1294
 IR Inten    --     45.5721                35.3618                 2.4320

                     19                     20                     21
                      A                      A                      A
 Frequencies --    804.7657               870.5700               910.7946
 Red. masses --      3.6171                 2.8705                 3.1783
 Frc consts  --      1.3802                 1.2818                 1.5534
 IR Inten    --     12.6046                20.3642                17.5576

                     22                     23                     24
                      A                      A                      A
 Frequencies --    958.8041              1014.9662              1041.9955
 Red. masses --      2.1868                 1.4014                 2.1502
 Frc consts  --      1.1845                 0.8506                 1.3755
 IR Inten    --      8.8983                13.4719                52.7887

                     25                     26                     27
                      A                      A                      A
 Frequencies --   1086.2321              1109.0277              1120.5641
 Red. masses --      1.7447                 1.6240                 2.6396
 Frc consts  --      1.2128                 1.1769                 1.9528
 IR Inten    --     27.7536                 7.7363                66.3827

                     28                     29                     30
                      A                      A                      A
 Frequencies --   1142.9771              1239.9902              1288.4244
 Red. masses --      1.9636                 2.3445                 1.3741
 Frc consts  --      1.5114                 2.1239                 1.3440
 IR Inten    --      6.0135                27.3075                 5.3909

                     31                     32                     33
                      A                      A                      A
 Frequencies --   1319.8789              1351.8391              1404.9847
 Red. masses --      1.6411                 1.4218                 1.3676
 Frc consts  --      1.6845                 1.5309                 1.5906
 IR Inten    --     11.8667                 7.9593                13.7694

                     34                     35                     36
                      A                      A                      A
 Frequencies --   1408.3580              1415.6770              1435.8587
 Red. masses --      1.2596                 1.2785                 2.1500
 Frc consts  --      1.4721                 1.5097                 2.6117
 IR Inten    --      4.5499                38.7790                12.3864

                     37                     38                     39
                      A                      A                      A
 Frequencies --   1479.2703              1488.6337              1493.7932
 Red. masses --      1.0622                 1.0624                 1.1192
 Frc consts  --      1.3694                 1.3871                 1.4714
 IR Inten    --      4.5176                 0.9272                 1.9206

                     40                     41                     42
                      A                      A                      A
 Frequencies --   1496.8080              2233.4131              3041.0928
 Red. masses --      1.0574                 5.9636                 1.0698
 Frc consts  --      1.3958                17.5266                 5.8292
 IR Inten    --      5.4891                 0.5107                 6.5078

                     43                     44                     45
                      A                      A                      A
 Frequencies --   3045.4206              3046.5051              3093.7623
 Red. masses --      1.0344                 1.0510                 1.0870
 Frc consts  --      5.6523                 5.7472                 6.1296
 IR Inten    --     11.6687                27.0587                20.9263

                     46                     47                     48
                      A                      A                      A
 Frequencies --   3117.0773              3117.4617              3132.0870
 Red. masses --      1.1005                 1.1015                 1.1028
 Frc consts  --      6.2996                 6.3075                 6.3740
 IR Inten    --     16.0287                17.5408                14.6748

                     49                     50                     51
                      A                      A                      A
 Frequencies --   3144.4366              3499.9597              3796.8264
 Red. masses --      1.1003                 1.1616                 1.0660
 Frc consts  --      6.4100                 8.3839                 9.0545
 IR Inten    --     10.0945                70.1714                17.9684

 - Thermochemistry -
 -------------------
 Temperature   298.150 Kelvin.  Pressure   1.00000 Atm.
 Atom     1 has atomic number  6 and mass  12.00000

 Molecular mass:   126.06808 amu.
 Principal axes and moments of inertia in atomic units:
                           1         2         3
     Eigenvalues --   740.258821480.648211885.38532
           X            0.99872   0.04635   0.02004
           Y           -0.04681   0.99863   0.02329
           Z           -0.01893  -0.02420   0.99953
 This molecule is an asymmetric top.
 Rotational symmetry number  1.
 Warning -- assumption of classical behavior for rotation
           may cause significant error
 Rotational temperatures (Kelvin)      0.11700     0.05850     0.04594
 Rotational constants (GHZ):           2.43799     1.21889     0.95723
 Zero-point vibrational energy     406276.7 (Joules/Mol)
                                   97.10246 (Kcal/Mol)
 Warning -- explicit consideration of  15 degrees of freedom as
           vibrations may cause significant error
 Vibrational temperatures:     47.37   175.00   218.29   279.57   295.75
          (Kelvin)            330.72   365.60   421.46   456.33   553.57
                              579.82   643.37   788.51   866.59   871.18
                              905.59   959.11   985.40  1157.88  1252.55
                             1310.43  1379.50  1460.31  1499.20  1562.84
                             1595.64  1612.24  1644.49  1784.07  1853.75
                             1899.01  1944.99  2021.46  2026.31  2036.84
                             2065.88  2128.34  2141.81  2149.23  2153.57
                             3213.38  4375.45  4381.68  4383.24  4451.23
                             4484.77  4485.33  4506.37  4524.14  5035.66
                             5462.78

 Zero-point correction=                           0.154743 (Hartree/Particle)
 Thermal correction to Energy=                    0.165008
 Thermal correction to Enthalpy=                  0.165952
 Thermal correction to Gibbs Free Energy=         0.119367
 Sum of electronic and zero-point Energies=           -422.972712
 Sum of electronic and thermal Energies=              -422.962447
 Sum of electronic and thermal Enthalpies=            -422.961502
 Sum of electronic and thermal Free Energies=         -423.008087

                     E (Thermal)             CV                S
                      KCal/Mol        Cal/Mol-Kelvin    Cal/Mol-Kelvin
 Total                  103.544             37.759             98.046
 Electronic               0.000              0.000              0.000
 Translational            0.889              2.981             40.409
 Rotational               0.889              2.981             29.115
 Vibrational            101.766             31.797             28.523
 Vibration     1          0.594              1.983              5.645
 Vibration     2          0.609              1.931              3.074
 Vibration     3          0.619              1.901              2.651
 Vibration     4          0.635              1.848              2.186
 Vibration     5          0.640              1.832              2.083
 Vibration     6          0.652              1.795              1.880
 Vibration     7          0.665              1.756              1.702
 Vibration     8          0.688              1.687              1.457
 Vibration     9          0.704              1.641              1.325
 Vibration    10          0.754              1.503              1.020
 Vibration    11          0.768              1.464              0.952
 Vibration    12          0.806              1.367              0.804
 Vibration    13          0.903              1.144              0.548
 Vibration    14          0.961              1.027              0.446
 Vibration    15          0.964              1.020              0.440

 Optimization completed.
    -- Stationary point found.
 Normal termination of Gaussian 09 at Mon Jan 27 16:15:58 2020.
