 Gaussian 09, Revision D.01,
 Gaussian 09:  ES64L-G09RevD.01 24-Apr-2013

 -----------------------------
 # b3lyp 6-31G(2df,p) opt Freq
 -----------------------------

 -----
 titel
 -----
 Symbolic Z-matrix:
 Charge =  0 Multiplicity = 1

 SCF Done:  E(RB3LYP) =  -423.128390210     A.U. after   14 cycles
 SCF Done:  E(RB3LYP) =  -423.128390232     A.U. after    6 cycles
 SCF Done:  E(RB3LYP) =  -423.128390128     A.U. after    7 cycles
 SCF Done:  E(RB3LYP) =  -423.128390262     A.U. after    7 cycles
 Optimization completed.
    -- Stationary point found.
 Normal termination of Gaussian 09 at Mon Jan 27 16:27:03 2020.

 ----------------------------------------------------------------------
 #N Geom=AllCheck Guess=TCheck SCRF=Check GenChk RB3LYP/6-31G(2df,p) Fr
 eq
 ----------------------------------------------------------------------

 Structure from the checkpoint file:  "/scratch/puck/g09_a77a7e84-0f03-4e7e-bf2b-7c391232f079/Gau-10042.chk"
 -----
 titel
 -----
 Charge =  0 Multiplicity = 1

                         Standard orientation:
 ---------------------------------------------------------------------
 Center     Atomic      Atomic             Coordinates (Angstroms)
 Number     Number       Type             X           Y           Z
 ---------------------------------------------------------------------
      1          8           0       -0.844378    2.006493   -0.485906
      2          6           0       -0.091429    0.806343   -0.523918
      3          6           0        1.282872    1.058882    0.150016
      4          6           0        2.229357   -0.043440    0.045000
      5          6           0        3.010459   -0.952500   -0.052887
      6          6           0       -0.883521   -0.314808    0.123185
      7          8           0       -1.253262   -0.003515    1.450874
      8          6           0       -0.676470   -1.755960   -0.244985
      9          6           0       -1.937894   -1.027846   -0.666629
     10          1           0       -1.279159    2.017254    0.376881
     11          1           0        0.076235    0.567516   -1.579613
     12          1           0        1.703851    1.961214   -0.306509
     13          1           0        1.108454    1.308544    1.205110
     14          1           0        3.704364   -1.751817   -0.136326
     15          1           0       -0.519770   -0.241213    2.029123
     16          1           0        0.069707   -1.994336   -0.993426
     17          1           0       -0.765766   -2.482755    0.555107
     18          1           0       -2.064517   -0.762557   -1.710214
     19          1           0       -2.852517   -1.269696   -0.138565
 ---------------------------------------------------------------------

 SCF Done:  E(RB3LYP) =  -423.128390262     A.U. after    1 cycles

 The electronic state is 1-A.
 Alpha  occ. eigenvalues --  -19.15703 -19.13256 -10.24209 -10.23974 -10.20724
 Alpha  occ. eigenvalues --  -10.18913 -10.18632 -10.18531 -10.17401  -1.04519
 Alpha  occ. eigenvalues --   -1.01276  -0.85206  -0.79320  -0.72131  -0.65642
 Alpha  occ. eigenvalues --   -0.61097  -0.58860  -0.53476  -0.52424  -0.50119
 Alpha  occ. eigenvalues --   -0.47516  -0.46085  -0.44872  -0.41451  -0.41149
 Alpha  occ. eigenvalues --   -0.39718  -0.36875  -0.33733  -0.33428  -0.29086
 Alpha  occ. eigenvalues --   -0.28645  -0.27492  -0.26674  -0.25172
 Alpha virt. eigenvalues --    0.04654   0.05400   0.06388   0.09795   0.10947
 Alpha virt. eigenvalues --    0.11692   0.12539   0.12945   0.14888   0.15655
 Alpha virt. eigenvalues --    0.17096   0.19511   0.20571   0.22250   0.23850

 Mulliken charges:
               1
     1  O   -0.432927
     2  C    0.075388
     3  C   -0.391204
     4  C    0.310015
     5  C   -0.460332
     6  C    0.389881
     7  O   -0.481220
     8  C   -0.319747
     9  C   -0.304497
    10  H    0.287786
    11  H    0.092997
    12  H    0.142673
    13  H    0.115569
    14  H    0.196723
    15  H    0.291450
    16  H    0.126890
    17  H    0.114544
    18  H    0.122487
    19  H    0.123524
 Sum of Mulliken charges =   0.00000

 Dipole moment (field-independent basis, Debye):
    X=              0.6967    Y=             -1.3816    Z=              0.9309  Tot=              1.8058
 Quadrupole moment (field-independent basis, Debye-Ang):
   XX=            -54.3028   YY=            -53.6141   ZZ=            -51.0747
   XY=             -0.7209   XZ=              0.1375   YZ=              1.9750

  Exact polarizability:  85.686  -9.943  79.446   0.900   1.970  62.970
 Approx polarizability: 117.905 -25.240 122.345  -1.015   3.991  96.887

                      1                      2                      3
                      A                      A                      A
 Frequencies --     39.1223                94.1360               143.9828
 Red. masses --      3.8976                 4.0527                 4.0987
 Frc consts  --      0.0035                 0.0212                 0.0501
 IR Inten    --      1.2400                 0.6463                 0.5225

                      4                      5                      6
                      A                      A                      A
 Frequencies --    209.2895               249.3323               298.9152
 Red. masses --      2.9721                 3.7418                 4.5160
 Frc consts  --      0.0767                 0.1371                 0.2377
 IR Inten    --      0.1776                 5.1052                 3.8681

                      7                      8                      9
                      A                      A                      A
 Frequencies --    315.5034               354.7892               371.6386
 Red. masses --      1.4486                 2.7366                 1.9070
 Frc consts  --      0.0850                 0.2030                 0.1552
 IR Inten    --     10.9729                11.0726                15.7983

                     10                     11                     12
                      A                      A                      A
 Frequencies --    411.1437               465.1838               471.2248
 Red. masses --      2.8810                 1.1292                 4.3327
 Frc consts  --      0.2869                 0.1440                 0.5668
 IR Inten    --      3.3241               151.3089                 6.4395

                     13                     14                     15
                      A                      A                      A
 Frequencies --    528.7611               583.1432               624.9979
 Red. masses --      3.5944                 3.7013                 1.2162
 Frc consts  --      0.5921                 0.7416                 0.2799
 IR Inten    --      6.6729                14.8916                42.7072

                     16                     17                     18
                      A                      A                      A
 Frequencies --    638.9910               726.8416               766.9668
 Red. masses --      1.2209                 2.7730                 1.0586
 Frc consts  --      0.2937                 0.8631                 0.3669
 IR Inten    --     48.2615                11.6538                 0.9873

                     19                     20                     21
                      A                      A                      A
 Frequencies --    887.5579               920.6323               937.0073
 Red. masses --      2.1837                 1.2674                 2.9767
 Frc consts  --      1.0135                 0.6329                 1.5398
 IR Inten    --     11.4954                 3.1087                23.5164

                     22                     23                     24
                      A                      A                      A
 Frequencies --    971.8293               975.6050               988.9543
 Red. masses --      3.5424                 2.1776                 2.3366
 Frc consts  --      1.9712                 1.2212                 1.3464
 IR Inten    --      0.0818                26.2773                 2.6959

                     25                     26                     27
                      A                      A                      A
 Frequencies --   1047.2428              1058.4028              1076.2265
 Red. masses --      2.2278                 2.0177                 1.8803
 Frc consts  --      1.4396                 1.3317                 1.2832
 IR Inten    --      4.6318                24.5421                56.6298

                     28                     29                     30
                      A                      A                      A
 Frequencies --   1077.9066              1184.0411              1189.8310
 Red. masses --      2.2120                 1.2427                 1.2366
 Frc consts  --      1.5143                 1.0265                 1.0315
 IR Inten    --     69.9186                 0.3769                 5.0529

                     31                     32                     33
                      A                      A                      A
 Frequencies --   1234.6304              1278.5477              1289.5130
 Red. masses --      1.4699                 1.5355                 1.7943
 Frc consts  --      1.3201                 1.4788                 1.7579
 IR Inten    --     24.6279                68.5033                27.0251

                     34                     35                     36
                      A                      A                      A
 Frequencies --   1336.4181              1345.2357              1375.5828
 Red. masses --      1.7400                 1.4892                 1.3930
 Frc consts  --      1.8310                 1.5879                 1.5530
 IR Inten    --     12.8434                18.5141                19.0449

                     37                     38                     39
                      A                      A                      A
 Frequencies --   1444.5740              1456.3234              1472.7273
 Red. masses --      1.3633                 1.0912                 1.0878
 Frc consts  --      1.6762                 1.3636                 1.3901
 IR Inten    --     60.2685                 3.1972                 7.2094

                     40                     41                     42
                      A                      A                      A
 Frequencies --   1499.6178              2234.4132              3022.0053
 Red. masses --      1.5504                 5.9427                 1.0651
 Frc consts  --      2.0543                17.4808                 5.7309
 IR Inten    --      3.2695                 2.5002                12.2356

                     43                     44                     45
                      A                      A                      A
 Frequencies --   3056.8751              3073.2376              3139.6410
 Red. masses --      1.0844                 1.0958                 1.0514
 Frc consts  --      5.9703                 6.0980                 6.1064
 IR Inten    --     17.5511                14.1995                 9.9638

                     46                     47                     48
                      A                      A                      A
 Frequencies --   3143.2088              3224.6658              3238.1692
 Red. masses --      1.0579                 1.1183                 1.1159
 Frc consts  --      6.1582                 6.8514                 6.8940
 IR Inten    --      4.5766                 0.3541                 8.8239

                     49                     50                     51
                      A                      A                      A
 Frequencies --   3505.4026              3769.7889              3796.3081
 Red. masses --      1.1616                 1.0653                 1.0662
 Frc consts  --      8.4100                 8.9198                 9.0534
 IR Inten    --     65.3324                40.8912                18.7383

 - Thermochemistry -
 -------------------
 Temperature   298.150 Kelvin.  Pressure   1.00000 Atm.
 Atom     1 has atomic number  8 and mass  15.99491

 Molecular mass:   126.06808 amu.
 Principal axes and moments of inertia in atomic units:
                           1         2         3
     Eigenvalues --   831.600661348.610571752.56957
           X            0.99978   0.01925   0.00826
           Y           -0.01944   0.99953   0.02372
           Z           -0.00780  -0.02388   0.99968
 This molecule is an asymmetric top.
 Rotational symmetry number  1.
 Warning -- assumption of classical behavior for rotation
           may cause significant error
 Rotational temperatures (Kelvin)      0.10415     0.06422     0.04942
 Rotational constants (GHZ):           2.17020     1.33822     1.02977
 Zero-point vibrational energy     409996.6 (Joules/Mol)
                                   97.99155 (Kcal/Mol)
 Warning -- explicit consideration of  14 degrees of freedom as
           vibrations may cause significant error
 Vibrational temperatures:     56.29   135.44   207.16   301.12   358.73
          (Kelvin)            430.07   453.94   510.46   534.70   591.54
                              669.29   677.99   760.77   839.01   899.23
                              919.36  1045.76  1103.49  1277.00  1324.58
                             1348.14  1398.24  1403.68  1422.88  1506.75
                             1522.80  1548.45  1550.87  1703.57  1711.90
                             1776.36  1839.54  1855.32  1922.81  1935.49
                             1979.15  2078.42  2095.32  2118.92  2157.61
                             3214.82  4347.99  4398.16  4421.70  4517.24
                             4522.37  4639.57  4659.00  5043.49  5423.88
                             5462.03

 Zero-point correction=                           0.156159 (Hartree/Particle)
 Thermal correction to Energy=                    0.165958
 Thermal correction to Enthalpy=                  0.166902
 Thermal correction to Gibbs Free Energy=         0.121321
 Sum of electronic and zero-point Energies=           -422.972231
 Sum of electronic and thermal Energies=              -422.962432
 Sum of electronic and thermal Enthalpies=            -422.961488
 Sum of electronic and thermal Free Energies=         -423.007070

                     E (Thermal)             CV                S
                      KCal/Mol        Cal/Mol-Kelvin    Cal/Mol-Kelvin
 Total                  104.140             37.096             95.935
 Electronic               0.000              0.000              0.000
 Translational            0.889              2.981             40.409
 Rotational               0.889              2.981             29.065
 Vibrational            102.363             31.134             26.462
 Vibration     1          0.594              1.981              5.303
 Vibration     2          0.603              1.953              3.572
 Vibration     3          0.616              1.909              2.750
 Vibration     4          0.642              1.827              2.050
 Vibration     5          0.662              1.764              1.735
 Vibration     6          0.692              1.676              1.423
 Vibration     7          0.703              1.644              1.333
 Vibration     8          0.731              1.565              1.145
 Vibration     9          0.743              1.530              1.073
 Vibration    10          0.775              1.446              0.923
 Vibration    11          0.823              1.327              0.751
 Vibration    12          0.828              1.314              0.734
 Vibration    13          0.884              1.186              0.590
 Vibration    14          0.940              1.068              0.480

 Optimization completed.
    -- Stationary point found.
 Normal termination of Gaussian 09 at Mon Jan 27 18:19:19 2020.
