 Gaussian 09, Revision D.01,
 Gaussian 09:  ES64L-G09RevD.01 24-Apr-2013

 -----------------------------
 # b3lyp 6-31G(2df,p) opt Freq
 -----------------------------

 -----
 titel
 -----
 Symbolic Z-matrix:
 Charge =  0 Multiplicity = 1

 SCF Done:  E(RB3LYP) =  -423.133137064     A.U. after   14 cycles
 Optimization completed.
    -- Stationary point found.
 Normal termination of Gaussian 09 at Mon Jan 27 13:58:29 2020.

 ----------------------------------------------------------------------
 #N Geom=AllCheck Guess=TCheck SCRF=Check GenChk RB3LYP/6-31G(2df,p) Fr
 eq
 ----------------------------------------------------------------------

 Structure from the checkpoint file:  "/scratch/puck/g09_c07f577c-8ad1-4b2b-a258-1086bd788016/Gau-76376.chk"
 -----
 titel
 -----
 Charge =  0 Multiplicity = 1

                         Standard orientation:
 ---------------------------------------------------------------------
 Center     Atomic      Atomic             Coordinates (Angstroms)
 Number     Number       Type             X           Y           Z
 ---------------------------------------------------------------------
      1          6           0        4.221736    0.049518    0.385420
      2          6           0        2.832994   -0.252068    0.065383
      3          6           0        1.694374   -0.540145   -0.206724
      4          6           0        0.292895   -0.802276   -0.515272
      5          6           0       -0.625125    0.289916    0.083090
      6          8           0       -0.245613    1.581545   -0.349335
      7          6           0       -2.055632    0.084221   -0.357526
      8          6           0       -3.183107    0.278650    0.557522
      9          8           0       -2.724058   -1.035340    0.223677
     10          1           0        4.815971   -0.867792    0.459728
     11          1           0        4.681771    0.680714   -0.382696
     12          1           0        4.305956    0.575778    1.342514
     13          1           0        0.148861   -0.826733   -1.603431
     14          1           0       -0.021055   -1.777286   -0.125410
     15          1           0       -0.581403    0.206979    1.180818
     16          1           0        0.713782    1.636878   -0.252839
     17          1           0       -2.222557    0.216169   -1.427830
     18          1           0       -2.991638    0.593490    1.582233
     19          1           0       -4.161134    0.545275    0.160816
 ---------------------------------------------------------------------

 SCF Done:  E(RB3LYP) =  -423.133137064     A.U. after    1 cycles

 The electronic state is 1-A.
 Alpha  occ. eigenvalues --  -19.15277 -19.13533 -10.24027 -10.23647 -10.23396
 Alpha  occ. eigenvalues --  -10.20906 -10.20601 -10.18206 -10.17714  -1.07289
 Alpha  occ. eigenvalues --   -1.02101  -0.79829  -0.76771  -0.71477  -0.67403
 Alpha  occ. eigenvalues --   -0.64720  -0.58780  -0.52000  -0.49837  -0.49216
 Alpha  occ. eigenvalues --   -0.46763  -0.45353  -0.43611  -0.43148  -0.42954
 Alpha  occ. eigenvalues --   -0.39928  -0.38760  -0.38120  -0.33841  -0.30942
 Alpha  occ. eigenvalues --   -0.27968  -0.26889  -0.25689  -0.25219
 Alpha virt. eigenvalues --    0.04623   0.05435   0.08990   0.10537   0.10947
 Alpha virt. eigenvalues --    0.11466   0.11986   0.12254   0.15458   0.16536
 Alpha virt. eigenvalues --    0.17517   0.17889   0.18227   0.20215   0.21067

 Mulliken charges:
               1
     1  C   -0.499572
     2  C    0.120279
     3  C   -0.013425
     4  C   -0.365782
     5  C    0.111439
     6  O   -0.441661
     7  C    0.086743
     8  C   -0.178990
     9  O   -0.242402
    10  H    0.153236
    11  H    0.149657
    12  H    0.149796
    13  H    0.129000
    14  H    0.144876
    15  H    0.075481
    16  H    0.286899
    17  H    0.098112
    18  H    0.118109
    19  H    0.118207
 Sum of Mulliken charges =   0.00000

 Dipole moment (field-independent basis, Debye):
    X=              1.6400    Y=              0.6381    Z=              0.3378  Tot=              1.7919
 Quadrupole moment (field-independent basis, Debye-Ang):
   XX=            -43.8798   YY=            -57.4089   ZZ=            -51.8125
   XY=             -1.6245   XZ=              1.1378   YZ=              1.6874

  Exact polarizability: 119.117   2.924  62.234   2.712   1.826  62.869
 Approx polarizability: 151.627   9.815  98.304   6.771   1.810  94.875

                      1                      2                      3
                      A                      A                      A
 Frequencies --     33.4307                52.9831                67.5090
 Red. masses --      1.0321                 4.0352                 3.9302
 Frc consts  --      0.0007                 0.0067                 0.0106
 IR Inten    --      0.0074                 0.4923                 1.7966

                      4                      5                      6
                      A                      A                      A
 Frequencies --     85.9360               183.0922               215.6878
 Red. masses --      3.6113                 4.4837                 2.9103
 Frc consts  --      0.0157                 0.0886                 0.0798
 IR Inten    --      2.3575                 4.9851                 7.4133

                      7                      8                      9
                      A                      A                      A
 Frequencies --    262.3876               314.1809               358.2814
 Red. masses --      3.9638                 2.7612                 3.8177
 Frc consts  --      0.1608                 0.1606                 0.2887
 IR Inten    --      9.6894                 1.7336                 4.7862

                     10                     11                     12
                      A                      A                      A
 Frequencies --    387.0589               396.5968               443.1104
 Red. masses --      2.3348                 1.3587                 4.4505
 Frc consts  --      0.2061                 0.1259                 0.5149
 IR Inten    --     21.8570                74.4441                 3.7457

                     13                     14                     15
                      A                      A                      A
 Frequencies --    489.3562               564.2030               764.5110
 Red. masses --      5.3439                 3.0816                 3.6699
 Frc consts  --      0.7540                 0.5780                 1.2638
 IR Inten    --      1.8314                 6.9660                 0.6337

                     16                     17                     18
                      A                      A                      A
 Frequencies --    844.4705               876.7576               890.1122
 Red. masses --      2.2608                 5.7325                 2.0232
 Frc consts  --      0.9499                 2.5963                 0.9445
 IR Inten    --      6.5178                21.7181                 3.6914

                     19                     20                     21
                      A                      A                      A
 Frequencies --    950.8384              1022.6830              1052.0959
 Red. masses --      2.2172                 2.4086                 1.4089
 Frc consts  --      1.1811                 1.4842                 0.9188
 IR Inten    --     35.4340                21.0841                 1.3059

                     22                     23                     24
                      A                      A                      A
 Frequencies --   1055.2473              1086.5540              1114.3832
 Red. masses --      1.3958                 1.6359                 1.6594
 Frc consts  --      0.9158                 1.1379                 1.2141
 IR Inten    --      1.5175                23.2991                 7.4535

                     25                     26                     27
                      A                      A                      A
 Frequencies --   1119.9312              1155.9745              1164.4126
 Red. masses --      3.2847                 1.3756                 3.1969
 Frc consts  --      2.4274                 1.0830                 2.5538
 IR Inten    --     51.3528                 3.2102                 0.1728

                     28                     29                     30
                      A                      A                      A
 Frequencies --   1172.2970              1229.1048              1272.5180
 Red. masses --      1.3663                 1.2747                 1.1651
 Frc consts  --      1.1063                 1.1345                 1.1115
 IR Inten    --      3.5137                 8.9094                20.5096

                     31                     32                     33
                      A                      A                      A
 Frequencies --   1282.6823              1303.6328              1369.1821
 Red. masses --      1.5230                 1.3924                 1.1957
 Frc consts  --      1.4763                 1.3942                 1.3207
 IR Inten    --      6.3655                37.8431                 8.5555

                     34                     35                     36
                      A                      A                      A
 Frequencies --   1387.7299              1415.8738              1464.9841
 Red. masses --      1.6183                 1.2506                 1.1222
 Frc consts  --      1.8362                 1.4771                 1.4190
 IR Inten    --     34.6683                 4.4545                 1.6623

                     37                     38                     39
                      A                      A                      A
 Frequencies --   1478.2278              1479.1246              1480.2662
 Red. masses --      1.0395                 1.0439                 1.6159
 Frc consts  --      1.3383                 1.3457                 2.0861
 IR Inten    --      6.0303                 3.6230                23.4930

                     40                     41                     42
                      A                      A                      A
 Frequencies --   1531.1921              2364.1883              2976.0436
 Red. masses --      1.4584                11.8115                 1.0829
 Frc consts  --      2.0146                38.8971                 5.6510
 IR Inten    --      4.2240                 0.9675                35.5072

                     43                     44                     45
                      A                      A                      A
 Frequencies --   3023.2625              3028.7263              3070.7185
 Red. masses --      1.0612                 1.0348                 1.0992
 Frc consts  --      5.7149                 5.5928                 6.1067
 IR Inten    --     18.7843                31.1550                 8.0726

                     46                     47                     48
                      A                      A                      A
 Frequencies --   3087.3426              3089.7358              3090.7280
 Red. masses --      1.0501                 1.1003                 1.1001
 Frc consts  --      5.8972                 6.1890                 6.1919
 IR Inten    --     28.6422                10.1357                 8.7050

                     49                     50                     51
                      A                      A                      A
 Frequencies --   3103.6733              3176.4002              3763.2996
 Red. masses --      1.0885                 1.1198                 1.0655
 Frc consts  --      6.1775                 6.6565                 8.8909
 IR Inten    --     22.4372                25.2938                52.7724

 - Thermochemistry -
 -------------------
 Temperature   298.150 Kelvin.  Pressure   1.00000 Atm.
 Atom     1 has atomic number  6 and mass  12.00000

 Molecular mass:   126.06808 amu.
 Principal axes and moments of inertia in atomic units:
                           1         2         3
     Eigenvalues --   373.283292724.775482923.90029
           X            0.99999  -0.00322   0.00392
           Y            0.00307   0.99922   0.03928
           Z           -0.00404  -0.03926   0.99922
 This molecule is an asymmetric top.
 Rotational symmetry number  1.
 Rotational temperatures (Kelvin)      0.23203     0.03179     0.02962
 Rotational constants (GHZ):           4.83478     0.66234     0.61724
 Zero-point vibrational energy     410275.6 (Joules/Mol)
                                   98.05821 (Kcal/Mol)
 Warning -- explicit consideration of  14 degrees of freedom as
           vibrations may cause significant error
 Vibrational temperatures:     48.10    76.23    97.13   123.64   263.43
          (Kelvin)            310.33   377.52   452.04   515.49   556.89
                              570.61   637.54   704.07   811.76  1099.96
                             1215.00  1261.46  1280.67  1368.04  1471.41
                             1513.73  1518.26  1563.31  1603.35  1611.33
                             1663.19  1675.33  1686.67  1768.41  1830.87
                             1845.49  1875.63  1969.95  1996.63  2037.12
                             2107.78  2126.84  2128.13  2129.77  2203.04
                             3401.54  4281.86  4349.79  4357.66  4418.07
                             4441.99  4445.44  4446.86  4465.49  4570.13
                             5414.54

 Zero-point correction=                           0.156266 (Hartree/Particle)
 Thermal correction to Energy=                    0.166663
 Thermal correction to Enthalpy=                  0.167607
 Thermal correction to Gibbs Free Energy=         0.119040
 Sum of electronic and zero-point Energies=           -422.976871
 Sum of electronic and thermal Energies=              -422.966474
 Sum of electronic and thermal Enthalpies=            -422.965530
 Sum of electronic and thermal Free Energies=         -423.014097

                     E (Thermal)             CV                S
                      KCal/Mol        Cal/Mol-Kelvin    Cal/Mol-Kelvin
 Total                  104.583             35.867            102.218
 Electronic               0.000              0.000              0.000
 Translational            0.889              2.981             40.409
 Rotational               0.889              2.981             29.477
 Vibrational            102.805             29.906             32.333
 Vibration     1          0.594              1.983              5.615
 Vibration     2          0.596              1.976              4.703
 Vibration     3          0.598              1.970              4.225
 Vibration     4          0.601              1.959              3.751
 Vibration     5          0.631              1.863              2.297
 Vibration     6          0.645              1.817              1.995
 Vibration     7          0.670              1.742              1.646
 Vibration     8          0.702              1.647              1.340
 Vibration     9          0.733              1.558              1.130
 Vibration    10          0.755              1.498              1.011
 Vibration    11          0.763              1.477              0.975
 Vibration    12          0.803              1.376              0.817
 Vibration    13          0.845              1.274              0.685
 Vibration    14          0.920              1.109              0.516

 Optimization completed on the basis of negligible forces.
    -- Stationary point found.
 Normal termination of Gaussian 09 at Mon Jan 27 14:31:59 2020.
