 Gaussian 09, Revision D.01,
 Gaussian 09:  ES64L-G09RevD.01 24-Apr-2013

 -----------------------------
 # b3lyp 6-31G(2df,p) opt Freq
 -----------------------------

 -----
 titel
 -----
 Symbolic Z-matrix:
 Charge =  0 Multiplicity = 1

 SCF Done:  E(RB3LYP) =  -423.149303134     A.U. after   13 cycles
 Optimization completed.
    -- Stationary point found.
 Normal termination of Gaussian 09 at Tue Jan 28 13:40:59 2020.

 ----------------------------------------------------------------------
 #N Geom=AllCheck Guess=TCheck SCRF=Check GenChk RB3LYP/6-31G(2df,p) Fr
 eq
 ----------------------------------------------------------------------

 Structure from the checkpoint file:  "/scratch/puck/g09_6e1a5ca6-d3ef-4f31-a0f5-36dc9152c8fa/Gau-94524.chk"
 -----
 titel
 -----
 Charge =  0 Multiplicity = 1

                         Standard orientation:
 ---------------------------------------------------------------------
 Center     Atomic      Atomic             Coordinates (Angstroms)
 Number     Number       Type             X           Y           Z
 ---------------------------------------------------------------------
      1          8           0        2.959043   -0.283307   -0.192018
      2          6           0        1.915184    0.661023   -0.042562
      3          6           0        0.685090    0.022269    0.583294
      4          8           0        0.283656   -1.078679   -0.262455
      5          6           0       -1.119292   -1.194167   -0.139455
      6          6           0       -1.998617   -0.069633   -0.651093
      7          6           0       -1.179960    1.217965   -0.705433
      8          6           0       -0.590893    0.859662    0.703109
      9          6           0       -1.688371   -0.234730    0.844372
     10          1           0        2.572167   -1.033689   -0.658110
     11          1           0        2.293583    1.451445    0.615012
     12          1           0        1.651877    1.120966   -1.006593
     13          1           0        0.966258   -0.376964    1.571520
     14          1           0       -1.479588   -2.212930   -0.216038
     15          1           0       -2.925578   -0.266586   -1.178085
     16          1           0       -0.479364    1.339049   -1.537008
     17          1           0       -1.820400    2.101050   -0.646995
     18          1           0       -0.545264    1.659249    1.441265
     19          1           0       -2.314119   -0.460042    1.697429
 ---------------------------------------------------------------------

 SCF Done:  E(RB3LYP) =  -423.149303134     A.U. after    1 cycles

 The electronic state is 1-A.
 Alpha  occ. eigenvalues --  -19.14316 -19.12538 -10.23699 -10.22967 -10.22233
 Alpha  occ. eigenvalues --  -10.20074 -10.19569 -10.19445 -10.19019  -1.04781
 Alpha  occ. eigenvalues --   -1.00614  -0.88681  -0.77386  -0.69964  -0.66804
 Alpha  occ. eigenvalues --   -0.60700  -0.57259  -0.53979  -0.52688  -0.50789
 Alpha  occ. eigenvalues --   -0.46807  -0.45709  -0.43008  -0.42000  -0.40385
 Alpha  occ. eigenvalues --   -0.39236  -0.35569  -0.34544  -0.33786  -0.31985
 Alpha  occ. eigenvalues --   -0.31522  -0.26809  -0.25962  -0.23433
 Alpha virt. eigenvalues --    0.08417   0.10230   0.10372   0.10659   0.12380
 Alpha virt. eigenvalues --    0.13119   0.14035   0.15223   0.16276   0.16578
 Alpha virt. eigenvalues --    0.16668   0.18624   0.19610   0.21521   0.24058

 Mulliken charges:
               1
     1  O   -0.423929
     2  C   -0.075638
     3  C    0.116441
     4  O   -0.298748
     5  C    0.113370
     6  C   -0.096688
     7  C   -0.239637
     8  C   -0.094453
     9  C   -0.126615
    10  H    0.293172
    11  H    0.104106
    12  H    0.089417
    13  H    0.074629
    14  H    0.103028
    15  H    0.084484
    16  H    0.102350
    17  H    0.105578
    18  H    0.078038
    19  H    0.091096
 Sum of Mulliken charges =   0.00000

 Dipole moment (field-independent basis, Debye):
    X=             -2.5543    Y=              0.6170    Z=              0.4219  Tot=              2.6614
 Quadrupole moment (field-independent basis, Debye-Ang):
   XX=            -58.7422   YY=            -50.6649   ZZ=            -51.8862
   XY=              1.4510   XZ=             -0.5440   YZ=              0.9557

  Exact polarizability:  82.549   2.032  71.613   2.677  -0.025  66.623
 Approx polarizability: 110.511   0.010 107.240   3.309   2.264 105.651

                      1                      2                      3
                      A                      A                      A
 Frequencies --    106.6037               156.2321               193.2007
 Red. masses --      3.8687                 4.2697                 2.6645
 Frc consts  --      0.0259                 0.0614                 0.0586
 IR Inten    --      3.2239                 0.9650                 1.0604

                      4                      5                      6
                      A                      A                      A
 Frequencies --    332.3153               413.5698               427.4026
 Red. masses --      2.6697                 3.0037                 1.3180
 Frc consts  --      0.1737                 0.3027                 0.1419
 IR Inten    --      2.8863                12.0266                98.7960

                      7                      8                      9
                      A                      A                      A
 Frequencies --    472.8341               511.0557               639.3794
 Red. masses --      3.0263                 2.7478                 3.3316
 Frc consts  --      0.3986                 0.4228                 0.8025
 IR Inten    --      9.0920                 2.4414                 0.5734

                     10                     11                     12
                      A                      A                      A
 Frequencies --    726.6301               746.7171               788.7867
 Red. masses --      4.4967                 2.2310                 2.1297
 Frc consts  --      1.3989                 0.7329                 0.7807
 IR Inten    --      1.5407                 3.6914                16.7014

                     13                     14                     15
                      A                      A                      A
 Frequencies --    815.8202               832.2546               866.2246
 Red. masses --      2.4881                 2.6531                 2.2372
 Frc consts  --      0.9757                 1.0827                 0.9890
 IR Inten    --      9.9115                15.0217                 9.3313

                     16                     17                     18
                      A                      A                      A
 Frequencies --    918.6915               963.2896               993.7398
 Red. masses --      1.6332                 1.5984                 2.0611
 Frc consts  --      0.8122                 0.8739                 1.1992
 IR Inten    --      7.4615                 6.9048                 2.1572

                     19                     20                     21
                      A                      A                      A
 Frequencies --   1007.5659              1010.9472              1022.5776
 Red. masses --      1.5637                 1.8629                 2.5789
 Frc consts  --      0.9353                 1.1217                 1.5888
 IR Inten    --     28.0195                24.2151                29.0752

                     22                     23                     24
                      A                      A                      A
 Frequencies --   1052.6140              1068.2357              1073.8681
 Red. masses --      2.2071                 2.0313                 2.9404
 Frc consts  --      1.4408                 1.3657                 1.9978
 IR Inten    --      1.6242                55.2988                52.1025

                     25                     26                     27
                      A                      A                      A
 Frequencies --   1101.3615              1113.1531              1127.8221
 Red. masses --      2.5074                 2.0079                 2.3046
 Frc consts  --      1.7920                 1.4659                 1.7272
 IR Inten    --      1.8618                31.2342                36.7897

                     28                     29                     30
                      A                      A                      A
 Frequencies --   1154.3140              1196.5597              1227.9890
 Red. masses --      1.5678                 1.4973                 1.5113
 Frc consts  --      1.2308                 1.2631                 1.3428
 IR Inten    --      5.6072                 5.2519                 2.9939

                     31                     32                     33
                      A                      A                      A
 Frequencies --   1232.7932              1276.7096              1288.5830
 Red. masses --      1.2372                 1.6840                 1.3199
 Frc consts  --      1.1078                 1.6173                 1.2912
 IR Inten    --     13.4825                 3.2565                 0.9545

                     34                     35                     36
                      A                      A                      A
 Frequencies --   1316.8345              1329.8295              1360.8023
 Red. masses --      1.6581                 1.3440                 1.4508
 Frc consts  --      1.6941                 1.4003                 1.5828
 IR Inten    --      1.9209                 5.8058                 1.1057

                     37                     38                     39
                      A                      A                      A
 Frequencies --   1397.5408              1408.9986              1443.6366
 Red. masses --      1.7365                 1.5274                 1.3722
 Frc consts  --      1.9983                 1.7866                 1.6849
 IR Inten    --     56.5237                 3.7043                41.6758

                     40                     41                     42
                      A                      A                      A
 Frequencies --   1491.2082              1501.8907              2971.7023
 Red. masses --      1.1093                 1.0993                 1.0820
 Frc consts  --      1.4533                 1.4609                 5.6295
 IR Inten    --      1.2907                 1.0289                30.2463

                     43                     44                     45
                      A                      A                      A
 Frequencies --   2996.3019              3055.4638              3071.8587
 Red. masses --      1.0677                 1.0581                 1.0954
 Frc consts  --      5.6477                 5.8202                 6.0903
 IR Inten    --     60.6149                49.7010                33.3845

                     46                     47                     48
                      A                      A                      A
 Frequencies --   3106.8851              3125.9362              3170.7980
 Red. masses --      1.1061                 1.0897                 1.0906
 Frc consts  --      6.2907                 6.2733                 6.4605
 IR Inten    --     19.0874                28.7867                20.3798

                     49                     50                     51
                      A                      A                      A
 Frequencies --   3190.1955              3204.3376              3799.2064
 Red. masses --      1.0897                 1.0987                 1.0655
 Frc consts  --      6.5343                 6.6467                 9.0616
 IR Inten    --     14.4008                18.9238                25.9177

 - Thermochemistry -
 -------------------
 Temperature   298.150 Kelvin.  Pressure   1.00000 Atm.
 Atom     1 has atomic number  8 and mass  15.99491

 Molecular mass:   126.06808 amu.
 Principal axes and moments of inertia in atomic units:
                           1         2         3
     Eigenvalues --   476.936471392.418351547.11347
           X            0.99997   0.00719   0.00161
           Y           -0.00715   0.99962  -0.02647
           Z           -0.00180   0.02646   0.99965
 This molecule is an asymmetric top.
 Rotational symmetry number  1.
 Warning -- assumption of classical behavior for rotation
           may cause significant error
 Rotational temperatures (Kelvin)      0.18160     0.06220     0.05598
 Rotational constants (GHZ):           3.78403     1.29612     1.16652
 Zero-point vibrational energy     423497.6 (Joules/Mol)
                                  101.21835 (Kcal/Mol)
 Warning -- explicit consideration of   8 degrees of freedom as
           vibrations may cause significant error
 Vibrational temperatures:    153.38   224.78   277.97   478.13   595.03
          (Kelvin)            614.94   680.30   735.29   919.92  1045.46
                             1074.36  1134.89  1173.78  1197.43  1246.30
                             1321.79  1385.96  1429.77  1449.66  1454.53
                             1471.26  1514.47  1536.95  1545.05  1584.61
                             1601.58  1622.68  1660.80  1721.58  1766.80
                             1773.71  1836.90  1853.98  1894.63  1913.33
                             1957.89  2010.75  2027.23  2077.07  2145.51
                             2160.88  4275.61  4311.00  4396.13  4419.71
                             4470.11  4497.52  4562.07  4589.97  4610.32
                             5466.20

 Zero-point correction=                           0.161302 (Hartree/Particle)
 Thermal correction to Energy=                    0.168649
 Thermal correction to Enthalpy=                  0.169594
 Thermal correction to Gibbs Free Energy=         0.129505
 Sum of electronic and zero-point Energies=           -422.988001
 Sum of electronic and thermal Energies=              -422.980654
 Sum of electronic and thermal Enthalpies=            -422.979710
 Sum of electronic and thermal Free Energies=         -423.019799

                     E (Thermal)             CV                S
                      KCal/Mol        Cal/Mol-Kelvin    Cal/Mol-Kelvin
 Total                  105.829             29.644             84.374
 Electronic               0.000              0.000              0.000
 Translational            0.889              2.981             40.409
 Rotational               0.889              2.981             28.421
 Vibrational            104.052             23.682             15.545
 Vibration     1          0.605              1.944              3.330
 Vibration     2          0.620              1.896              2.595
 Vibration     3          0.635              1.849              2.197
 Vibration     4          0.714              1.611              1.249
 Vibration     5          0.777              1.441              0.914
 Vibration     6          0.789              1.411              0.867
 Vibration     7          0.830              1.310              0.730
 Vibration     8          0.866              1.226              0.631

 Optimization completed.
    -- Stationary point found.
 Normal termination of Gaussian 09 at Tue Jan 28 15:04:35 2020.
