 Gaussian 09, Revision D.01,
 Gaussian 09:  ES64L-G09RevD.01 24-Apr-2013

 -----------------------------
 # b3lyp 6-31G(2df,p) opt Freq
 -----------------------------

 -----
 titel
 -----
 Symbolic Z-matrix:
 Charge =  0 Multiplicity = 1

 SCF Done:  E(RB3LYP) =  -423.203978817     A.U. after   14 cycles
 Optimization completed.
    -- Stationary point found.
 Normal termination of Gaussian 09 at Mon Jan 27 22:03:10 2020.

 ----------------------------------------------------------------------
 #N Geom=AllCheck Guess=TCheck SCRF=Check GenChk RB3LYP/6-31G(2df,p) Fr
 eq
 ----------------------------------------------------------------------

 Structure from the checkpoint file:  "/scratch/puck/g09_50f8f1b9-16f4-4c33-8b64-a10f83d263f0/Gau-192816.chk"
 -----
 titel
 -----
 Charge =  0 Multiplicity = 1

                         Standard orientation:
 ---------------------------------------------------------------------
 Center     Atomic      Atomic             Coordinates (Angstroms)
 Number     Number       Type             X           Y           Z
 ---------------------------------------------------------------------
      1          6           0        3.247966    0.156916    0.093537
      2          6           0        1.748622    0.143800   -0.003234
      3          6           0        0.999769    1.243426   -0.096227
      4          6           0       -0.503793    1.203059   -0.143736
      5          6           0       -0.993873   -0.175518    0.304364
      6          8           0       -0.271673   -1.214061   -0.328943
      7          6           0        1.100993   -1.220761    0.018321
      8          6           0       -2.463868   -0.425405    0.010391
      9          8           0       -3.313265    0.424956    0.061870
     10          1           0        3.593324   -0.346713    1.005938
     11          1           0        3.707893   -0.375314   -0.749076
     12          1           0        3.636947    1.178116    0.104830
     13          1           0        1.475864    2.220462   -0.135324
     14          1           0       -0.940887    1.970028    0.504399
     15          1           0       -0.871847    1.417525   -1.155983
     16          1           0       -0.877371   -0.255226    1.403222
     17          1           0        1.241783   -1.682998    1.013625
     18          1           0        1.589677   -1.883287   -0.706523
     19          1           0       -2.690786   -1.482855   -0.249023
 ---------------------------------------------------------------------

 SCF Done:  E(RB3LYP) =  -423.203978817     A.U. after    1 cycles

 The electronic state is 1-A.
 Alpha  occ. eigenvalues --  -19.15128 -19.14476 -10.27184 -10.24400 -10.23877
 Alpha  occ. eigenvalues --  -10.19392 -10.19144 -10.18890 -10.18420  -1.05629
 Alpha  occ. eigenvalues --   -1.04379  -0.81737  -0.78919  -0.71471  -0.66307
 Alpha  occ. eigenvalues --   -0.64295  -0.57750  -0.53225  -0.50066  -0.49176
 Alpha  occ. eigenvalues --   -0.45871  -0.45114  -0.43625  -0.42118  -0.41576
 Alpha  occ. eigenvalues --   -0.39714  -0.39576  -0.38764  -0.36796  -0.35616
 Alpha  occ. eigenvalues --   -0.32048  -0.26353  -0.25437  -0.24414
 Alpha virt. eigenvalues --   -0.02751   0.01880   0.08938   0.10510   0.11810
 Alpha virt. eigenvalues --    0.12592   0.14036   0.14317   0.15677   0.16479
 Alpha virt. eigenvalues --    0.17453   0.18716   0.19696   0.20888   0.22747

 Mulliken charges:
               1
     1  C   -0.478538
     2  C    0.291379
     3  C   -0.169332
     4  C   -0.253206
     5  C    0.023861
     6  O   -0.266376
     7  C   -0.150593
     8  C    0.137653
     9  O   -0.247524
    10  H    0.125747
    11  H    0.126578
    12  H    0.127172
    13  H    0.085238
    14  H    0.123277
    15  H    0.121295
    16  H    0.093530
    17  H    0.097198
    18  H    0.118207
    19  H    0.094431
 Sum of Mulliken charges =   0.00000

 Dipole moment (field-independent basis, Debye):
    X=              2.8797    Y=             -0.4768    Z=              0.6523  Tot=              2.9909
 Quadrupole moment (field-independent basis, Debye-Ang):
   XX=            -59.6193   YY=            -52.3777   ZZ=            -52.8226
   XY=              2.2584   XZ=             -0.2019   YZ=             -0.9161

  Exact polarizability:  99.745  -8.248  81.350   1.463  -0.719  55.333
 Approx polarizability: 127.105 -22.426 128.910   2.890  -0.352  88.001

                      1                      2                      3
                      A                      A                      A
 Frequencies --     55.1767               103.0642               174.3862
 Red. masses --      4.2618                 2.3652                 1.1072
 Frc consts  --      0.0076                 0.0148                 0.0198
 IR Inten    --      5.8061                 2.9786                 1.3646

                      4                      5                      6
                      A                      A                      A
 Frequencies --    177.4197               205.7171               263.6380
 Red. masses --      4.7941                 2.5401                 2.0954
 Frc consts  --      0.0889                 0.0633                 0.0858
 IR Inten    --      3.7010                 6.7349                 1.0468

                      7                      8                      9
                      A                      A                      A
 Frequencies --    316.5044               381.1121               434.5248
 Red. masses --      2.9295                 4.1534                 2.3130
 Frc consts  --      0.1729                 0.3554                 0.2573
 IR Inten    --      0.5454                 0.4341                 1.3369

                     10                     11                     12
                      A                      A                      A
 Frequencies --    445.4882               539.2660               584.5448
 Red. masses --      2.6408                 5.5291                 5.4559
 Frc consts  --      0.3088                 0.9474                 1.0984
 IR Inten    --      4.2338                 5.6155                 4.2141

                     13                     14                     15
                      A                      A                      A
 Frequencies --    688.1274               792.8924               808.0376
 Red. masses --      3.2524                 3.1664                 1.3746
 Frc consts  --      0.9074                 1.1728                 0.5288
 IR Inten    --     21.6863                10.5867                 8.7670

                     16                     17                     18
                      A                      A                      A
 Frequencies --    893.4238               917.4234               953.5158
 Red. masses --      1.7896                 2.2091                 1.8158
 Frc consts  --      0.8416                 1.0955                 0.9727
 IR Inten    --      5.1762                13.4280                 1.9219

                     19                     20                     21
                      A                      A                      A
 Frequencies --   1004.1572              1044.9195              1066.2865
 Red. masses --      1.4628                 2.8576                 1.8905
 Frc consts  --      0.8691                 1.8383                 1.2664
 IR Inten    --     16.9924                13.6003                23.4387

                     22                     23                     24
                      A                      A                      A
 Frequencies --   1071.8626              1087.0791              1119.1053
 Red. masses --      1.9245                 1.8886                 2.3802
 Frc consts  --      1.3027                 1.3149                 1.7563
 IR Inten    --      1.9623                 0.4403                 2.0164

                     25                     26                     27
                      A                      A                      A
 Frequencies --   1147.5502              1183.6346              1218.4382
 Red. masses --      5.5804                 2.3672                 1.3529
 Frc consts  --      4.3297                 1.9540                 1.1833
 IR Inten    --     93.0636                 3.9147                 9.7883

                     28                     29                     30
                      A                      A                      A
 Frequencies --   1265.8670              1302.8592              1341.2284
 Red. masses --      1.1089                 1.5447                 1.2542
 Frc consts  --      1.0469                 1.5448                 1.3293
 IR Inten    --      7.4873                 1.9782                 2.6656

                     31                     32                     33
                      A                      A                      A
 Frequencies --   1356.3878              1371.7674              1402.6359
 Red. masses --      1.3485                 1.7608                 1.4360
 Frc consts  --      1.4618                 1.9522                 1.6645
 IR Inten    --     13.8601                 5.2386                 3.3354

                     34                     35                     36
                      A                      A                      A
 Frequencies --   1409.7675              1415.3170              1472.4007
 Red. masses --      1.4219                 1.2549                 1.0918
 Frc consts  --      1.6649                 1.4810                 1.3946
 IR Inten    --      7.5004                 3.8739                 2.7421

                     37                     38                     39
                      A                      A                      A
 Frequencies --   1478.9157              1486.3756              1493.3588
 Red. masses --      1.0446                 1.0799                 1.0717
 Frc consts  --      1.3462                 1.4057                 1.4082
 IR Inten    --      7.3091                 0.2365                 7.7040

                     40                     41                     42
                      A                      A                      A
 Frequencies --   1745.6092              1838.9890              2899.9081
 Red. masses --      7.0657                10.8088                 1.0843
 Frc consts  --     12.6852                21.5370                 5.3723
 IR Inten    --      0.4611               143.2413                90.6625

                     43                     44                     45
                      A                      A                      A
 Frequencies --   2915.9255              2929.9048              3015.1831
 Red. masses --      1.0790                 1.0724                 1.0389
 Frc consts  --      5.4054                 5.4241                 5.5646
 IR Inten    --     36.3708                67.5683                32.6486

                     46                     47                     48
                      A                      A                      A
 Frequencies --   3023.0816              3047.5175              3060.6073
 Red. masses --      1.0668                 1.0868                 1.0984
 Frc consts  --      5.7444                 5.9471                 6.0624
 IR Inten    --     21.7760                30.1567                24.8731

                     49                     50                     51
                      A                      A                      A
 Frequencies --   3073.1749              3115.3192              3151.1988
 Red. masses --      1.0940                 1.0985                 1.0899
 Frc consts  --      6.0875                 6.2813                 6.3765
 IR Inten    --     13.1345                16.2391                22.7247

 - Thermochemistry -
 -------------------
 Temperature   298.150 Kelvin.  Pressure   1.00000 Atm.
 Atom     1 has atomic number  6 and mass  12.00000

 Molecular mass:   126.06808 amu.
 Principal axes and moments of inertia in atomic units:
                           1         2         3
     Eigenvalues --   409.923701856.825742194.26214
           X            0.99999   0.00253   0.00237
           Y           -0.00250   0.99991  -0.01305
           Z           -0.00240   0.01305   0.99991
 This molecule is an asymmetric top.
 Rotational symmetry number  1.
 Rotational temperatures (Kelvin)      0.21129     0.04665     0.03947
 Rotational constants (GHZ):           4.40263     0.97195     0.82248
 Zero-point vibrational energy     414449.8 (Joules/Mol)
                                   99.05588 (Kcal/Mol)
 Warning -- explicit consideration of  12 degrees of freedom as
           vibrations may cause significant error
 Vibrational temperatures:     79.39   148.29   250.90   255.27   295.98
          (Kelvin)            379.32   455.38   548.33   625.18   640.96
                              775.88   841.03   990.06  1140.79  1162.58
                             1285.44  1319.97  1371.89  1444.76  1503.40
                             1534.15  1542.17  1564.06  1610.14  1651.07
                             1702.98  1753.06  1821.30  1874.52  1929.73
                             1951.54  1973.66  2018.08  2028.34  2036.32
                             2118.45  2127.83  2138.56  2148.61  2511.54
                             2645.89  4172.32  4195.36  4215.47  4338.17
                             4349.53  4384.69  4403.53  4421.61  4482.24
                             4533.87

 Zero-point correction=                           0.157856 (Hartree/Particle)
 Thermal correction to Energy=                    0.166845
 Thermal correction to Enthalpy=                  0.167789
 Thermal correction to Gibbs Free Energy=         0.123709
 Sum of electronic and zero-point Energies=           -423.046123
 Sum of electronic and thermal Energies=              -423.037134
 Sum of electronic and thermal Enthalpies=            -423.036190
 Sum of electronic and thermal Free Energies=         -423.080270

                     E (Thermal)             CV                S
                      KCal/Mol        Cal/Mol-Kelvin    Cal/Mol-Kelvin
 Total                  104.697             32.800             92.775
 Electronic               0.000              0.000              0.000
 Translational            0.889              2.981             40.409
 Rotational               0.889              2.981             28.903
 Vibrational            102.919             26.839             23.463
 Vibration     1          0.596              1.976              4.623
 Vibration     2          0.605              1.947              3.396
 Vibration     3          0.627              1.874              2.388
 Vibration     4          0.628              1.870              2.355
 Vibration     5          0.640              1.832              2.081
 Vibration     6          0.670              1.740              1.638
 Vibration     7          0.703              1.642              1.328
 Vibration     8          0.751              1.510              1.035
 Vibration     9          0.795              1.395              0.844
 Vibration    10          0.805              1.371              0.810
 Vibration    11          0.894              1.163              0.567
 Vibration    12          0.941              1.065              0.477

 Optimization completed.
    -- Stationary point found.
 Normal termination of Gaussian 09 at Mon Jan 27 22:46:02 2020.
