 Gaussian 09, Revision D.01,
 Gaussian 09:  ES64L-G09RevD.01 24-Apr-2013

 -----------------------------
 # b3lyp 6-31G(2df,p) opt Freq
 -----------------------------

 -----
 titel
 -----
 Symbolic Z-matrix:
 Charge =  0 Multiplicity = 1

 SCF Done:  E(RB3LYP) =  -423.203028626     A.U. after   13 cycles
 Optimization completed.
    -- Stationary point found.
 Normal termination of Gaussian 09 at Tue Jan 28 08:11:06 2020.

 ----------------------------------------------------------------------
 #N Geom=AllCheck Guess=TCheck SCRF=Check GenChk RB3LYP/6-31G(2df,p) Fr
 eq
 ----------------------------------------------------------------------

 Structure from the checkpoint file:  "/scratch/puck/g09_0bdcb6a1-215f-4942-a027-80de09cfb241/Gau-55023.chk"
 -----
 titel
 -----
 Charge =  0 Multiplicity = 1

                         Standard orientation:
 ---------------------------------------------------------------------
 Center     Atomic      Atomic             Coordinates (Angstroms)
 Number     Number       Type             X           Y           Z
 ---------------------------------------------------------------------
      1          8           0        2.412198   -0.658774   -0.412742
      2          6           0        1.224664   -0.651021    0.363674
      3          6           0        1.018891    0.712033    1.029967
      4          8           0        0.557031    1.528584   -0.044468
      5          6           0       -0.413951    0.740684   -0.763372
      6          6           0       -1.805143    0.873940   -0.197613
      7          6           0       -2.259029   -0.271780    0.305430
      8          6           0       -1.277640   -1.407187    0.155520
      9          6           0       -0.040237   -0.760639   -0.522401
     10          1           0        2.428404    0.176695   -0.895660
     11          1           0        1.315046   -1.476897    1.073742
     12          1           0        0.278494    0.658712    1.842174
     13          1           0        1.946575    1.143211    1.412901
     14          1           0       -0.347561    1.066578   -1.806145
     15          1           0       -2.331191    1.821684   -0.198012
     16          1           0       -3.227837   -0.407083    0.775618
     17          1           0       -1.036401   -1.861187    1.126250
     18          1           0       -1.691533   -2.217594   -0.456681
     19          1           0        0.226839   -1.278769   -1.443743
 ---------------------------------------------------------------------

 SCF Done:  E(RB3LYP) =  -423.203028626     A.U. after    1 cycles

 The electronic state is 1-A.
 Alpha  occ. eigenvalues --  -19.14061 -19.13148 -10.23183 -10.23036 -10.22256
 Alpha  occ. eigenvalues --  -10.19129 -10.19015 -10.18688 -10.18028  -1.04223
 Alpha  occ. eigenvalues --   -1.00709  -0.83944  -0.75564  -0.71298  -0.68953
 Alpha  occ. eigenvalues --   -0.60171  -0.57251  -0.54324  -0.51403  -0.50222
 Alpha  occ. eigenvalues --   -0.47649  -0.45023  -0.42753  -0.41111  -0.39293
 Alpha  occ. eigenvalues --   -0.39209  -0.36772  -0.35480  -0.34582  -0.32184
 Alpha  occ. eigenvalues --   -0.31284  -0.27377  -0.25753  -0.24740
 Alpha virt. eigenvalues --    0.01222   0.08764   0.09798   0.10632   0.13060
 Alpha virt. eigenvalues --    0.14061   0.14517   0.15750   0.16215   0.16523
 Alpha virt. eigenvalues --    0.17407   0.19233   0.19791   0.19994   0.21285

 Mulliken charges:
               1
     1  O   -0.445309
     2  C    0.133950
     3  C   -0.132267
     4  O   -0.280009
     5  C    0.059385
     6  C   -0.082920
     7  C   -0.061820
     8  C   -0.283433
     9  C   -0.072808
    10  H    0.285112
    11  H    0.083483
    12  H    0.095268
    13  H    0.114103
    14  H    0.082909
    15  H    0.099733
    16  H    0.098513
    17  H    0.106571
    18  H    0.113386
    19  H    0.086152
 Sum of Mulliken charges =   0.00000

 Dipole moment (field-independent basis, Debye):
    X=             -1.6016    Y=             -0.4178    Z=              0.2540  Tot=              1.6746
 Quadrupole moment (field-independent basis, Debye-Ang):
   XX=            -55.0784   YY=            -55.1589   ZZ=            -50.5408
   XY=              2.8466   XZ=              0.0849   YZ=             -1.4350

  Exact polarizability:  82.585   2.876  76.596  -2.301  -4.145  64.865
 Approx polarizability: 111.678   7.730 123.238  -5.859 -11.862 101.423

                      1                      2                      3
                      A                      A                      A
 Frequencies --     88.9761               168.7962               231.2126
 Red. masses --      3.3254                 3.4655                 3.9435
 Frc consts  --      0.0155                 0.0582                 0.1242
 IR Inten    --      0.6269                 4.8432                 3.7044

                      4                      5                      6
                      A                      A                      A
 Frequencies --    312.5573               373.3756               417.2660
 Red. masses --      2.5381                 4.2705                 1.1274
 Frc consts  --      0.1461                 0.3508                 0.1157
 IR Inten    --      3.7227                 0.1690                72.6012

                      7                      8                      9
                      A                      A                      A
 Frequencies --    449.4964               492.9516               614.6594
 Red. masses --      2.3527                 2.4649                 5.2484
 Frc consts  --      0.2801                 0.3529                 1.1683
 IR Inten    --      9.4480                 7.3256                10.9533

                     10                     11                     12
                      A                      A                      A
 Frequencies --    715.6293               759.7211               785.4195
 Red. masses --      2.1448                 2.3445                 4.8475
 Frc consts  --      0.6472                 0.7973                 1.7619
 IR Inten    --     14.5365                14.3494                 7.6240

                     13                     14                     15
                      A                      A                      A
 Frequencies --    809.4080               866.9168               877.7938
 Red. masses --      3.2588                 2.7139                 2.7795
 Frc consts  --      1.2579                 1.2017                 1.2618
 IR Inten    --      3.1196                 0.6583                15.1879

                     16                     17                     18
                      A                      A                      A
 Frequencies --    903.0777               939.8087               956.3543
 Red. masses --      2.0170                 3.2467                 2.5916
 Frc consts  --      0.9692                 1.6895                 1.3965
 IR Inten    --      7.4093                15.1940                12.2499

                     19                     20                     21
                      A                      A                      A
 Frequencies --    981.6534               999.3591              1022.1633
 Red. masses --      1.3046                 2.0324                 2.4844
 Frc consts  --      0.7407                 1.1959                 1.5293
 IR Inten    --      3.8421                14.9109                15.6593

                     22                     23                     24
                      A                      A                      A
 Frequencies --   1029.7770              1064.4389              1078.3093
 Red. masses --      2.5533                 2.8222                 2.0291
 Frc consts  --      1.5953                 1.8840                 1.3901
 IR Inten    --     47.6883                20.4614                57.8952

                     25                     26                     27
                      A                      A                      A
 Frequencies --   1105.6511              1129.9548              1175.6112
 Red. masses --      2.3270                 1.1200                 1.1658
 Frc consts  --      1.6760                 0.8426                 0.9493
 IR Inten    --     54.0249                 5.1757                13.4005

                     28                     29                     30
                      A                      A                      A
 Frequencies --   1217.0550              1230.5633              1266.7862
 Red. masses --      1.7718                 1.1649                 1.4616
 Frc consts  --      1.5462                 1.0393                 1.3819
 IR Inten    --     14.0843                23.7447                 3.7145

                     31                     32                     33
                      A                      A                      A
 Frequencies --   1289.4761              1301.7802              1322.4502
 Red. masses --      1.4211                 1.3349                 1.4540
 Frc consts  --      1.3922                 1.3329                 1.4982
 IR Inten    --      2.2400                 0.0134                 6.3373

                     34                     35                     36
                      A                      A                      A
 Frequencies --   1331.0777              1342.6638              1372.1526
 Red. masses --      1.5360                 1.3247                 1.3903
 Frc consts  --      1.6035                 1.4070                 1.5422
 IR Inten    --      0.9122                 6.9384                 0.5476

                     37                     38                     39
                      A                      A                      A
 Frequencies --   1383.0641              1431.6498              1485.6881
 Red. masses --      1.6465                 1.2517                 1.0902
 Frc consts  --      1.8557                 1.5115                 1.4178
 IR Inten    --     14.9554                65.6630                 3.4444

                     40                     41                     42
                      A                      A                      A
 Frequencies --   1504.1726              1688.8245              2995.7250
 Red. masses --      1.0948                 6.2393                 1.0687
 Frc consts  --      1.4594                10.4847                 5.6509
 IR Inten    --      3.7697                 2.2187                40.8206

                     43                     44                     45
                      A                      A                      A
 Frequencies --   3016.1837              3045.3530              3055.8469
 Red. masses --      1.0637                 1.0977                 1.0861
 Frc consts  --      5.7014                 5.9983                 5.9758
 IR Inten    --     31.9111                19.0792                34.3527

                     46                     47                     48
                      A                      A                      A
 Frequencies --   3087.2909              3107.4795              3110.5095
 Red. masses --      1.0874                 1.0899                 1.0926
 Frc consts  --      6.1064                 6.2010                 6.2284
 IR Inten    --     29.9921                24.9476                20.1957

                     49                     50                     51
                      A                      A                      A
 Frequencies --   3179.2367              3209.4112              3782.8118
 Red. masses --      1.0858                 1.1029                 1.0655
 Frc consts  --      6.4661                 6.6935                 8.9831
 IR Inten    --      9.6679                17.5167                19.1903

 - Thermochemistry -
 -------------------
 Temperature   298.150 Kelvin.  Pressure   1.00000 Atm.
 Atom     1 has atomic number  8 and mass  15.99491

 Molecular mass:   126.06808 amu.
 Principal axes and moments of inertia in atomic units:
                           1         2         3
     Eigenvalues --   591.334721165.326631441.54557
           X            0.99982   0.01869   0.00126
           Y           -0.01867   0.99978  -0.00996
           Z           -0.00144   0.00994   0.99995
 This molecule is an asymmetric top.
 Rotational symmetry number  1.
 Warning -- assumption of classical behavior for rotation
           may cause significant error
 Rotational temperatures (Kelvin)      0.14647     0.07433     0.06008
 Rotational constants (GHZ):           3.05198     1.54870     1.25195
 Zero-point vibrational energy     425317.8 (Joules/Mol)
                                  101.65340 (Kcal/Mol)
 Warning -- explicit consideration of   9 degrees of freedom as
           vibrations may cause significant error
 Vibrational temperatures:    128.02   242.86   332.66   449.70   537.20
          (Kelvin)            600.35   646.72   709.25   884.36  1029.63
                             1093.07  1130.04  1164.56  1247.30  1262.95
                             1299.33  1352.17  1375.98  1412.38  1437.85
                             1470.66  1481.62  1531.49  1551.44  1590.78
                             1625.75  1691.44  1751.07  1770.50  1822.62
                             1855.27  1872.97  1902.71  1915.12  1931.79
                             1974.22  1989.92  2059.82  2137.57  2164.17
                             2429.84  4310.17  4339.61  4381.58  4396.68
                             4441.92  4470.96  4475.32  4574.21  4617.62
                             5442.62

 Zero-point correction=                           0.161995 (Hartree/Particle)
 Thermal correction to Energy=                    0.169401
 Thermal correction to Enthalpy=                  0.170346
 Thermal correction to Gibbs Free Energy=         0.130138
 Sum of electronic and zero-point Energies=           -423.041034
 Sum of electronic and thermal Energies=              -423.033627
 Sum of electronic and thermal Enthalpies=            -423.032683
 Sum of electronic and thermal Free Energies=         -423.072891

                     E (Thermal)             CV                S
                      KCal/Mol        Cal/Mol-Kelvin    Cal/Mol-Kelvin
 Total                  106.301             29.707             84.624
 Electronic               0.000              0.000              0.000
 Translational            0.889              2.981             40.409
 Rotational               0.889              2.981             28.387
 Vibrational            104.524             23.745             15.829
 Vibration     1          0.602              1.957              3.682
 Vibration     2          0.625              1.881              2.449
 Vibration     3          0.653              1.793              1.870
 Vibration     4          0.701              1.650              1.349
 Vibration     5          0.745              1.527              1.066
 Vibration     6          0.780              1.433              0.901
 Vibration     7          0.808              1.362              0.797
 Vibration     8          0.849              1.266              0.676
 Vibration     9          0.974              1.001              0.425

 Optimization completed.
    -- Stationary point found.
 Normal termination of Gaussian 09 at Tue Jan 28 09:00:42 2020.
