 Gaussian 09, Revision D.01,
 Gaussian 09:  ES64L-G09RevD.01 24-Apr-2013

 -----------------------------
 # b3lyp 6-31G(2df,p) opt Freq
 -----------------------------

 -----
 titel
 -----
 Symbolic Z-matrix:
 Charge =  0 Multiplicity = 1

 SCF Done:  E(RB3LYP) =  -423.214767884     A.U. after   14 cycles
 Optimization completed.
    -- Stationary point found.
 Normal termination of Gaussian 09 at Mon Jan 27 14:09:06 2020.

 ----------------------------------------------------------------------
 #N Geom=AllCheck Guess=TCheck SCRF=Check GenChk RB3LYP/6-31G(2df,p) Fr
 eq
 ----------------------------------------------------------------------

 Structure from the checkpoint file:  "/scratch/puck/g09_79a34763-60fb-4d71-a3e1-5ab2f627ba7a/Gau-31520.chk"
 -----
 titel
 -----
 Charge =  0 Multiplicity = 1

                         Standard orientation:
 ---------------------------------------------------------------------
 Center     Atomic      Atomic             Coordinates (Angstroms)
 Number     Number       Type             X           Y           Z
 ---------------------------------------------------------------------
      1          6           0       -2.759236    0.405363    0.776022
      2          6           0       -1.843012   -0.376902   -0.139995
      3          8           0       -1.808910   -1.584741   -0.166035
      4          6           0       -0.906222    0.461114   -1.019162
      5          6           0        0.423917    0.668657   -0.280144
      6          8           0        0.707812    1.744129    0.203248
      7          6           0        1.312001   -0.519839   -0.187276
      8          6           0        2.810258   -0.275205   -0.350111
      9          6           0        2.264548   -0.593607    0.996693
     10          1           0       -3.504025    0.944354    0.178445
     11          1           0       -3.265498   -0.267029    1.469256
     12          1           0       -2.187303    1.163239    1.323015
     13          1           0       -0.729857   -0.093646   -1.944353
     14          1           0       -1.328087    1.445047   -1.230308
     15          1           0        0.905871   -1.448656   -0.567707
     16          1           0        3.373625   -1.030538   -0.885492
     17          1           0        3.099866    0.751256   -0.543799
     18          1           0        2.442456   -1.576081    1.417816
     19          1           0        2.188206    0.219462    1.709260
 ---------------------------------------------------------------------

 SCF Done:  E(RB3LYP) =  -423.214767884     A.U. after    1 cycles

 The electronic state is 1-A.
 Alpha  occ. eigenvalues --  -19.13795 -19.13194 -10.28275 -10.27710 -10.20147
 Alpha  occ. eigenvalues --  -10.20113 -10.19981 -10.19812 -10.19450  -1.05002
 Alpha  occ. eigenvalues --   -1.04266  -0.86668  -0.78676  -0.73403  -0.65073
 Alpha  occ. eigenvalues --   -0.60897  -0.54990  -0.53196  -0.50655  -0.48478
 Alpha  occ. eigenvalues --   -0.46863  -0.45299  -0.44775  -0.42028  -0.40698
 Alpha  occ. eigenvalues --   -0.40392  -0.38934  -0.37794  -0.36452  -0.36144
 Alpha  occ. eigenvalues --   -0.31413  -0.29606  -0.26219  -0.24604
 Alpha virt. eigenvalues --   -0.03977   0.00176   0.09281   0.09800   0.11883
 Alpha virt. eigenvalues --    0.12919   0.14153   0.14690   0.15535   0.15561
 Alpha virt. eigenvalues --    0.15943   0.18884   0.19659   0.21682   0.22443

 Mulliken charges:
               1
     1  C   -0.474014
     2  C    0.375192
     3  O   -0.296560
     4  C   -0.388553
     5  C    0.368135
     6  O   -0.331287
     7  C   -0.093048
     8  C   -0.254579
     9  C   -0.250845
    10  H    0.146081
    11  H    0.143899
    12  H    0.157040
    13  H    0.136341
    14  H    0.125265
    15  H    0.114032
    16  H    0.122842
    17  H    0.137635
    18  H    0.123624
    19  H    0.138801
 Sum of Mulliken charges =   0.00000

 Dipole moment (field-independent basis, Debye):
    X=             -0.1340    Y=              0.0550    Z=             -0.6056  Tot=              0.6227
 Quadrupole moment (field-independent basis, Debye-Ang):
   XX=            -48.6349   YY=            -60.5354   ZZ=            -50.7681
   XY=             -7.8412   XZ=             -1.0038   YZ=             -1.3043

  Exact polarizability:  92.810  -3.022  76.285  -0.632   0.533  65.593
 Approx polarizability: 115.650   1.317 131.690   1.438   5.184  98.099

                      1                      2                      3
                      A                      A                      A
 Frequencies --     35.6068                40.3858                61.7226
 Red. masses --      3.6105                 4.1600                 3.4876
 Frc consts  --      0.0027                 0.0040                 0.0078
 IR Inten    --      7.0657                 4.1517                 2.7835

                      4                      5                      6
                      A                      A                      A
 Frequencies --    134.8400               161.9603               235.1166
 Red. masses --      3.5348                 1.1433                 3.7506
 Frc consts  --      0.0379                 0.0177                 0.1222
 IR Inten    --      1.8274                 0.1276                 4.5352

                      7                      8                      9
                      A                      A                      A
 Frequencies --    253.8881               328.9330               404.3392
 Red. masses --      2.8380                 4.1652                 2.1441
 Frc consts  --      0.1078                 0.2655                 0.2065
 IR Inten    --      0.5652                 2.4502                 2.7648

                     10                     11                     12
                      A                      A                      A
 Frequencies --    495.0880               543.7175               605.0553
 Red. masses --      3.9334                 2.8893                 3.2162
 Frc consts  --      0.5680                 0.5033                 0.6937
 IR Inten    --      7.2730                11.9899                12.5623

                     13                     14                     15
                      A                      A                      A
 Frequencies --    712.9722               752.6476               806.0024
 Red. masses --      3.3872                 1.9248                 1.2880
 Frc consts  --      1.0145                 0.6424                 0.4930
 IR Inten    --      3.5470                 1.6082                 1.7626

                     16                     17                     18
                      A                      A                      A
 Frequencies --    815.8458               831.5050               896.0783
 Red. masses --      2.4803                 1.9295                 1.9017
 Frc consts  --      0.9727                 0.7860                 0.8997
 IR Inten    --      1.3996                 3.6247                 3.6052

                     19                     20                     21
                      A                      A                      A
 Frequencies --    904.8822               919.4417               985.7200
 Red. masses --      2.1621                 3.4095                 1.9842
 Frc consts  --      1.0431                 1.6982                 1.1359
 IR Inten    --     21.5412                30.8622                40.8734

                     22                     23                     24
                      A                      A                      A
 Frequencies --   1047.2276              1060.7191              1094.1130
 Red. masses --      2.0076                 1.2667                 1.3489
 Frc consts  --      1.2972                 0.8397                 0.9514
 IR Inten    --      3.9945                17.0541                 3.4506

                     25                     26                     27
                      A                      A                      A
 Frequencies --   1103.0392              1115.6303              1132.6456
 Red. masses --      1.8134                 1.4374                 1.1117
 Frc consts  --      1.3000                 1.0541                 0.8403
 IR Inten    --     70.3150                 2.5068                 0.6509

                     28                     29                     30
                      A                      A                      A
 Frequencies --   1168.0044              1210.6578              1221.8182
 Red. masses --      2.1637                 1.3605                 2.1148
 Frc consts  --      1.7391                 1.1749                 1.8601
 IR Inten    --    198.3230                 0.9740                 4.3360

                     31                     32                     33
                      A                      A                      A
 Frequencies --   1232.3538              1268.9236              1383.2794
 Red. masses --      1.5345                 1.6399                 1.3130
 Frc consts  --      1.3730                 1.5557                 1.4803
 IR Inten    --     21.0642                55.0509                42.8570

                     34                     35                     36
                      A                      A                      A
 Frequencies --   1409.6549              1454.8334              1459.6494
 Red. masses --      1.8287                 1.0891                 1.0680
 Frc consts  --      2.1411                 1.3581                 1.3407
 IR Inten    --     79.5152                 2.9404                12.7817

                     37                     38                     39
                      A                      A                      A
 Frequencies --   1468.8941              1473.4130              1486.7931
 Red. masses --      1.0754                 1.0621                 1.3593
 Frc consts  --      1.3672                 1.3585                 1.7704
 IR Inten    --      1.4897                11.9624                11.5865

                     40                     41                     42
                      A                      A                      A
 Frequencies --   1778.7685              1814.0098              3034.9929
 Red. masses --     10.7273                10.3217                 1.0370
 Frc consts  --     19.9977                20.0115                 5.6277
 IR Inten    --    244.3757                47.4502                 1.1412

                     43                     44                     45
                      A                      A                      A
 Frequencies --   3068.6331              3095.7645              3140.5143
 Red. masses --      1.0566                 1.0976                 1.1072
 Frc consts  --      5.8618                 6.1977                 6.4337
 IR Inten    --      2.1859                 3.9426                 8.3868

                     46                     47                     48
                      A                      A                      A
 Frequencies --   3141.9060              3144.5890              3155.6193
 Red. masses --      1.0509                 1.0561                 1.1025
 Frc consts  --      6.1124                 6.1531                 6.4685
 IR Inten    --     12.6701                 8.0187                 8.6207

                     49                     50                     51
                      A                      A                      A
 Frequencies --   3195.2676              3229.6897              3244.6459
 Red. masses --      1.0906                 1.1191                 1.1167
 Frc consts  --      6.5601                 6.8776                 6.9266
 IR Inten    --      0.9648                 0.4135                 4.5852

 - Thermochemistry -
 -------------------
 Temperature   298.150 Kelvin.  Pressure   1.00000 Atm.
 Atom     1 has atomic number  6 and mass  12.00000

 Molecular mass:   126.06808 amu.
 Principal axes and moments of inertia in atomic units:
                           1         2         3
     Eigenvalues --   608.899561772.892272014.45372
           X            0.99922  -0.03860  -0.00784
           Y            0.03852   0.99920  -0.01035
           Z            0.00824   0.01004   0.99992
 This molecule is an asymmetric top.
 Rotational symmetry number  1.
 Warning -- assumption of classical behavior for rotation
           may cause significant error
 Rotational temperatures (Kelvin)      0.14225     0.04885     0.04300
 Rotational constants (GHZ):           2.96394     1.01796     0.89590
 Zero-point vibrational energy     411286.9 (Joules/Mol)
                                   98.29993 (Kcal/Mol)
 Warning -- explicit consideration of  12 degrees of freedom as
           vibrations may cause significant error
 Vibrational temperatures:     51.23    58.11    88.80   194.00   233.02
          (Kelvin)            338.28   365.29   473.26   581.75   712.32
                              782.29   870.54  1025.81  1082.89  1159.66
                             1173.82  1196.35  1289.26  1301.92  1322.87
                             1418.23  1506.73  1526.14  1574.18  1587.03
                             1605.14  1629.62  1680.50  1741.86  1757.92
                             1773.08  1825.70  1990.23  2028.18  2093.18
                             2100.11  2113.41  2119.91  2139.16  2559.25
                             2609.95  4366.67  4415.07  4454.11  4518.49
                             4520.50  4524.36  4540.23  4597.27  4646.80
                             4668.32

 Zero-point correction=                           0.156651 (Hartree/Particle)
 Thermal correction to Energy=                    0.166462
 Thermal correction to Enthalpy=                  0.167407
 Thermal correction to Gibbs Free Energy=         0.119964
 Sum of electronic and zero-point Energies=           -423.058117
 Sum of electronic and thermal Energies=              -423.048305
 Sum of electronic and thermal Enthalpies=            -423.047361
 Sum of electronic and thermal Free Energies=         -423.094804

                     E (Thermal)             CV                S
                      KCal/Mol        Cal/Mol-Kelvin    Cal/Mol-Kelvin
 Total                  104.457             34.406             99.851
 Electronic               0.000              0.000              0.000
 Translational            0.889              2.981             40.409
 Rotational               0.889              2.981             29.166
 Vibrational            102.679             28.445             30.277
 Vibration     1          0.594              1.982              5.490
 Vibration     2          0.594              1.981              5.240
 Vibration     3          0.597              1.973              4.401
 Vibration     4          0.613              1.919              2.876
 Vibration     5          0.622              1.889              2.527
 Vibration     6          0.655              1.787              1.840
 Vibration     7          0.665              1.756              1.703
 Vibration     8          0.712              1.618              1.265
 Vibration     9          0.770              1.461              0.947
 Vibration    10          0.851              1.261              0.671
 Vibration    11          0.899              1.153              0.557
 Vibration    12          0.964              1.021              0.441

 Optimization completed.
    -- Stationary point found.
 Normal termination of Gaussian 09 at Mon Jan 27 14:56:31 2020.
