 Gaussian 09, Revision D.01,
 Gaussian 09:  ES64L-G09RevD.01 24-Apr-2013

 -----------------------------
 # b3lyp 6-31G(2df,p) opt Freq
 -----------------------------

 -----
 titel
 -----
 Symbolic Z-matrix:
 Charge =  0 Multiplicity = 1

 SCF Done:  E(RB3LYP) =  -423.134061643     A.U. after   14 cycles
 Optimization completed.
    -- Stationary point found.
 Normal termination of Gaussian 09 at Tue Jan 28 09:15:27 2020.

 ----------------------------------------------------------------------
 #N Geom=AllCheck Guess=TCheck SCRF=Check GenChk RB3LYP/6-31G(2df,p) Fr
 eq
 ----------------------------------------------------------------------

 Structure from the checkpoint file:  "/scratch/puck/g09_4f5253e9-d1e1-4684-8b43-49363e54a6fc/Gau-11108.chk"
 -----
 titel
 -----
 Charge =  0 Multiplicity = 1

                         Standard orientation:
 ---------------------------------------------------------------------
 Center     Atomic      Atomic             Coordinates (Angstroms)
 Number     Number       Type             X           Y           Z
 ---------------------------------------------------------------------
      1          8           0        2.411416   -1.228643   -0.320076
      2          6           0        1.678513   -0.641271    0.744817
      3          6           0        0.580572    0.268037    0.258177
      4          6           0       -0.477997    1.044293    1.098208
      5          6           0       -0.796528    1.381203   -0.390352
      6          6           0        0.734730    1.568124   -0.595092
      7          6           0       -0.587462   -0.117492   -0.744070
      8          6           0       -1.586514   -1.166753   -0.355122
      9          8           0       -2.606840   -0.977381    0.262917
     10          1           0        2.833334   -0.516006   -0.811035
     11          1           0        1.254308   -1.476291    1.313341
     12          1           0        2.335423   -0.082932    1.431964
     13          1           0       -1.219321    0.461021    1.641422
     14          1           0       -0.087097    1.868418    1.701282
     15          1           0       -1.593426    2.023076   -0.763508
     16          1           0        1.114837    1.453505   -1.614958
     17          1           0        1.189858    2.423239   -0.087413
     18          1           0       -0.220256   -0.330065   -1.755066
     19          1           0       -1.316142   -2.192620   -0.698158
 ---------------------------------------------------------------------

 SCF Done:  E(RB3LYP) =  -423.134061643     A.U. after    1 cycles

 The electronic state is 1-A.
 Alpha  occ. eigenvalues --  -19.14397 -19.13838 -10.26818 -10.23565 -10.22202
 Alpha  occ. eigenvalues --  -10.21189 -10.20308 -10.19903 -10.19159  -1.04400
 Alpha  occ. eigenvalues --   -1.02475  -0.92301  -0.72057  -0.71645  -0.67553
 Alpha  occ. eigenvalues --   -0.60827  -0.59465  -0.52566  -0.52021  -0.48565
 Alpha  occ. eigenvalues --   -0.47865  -0.46058  -0.44527  -0.43071  -0.38867
 Alpha  occ. eigenvalues --   -0.37654  -0.37004  -0.34052  -0.33327  -0.32986
 Alpha  occ. eigenvalues --   -0.32174  -0.31325  -0.27070  -0.24628
 Alpha virt. eigenvalues --   -0.02806   0.06197   0.10588   0.11381   0.12189
 Alpha virt. eigenvalues --    0.13133   0.13684   0.14643   0.15560   0.15827
 Alpha virt. eigenvalues --    0.16042   0.17246   0.17693   0.19107   0.21022

 Mulliken charges:
               1
     1  O   -0.411307
     2  C   -0.208337
     3  C    0.305086
     4  C   -0.279678
     5  C   -0.053304
     6  C   -0.278508
     7  C   -0.083550
     8  C    0.109095
     9  O   -0.250575
    10  H    0.285816
    11  H    0.118811
    12  H    0.094165
    13  H    0.127494
    14  H    0.091781
    15  H    0.085448
    16  H    0.089674
    17  H    0.095078
    18  H    0.081437
    19  H    0.081374
 Sum of Mulliken charges =   0.00000

 Dipole moment (field-independent basis, Debye):
    X=              2.2486    Y=              1.7085    Z=             -0.7570  Tot=              2.9237
 Quadrupole moment (field-independent basis, Debye-Ang):
   XX=            -60.6728   YY=            -54.6978   ZZ=            -50.9435
   XY=              2.0641   XZ=              1.6298   YZ=              0.0769

  Exact polarizability:  81.716   3.463  77.936  -3.186   1.968  69.997
 Approx polarizability: 121.313   3.350 111.561  -9.803   3.710 109.416

                      1                      2                      3
                      A                      A                      A
 Frequencies --     69.7830                89.6335               167.0145
 Red. masses --      5.6525                 3.3270                 3.4653
 Frc consts  --      0.0162                 0.0157                 0.0570
 IR Inten    --      2.7736                 3.5363                 4.4534

                      4                      5                      6
                      A                      A                      A
 Frequencies --    190.8308               234.0228               295.4688
 Red. masses --      2.7741                 3.0025                 1.3205
 Frc consts  --      0.0595                 0.0969                 0.0679
 IR Inten    --      7.5338                 7.1917                91.9280

                      7                      8                      9
                      A                      A                      A
 Frequencies --    336.6562               409.4110               463.4755
 Red. masses --      2.0467                 3.2861                 3.8433
 Frc consts  --      0.1367                 0.3245                 0.4864
 IR Inten    --     23.0487                12.2113                 0.3277

                     10                     11                     12
                      A                      A                      A
 Frequencies --    551.3066               646.1303               731.0848
 Red. masses --      1.9330                 3.5417                 3.1520
 Frc consts  --      0.3462                 0.8712                 0.9926
 IR Inten    --      0.3404                11.5234                15.7677

                     13                     14                     15
                      A                      A                      A
 Frequencies --    750.1066               811.7850               847.3066
 Red. masses --      3.0698                 2.8023                 3.1154
 Frc consts  --      1.0177                 1.0880                 1.3178
 IR Inten    --      5.8614                 1.7663                 3.1006

                     16                     17                     18
                      A                      A                      A
 Frequencies --    901.1116               924.5100               968.9697
 Red. masses --      2.5472                 2.1468                 1.8695
 Frc consts  --      1.2186                 1.0811                 1.0342
 IR Inten    --      2.1788                 4.9288                 3.4315

                     19                     20                     21
                      A                      A                      A
 Frequencies --    987.8156              1002.7604              1029.4231
 Red. masses --      1.2388                 1.3717                 1.5896
 Frc consts  --      0.7122                 0.8126                 0.9925
 IR Inten    --      3.5691                14.8613                12.9329

                     22                     23                     24
                      A                      A                      A
 Frequencies --   1052.4786              1067.4856              1099.7127
 Red. masses --      1.9895                 3.3307                 1.7363
 Frc consts  --      1.2984                 2.2362                 1.2372
 IR Inten    --     28.1665                56.2183                 2.7426

                     25                     26                     27
                      A                      A                      A
 Frequencies --   1107.1865              1137.7739              1144.2041
 Red. masses --      1.4264                 1.5174                 1.4526
 Frc consts  --      1.0302                 1.1573                 1.1205
 IR Inten    --      5.2686                 2.1311                 8.0469

                     28                     29                     30
                      A                      A                      A
 Frequencies --   1156.8708              1206.2205              1214.2779
 Red. masses --      1.7105                 1.4478                 1.6387
 Frc consts  --      1.3488                 1.2411                 1.4236
 IR Inten    --      3.4776                 1.7642                12.2580

                     31                     32                     33
                      A                      A                      A
 Frequencies --   1241.3870              1249.1325              1304.5509
 Red. masses --      1.6922                 1.5404                 3.1077
 Frc consts  --      1.5365                 1.4161                 3.1161
 IR Inten    --     12.5206                20.3340                11.5010

                     34                     35                     36
                      A                      A                      A
 Frequencies --   1375.2047              1391.5276              1419.6059
 Red. masses --      1.3427                 1.5015                 1.3466
 Frc consts  --      1.4961                 1.7130                 1.5989
 IR Inten    --      6.2966                14.0478                37.4162

                     37                     38                     39
                      A                      A                      A
 Frequencies --   1427.8714              1494.6592              1498.9428
 Red. masses --      1.2072                 1.0826                 1.0976
 Frc consts  --      1.4501                 1.4250                 1.4530
 IR Inten    --     14.1751                 1.0171                 1.4337

                     40                     41                     42
                      A                      A                      A
 Frequencies --   1541.3334              1813.0385              2860.5256
 Red. masses --      1.1708                 9.8849                 1.0818
 Frc consts  --      1.6388                19.1441                 5.2154
 IR Inten    --      1.3604               143.4853               127.0487

                     43                     44                     45
                      A                      A                      A
 Frequencies --   2972.3089              3039.8926              3044.9416
 Red. masses --      1.0702                 1.0635                 1.0734
 Frc consts  --      5.5704                 5.7902                 5.8634
 IR Inten    --     51.1345                29.4955                48.5441

                     46                     47                     48
                      A                      A                      A
 Frequencies --   3066.5192              3067.3524              3108.6813
 Red. masses --      1.0616                 1.0918                 1.1105
 Frc consts  --      5.8816                 6.0521                 6.3227
 IR Inten    --     33.2743                19.4183                39.9379

                     49                     50                     51
                      A                      A                      A
 Frequencies --   3124.7603              3159.3006              3814.6796
 Red. masses --      1.0924                 1.1039                 1.0661
 Frc consts  --      6.2845                 6.4919                 9.1401
 IR Inten    --     45.6022                12.5634                16.1561

 - Thermochemistry -
 -------------------
 Temperature   298.150 Kelvin.  Pressure   1.00000 Atm.
 Atom     1 has atomic number  8 and mass  15.99491

 Molecular mass:   126.06808 amu.
 Principal axes and moments of inertia in atomic units:
                           1         2         3
     Eigenvalues --   736.574401321.765391659.65628
           X            0.99999   0.00074   0.00448
           Y           -0.00076   0.99999   0.00329
           Z           -0.00448  -0.00330   0.99998
 This molecule is an asymmetric top.
 Rotational symmetry number  1.
 Warning -- assumption of classical behavior for rotation
           may cause significant error
 Rotational temperatures (Kelvin)      0.11759     0.06553     0.05219
 Rotational constants (GHZ):           2.45018     1.36540     1.08742
 Zero-point vibrational energy     416366.4 (Joules/Mol)
                                   99.51397 (Kcal/Mol)
 Warning -- explicit consideration of  10 degrees of freedom as
           vibrations may cause significant error
 Vibrational temperatures:    100.40   128.96   240.30   274.56   336.71
          (Kelvin)            425.11   484.37   589.05   666.84   793.21
                              929.64  1051.87  1079.23  1167.98  1219.08
                             1296.50  1330.16  1394.13  1421.24  1442.75
                             1481.11  1514.28  1535.87  1582.24  1592.99
                             1637.00  1646.25  1664.48  1735.48  1747.07
                             1786.08  1797.22  1876.96  1978.61  2002.10
                             2042.49  2054.39  2150.48  2156.64  2217.63
                             2608.55  4115.65  4276.48  4373.72  4380.99
                             4412.03  4413.23  4472.69  4495.83  4545.52
                             5488.47

 Zero-point correction=                           0.158586 (Hartree/Particle)
 Thermal correction to Energy=                    0.167220
 Thermal correction to Enthalpy=                  0.168164
 Thermal correction to Gibbs Free Energy=         0.124850
 Sum of electronic and zero-point Energies=           -422.975476
 Sum of electronic and thermal Energies=              -422.966842
 Sum of electronic and thermal Enthalpies=            -422.965898
 Sum of electronic and thermal Free Energies=         -423.009212

                     E (Thermal)             CV                S
                      KCal/Mol        Cal/Mol-Kelvin    Cal/Mol-Kelvin
 Total                  104.932             32.226             91.162
 Electronic               0.000              0.000              0.000
 Translational            0.889              2.981             40.409
 Rotational               0.889              2.981             28.870
 Vibrational            103.155             26.264             21.883
 Vibration     1          0.598              1.969              4.159
 Vibration     2          0.602              1.957              3.668
 Vibration     3          0.624              1.883              2.469
 Vibration     4          0.634              1.853              2.220
 Vibration     5          0.654              1.789              1.848
 Vibration     6          0.690              1.682              1.442
 Vibration     7          0.717              1.602              1.228
 Vibration     8          0.774              1.450              0.929
 Vibration     9          0.821              1.331              0.756
 Vibration    10          0.907              1.137              0.541

 Optimization completed.
    -- Stationary point found.
 Normal termination of Gaussian 09 at Tue Jan 28 10:01:57 2020.
