 Gaussian 09, Revision D.01,
 Gaussian 09:  ES64L-G09RevD.01 24-Apr-2013

 -----------------------------
 # b3lyp 6-31G(2df,p) opt Freq
 -----------------------------

 -----
 titel
 -----
 Symbolic Z-matrix:
 Charge =  0 Multiplicity = 1

 SCF Done:  E(RB3LYP) =  -423.116494982     A.U. after   13 cycles
 Optimization completed.
    -- Stationary point found.
 Normal termination of Gaussian 09 at Tue Jan 28 12:48:26 2020.

 ----------------------------------------------------------------------
 #N Geom=AllCheck Guess=TCheck SCRF=Check GenChk RB3LYP/6-31G(2df,p) Fr
 eq
 ----------------------------------------------------------------------

 Structure from the checkpoint file:  "/scratch/puck/g09_063360bf-7284-4432-93c2-90335202eda6/Gau-10896.chk"
 -----
 titel
 -----
 Charge =  0 Multiplicity = 1

                         Standard orientation:
 ---------------------------------------------------------------------
 Center     Atomic      Atomic             Coordinates (Angstroms)
 Number     Number       Type             X           Y           Z
 ---------------------------------------------------------------------
      1          6           0        2.953596   -0.402485   -0.324445
      2          8           0        1.669367   -0.797990    0.101587
      3          6           0        0.887566    0.264086    0.579213
      4          6           0        0.248262    1.275971   -0.380271
      5          6           0       -1.041779    0.654290   -0.910471
      6          6           0       -1.009415    1.297078    0.462708
      7          6           0       -0.543936   -0.123540    0.990089
      8          6           0       -1.163570   -0.743669   -0.298666
      9          8           0       -2.493173   -1.187554   -0.148226
     10          1           0        3.521608    0.077075    0.488526
     11          1           0        3.484810   -1.303001   -0.641201
     12          1           0        2.908025    0.297582   -1.172060
     13          1           0        1.412066    0.798150    1.387259
     14          1           0        0.709815    2.117955   -0.880352
     15          1           0       -1.511132    1.023517   -1.814132
     16          1           0       -1.537716    2.127299    0.906009
     17          1           0       -0.755763   -0.570478    1.958984
     18          1           0       -0.615566   -1.568368   -0.758237
     19          1           0       -3.010034   -0.445766    0.189383
 ---------------------------------------------------------------------

 SCF Done:  E(RB3LYP) =  -423.116494982     A.U. after    1 cycles

 The electronic state is 1-A.
 Alpha  occ. eigenvalues --  -19.13882 -19.13018 -10.23542 -10.22664 -10.22414
 Alpha  occ. eigenvalues --  -10.19943 -10.19555 -10.19330 -10.19048  -1.03568
 Alpha  occ. eigenvalues --   -1.01594  -0.92371  -0.72960  -0.69896  -0.66927
 Alpha  occ. eigenvalues --   -0.62122  -0.56010  -0.54360  -0.52256  -0.48954
 Alpha  occ. eigenvalues --   -0.47835  -0.46302  -0.44605  -0.42441  -0.39882
 Alpha  occ. eigenvalues --   -0.37516  -0.35909  -0.35264  -0.32426  -0.30917
 Alpha  occ. eigenvalues --   -0.29540  -0.26953  -0.24988  -0.24202
 Alpha virt. eigenvalues --    0.07952   0.09437   0.10331   0.11572   0.12425
 Alpha virt. eigenvalues --    0.14072   0.14605   0.15248   0.15880   0.16543
 Alpha virt. eigenvalues --    0.17911   0.18669   0.18935   0.20818   0.21474

 Mulliken charges:
               1
     1  C   -0.239571
     2  O   -0.249023
     3  C    0.165430
     4  C   -0.119373
     5  C   -0.114414
     6  C   -0.121492
     7  C   -0.169055
     8  C    0.166414
     9  O   -0.447614
    10  H    0.103176
    11  H    0.128472
    12  H    0.107694
    13  H    0.065194
    14  H    0.088047
    15  H    0.089735
    16  H    0.095005
    17  H    0.075964
    18  H    0.099680
    19  H    0.275730
 Sum of Mulliken charges =   0.00000

 Dipole moment (field-independent basis, Debye):
    X=              0.8552    Y=              2.5893    Z=              0.2664  Tot=              2.7399
 Quadrupole moment (field-independent basis, Debye-Ang):
   XX=            -49.8229   YY=            -55.1988   ZZ=            -51.9279
   XY=             -3.8267   XZ=             -2.1746   YZ=             -0.3512

  Exact polarizability:  87.593  -1.075  70.298  -1.024   0.221  67.219
 Approx polarizability: 115.868   0.076 107.208  -2.603   1.829 104.581

                      1                      2                      3
                      A                      A                      A
 Frequencies --     77.3026               142.3292               177.4628
 Red. masses --      2.8054                 4.0586                 1.2051
 Frc consts  --      0.0099                 0.0484                 0.0224
 IR Inten    --      2.7816                 0.7771                 0.4693

                      4                      5                      6
                      A                      A                      A
 Frequencies --    247.5656               278.7092               314.7963
 Red. masses --      2.9594                 3.0161                 1.9639
 Frc consts  --      0.1069                 0.1380                 0.1147
 IR Inten    --      4.7376                 1.2837                15.9806

                      7                      8                      9
                      A                      A                      A
 Frequencies --    380.9983               418.8440               547.1220
 Red. masses --      1.6963                 3.5898                 5.6859
 Frc consts  --      0.1451                 0.3710                 1.0028
 IR Inten    --     61.3611                 4.1613                 0.7364

                     10                     11                     12
                      A                      A                      A
 Frequencies --    602.0393               734.2861               784.6822
 Red. masses --      3.5696                 3.8837                 1.8145
 Frc consts  --      0.7623                 1.2337                 0.6583
 IR Inten    --      2.5826                 0.3192                 2.0162

                     13                     14                     15
                      A                      A                      A
 Frequencies --    799.8360               821.8278               839.1738
 Red. masses --      1.9656                 2.0689                 1.8410
 Frc consts  --      0.7409                 0.8233                 0.7638
 IR Inten    --      8.2567                16.1328                14.3593

                     16                     17                     18
                      A                      A                      A
 Frequencies --    910.2589               918.2684               967.5379
 Red. masses --      2.1903                 2.2480                 2.5308
 Frc consts  --      1.0693                 1.1168                 1.3959
 IR Inten    --      6.6116                 5.8097                 4.9837

                     19                     20                     21
                      A                      A                      A
 Frequencies --   1001.3570              1003.9427              1019.8943
 Red. masses --      2.7340                 1.7153                 1.2807
 Frc consts  --      1.6152                 1.0186                 0.7849
 IR Inten    --      9.2509                11.3973                12.2490

                     22                     23                     24
                      A                      A                      A
 Frequencies --   1033.8963              1046.2559              1058.2194
 Red. masses --      1.7154                 2.0118                 3.5094
 Frc consts  --      1.0803                 1.2975                 2.3155
 IR Inten    --      0.5916                21.9452                16.2121

                     25                     26                     27
                      A                      A                      A
 Frequencies --   1116.0621              1147.5840              1161.0613
 Red. masses --      3.4504                 2.2567                 1.7012
 Frc consts  --      2.5322                 1.7510                 1.3512
 IR Inten    --    183.6551                35.5668                10.7629

                     28                     29                     30
                      A                      A                      A
 Frequencies --   1169.1776              1183.1217              1190.0327
 Red. masses --      2.1546                 1.3002                 1.8955
 Frc consts  --      1.7353                 1.0723                 1.5816
 IR Inten    --     62.7939                 3.6342                56.6459

                     31                     32                     33
                      A                      A                      A
 Frequencies --   1233.6487              1249.7403              1275.3119
 Red. masses --      1.7358                 1.4215                 1.5847
 Frc consts  --      1.5565                 1.3081                 1.5185
 IR Inten    --     53.3382                 5.2683                11.4480

                     34                     35                     36
                      A                      A                      A
 Frequencies --   1287.8520              1319.9060              1358.6535
 Red. masses --      1.6620                 1.6631                 2.7846
 Frc consts  --      1.6241                 1.7071                 3.0285
 IR Inten    --     11.4675                 5.4352                 4.5804

                     37                     38                     39
                      A                      A                      A
 Frequencies --   1389.3686              1432.9100              1483.2003
 Red. masses --      1.2797                 1.3011                 1.1480
 Frc consts  --      1.4554                 1.5740                 1.4879
 IR Inten    --     58.2356                76.5428                 2.2142

                     40                     41                     42
                      A                      A                      A
 Frequencies --   1488.3122              1508.2730              2972.3957
 Red. masses --      1.0623                 1.0604                 1.0459
 Frc consts  --      1.3864                 1.4212                 5.4446
 IR Inten    --      3.3842                 5.9069                38.6664

                     43                     44                     45
                      A                      A                      A
 Frequencies --   2983.0008              3022.8876              3103.5965
 Red. masses --      1.0751                 1.1016                 1.0861
 Frc consts  --      5.6366                 5.9307                 6.1637
 IR Inten    --     82.8596                50.5093                29.2647

                     46                     47                     48
                      A                      A                      A
 Frequencies --   3116.3438              3144.6750              3189.1256
 Red. masses --      1.0962                 1.0917                 1.0914
 Frc consts  --      6.2726                 6.3605                 6.5403
 IR Inten    --     29.2498                24.1829                 8.5597

                     49                     50                     51
                      A                      A                      A
 Frequencies --   3197.2213              3233.5692              3778.3462
 Red. masses --      1.0922                 1.0993                 1.0650
 Frc consts  --      6.5783                 6.7720                 8.9581
 IR Inten    --     18.6667                 6.9296                 7.6657

 - Thermochemistry -
 -------------------
 Temperature   298.150 Kelvin.  Pressure   1.00000 Atm.
 Atom     1 has atomic number  6 and mass  12.00000

 Molecular mass:   126.06808 amu.
 Principal axes and moments of inertia in atomic units:
                           1         2         3
     Eigenvalues --   531.986461430.623201632.27511
           X            0.99990  -0.01088  -0.00910
           Y            0.01086   0.99994  -0.00275
           Z            0.00913   0.00265   0.99995
 This molecule is an asymmetric top.
 Rotational symmetry number  1.
 Warning -- assumption of classical behavior for rotation
           may cause significant error
 Rotational temperatures (Kelvin)      0.16281     0.06054     0.05306
 Rotational constants (GHZ):           3.39246     1.26151     1.10566
 Zero-point vibrational energy     417867.5 (Joules/Mol)
                                   99.87272 (Kcal/Mol)
 Warning -- explicit consideration of  10 degrees of freedom as
           vibrations may cause significant error
 Vibrational temperatures:    111.22   204.78   255.33   356.19   401.00
          (Kelvin)            452.92   548.17   602.62   787.19   866.20
                             1056.47  1128.98  1150.78  1182.43  1207.38
                             1309.66  1321.18  1392.07  1440.73  1444.45
                             1467.40  1487.54  1505.33  1522.54  1605.76
                             1651.12  1670.51  1682.18  1702.25  1712.19
                             1774.94  1798.10  1834.89  1852.93  1899.05
                             1954.80  1998.99  2061.64  2133.99  2141.35
                             2170.07  4276.61  4291.87  4349.26  4465.38
                             4483.72  4524.48  4588.43  4600.08  4652.38
                             5436.19

 Zero-point correction=                           0.159157 (Hartree/Particle)
 Thermal correction to Energy=                    0.167296
 Thermal correction to Enthalpy=                  0.168240
 Thermal correction to Gibbs Free Energy=         0.126365
 Sum of electronic and zero-point Energies=           -422.957338
 Sum of electronic and thermal Energies=              -422.949199
 Sum of electronic and thermal Enthalpies=            -422.948255
 Sum of electronic and thermal Free Energies=         -422.990130

                     E (Thermal)             CV                S
                      KCal/Mol        Cal/Mol-Kelvin    Cal/Mol-Kelvin
 Total                  104.980             31.473             88.134
 Electronic               0.000              0.000              0.000
 Translational            0.889              2.981             40.409
 Rotational               0.889              2.981             28.609
 Vibrational            103.202             25.512             19.116
 Vibration     1          0.599              1.964              3.958
 Vibration     2          0.616              1.911              2.772
 Vibration     3          0.628              1.870              2.355
 Vibration     4          0.661              1.767              1.748
 Vibration     5          0.679              1.713              1.542
 Vibration     6          0.702              1.645              1.337
 Vibration     7          0.751              1.511              1.035
 Vibration     8          0.782              1.429              0.896
 Vibration     9          0.902              1.146              0.550
 Vibration    10          0.960              1.027              0.446

 Optimization completed.
    -- Stationary point found.
 Normal termination of Gaussian 09 at Tue Jan 28 14:45:50 2020.
