 Gaussian 09, Revision D.01,
 Gaussian 09:  ES64L-G09RevD.01 24-Apr-2013

 -----------------------------
 # b3lyp 6-31G(2df,p) opt Freq
 -----------------------------

 -----
 titel
 -----
 Symbolic Z-matrix:
 Charge =  0 Multiplicity = 1

 SCF Done:  E(RB3LYP) =  -423.204606818     A.U. after   14 cycles
 Optimization completed.
    -- Stationary point found.
 Normal termination of Gaussian 09 at Mon Jan 27 12:54:08 2020.

 ----------------------------------------------------------------------
 #N Geom=AllCheck Guess=TCheck SCRF=Check GenChk RB3LYP/6-31G(2df,p) Fr
 eq
 ----------------------------------------------------------------------

 Structure from the checkpoint file:  "/scratch/puck/g09_c78782f8-37d7-42bf-a76a-89fbd3b01030/Gau-167032.chk"
 -----
 titel
 -----
 Charge =  0 Multiplicity = 1

                         Standard orientation:
 ---------------------------------------------------------------------
 Center     Atomic      Atomic             Coordinates (Angstroms)
 Number     Number       Type             X           Y           Z
 ---------------------------------------------------------------------
      1          8           0        2.019571   -0.018670   -1.297535
      2          6           0        1.306012   -0.064627   -0.342324
      3          6           0        0.566275   -1.161329    0.437247
      4          6           0       -0.760445   -1.600236   -0.198773
      5          6           0       -1.833474   -0.493745   -0.188657
      6          6           0       -1.386217    0.873439   -0.744385
      7          6           0       -0.470010    1.693309    0.188348
      8          6           0        0.755061    0.928130    0.691092
      9          8           0        0.377806   -0.209300    1.516988
     10          1           0        1.180519   -2.015694    0.742934
     11          1           0       -0.546751   -1.926014   -1.225365
     12          1           0       -1.146207   -2.475993    0.334230
     13          1           0       -2.687978   -0.851739   -0.773361
     14          1           0       -2.189895   -0.360803    0.838253
     15          1           0       -0.888842    0.730609   -1.713049
     16          1           0       -2.277287    1.475821   -0.952096
     17          1           0       -0.128504    2.596592   -0.331005
     18          1           0       -1.032643    2.022234    1.070607
     19          1           0        1.475357    1.579099    1.197942
 ---------------------------------------------------------------------

 SCF Done:  E(RB3LYP) =  -423.204606818     A.U. after    1 cycles

 The electronic state is 1-A.
 Alpha  occ. eigenvalues --  -19.15055 -19.14491 -10.27531 -10.24151 -10.24119
 Alpha  occ. eigenvalues --  -10.19492 -10.19385 -10.19020 -10.18785  -1.06752
 Alpha  occ. eigenvalues --   -1.04100  -0.81050  -0.78035  -0.71802  -0.66322
 Alpha  occ. eigenvalues --   -0.65016  -0.56374  -0.53053  -0.49198  -0.49081
 Alpha  occ. eigenvalues --   -0.46587  -0.46126  -0.42822  -0.41687  -0.41501
 Alpha  occ. eigenvalues --   -0.39356  -0.37609  -0.37147  -0.34042  -0.33711
 Alpha  occ. eigenvalues --   -0.32914  -0.32721  -0.26240  -0.24877
 Alpha virt. eigenvalues --   -0.02628   0.07372   0.09401   0.11278   0.12600
 Alpha virt. eigenvalues --    0.12954   0.14906   0.15325   0.15500   0.16502
 Alpha virt. eigenvalues --    0.16600   0.18283   0.20056   0.21608   0.22323

 Mulliken charges:
               1
     1  O   -0.295157
     2  C    0.373216
     3  C   -0.010365
     4  C   -0.230435
     5  C   -0.183239
     6  C   -0.219716
     7  C   -0.204368
     8  C   -0.015743
     9  O   -0.298815
    10  H    0.103916
    11  H    0.116539
    12  H    0.110442
    13  H    0.096619
    14  H    0.113433
    15  H    0.114092
    16  H    0.100600
    17  H    0.110706
    18  H    0.115909
    19  H    0.102365
 Sum of Mulliken charges =   0.00000

 Dipole moment (field-independent basis, Debye):
    X=             -1.7291    Y=              0.1599    Z=              0.3227  Tot=              1.7662
 Quadrupole moment (field-independent basis, Debye-Ang):
   XX=            -55.5721   YY=            -48.6955   ZZ=            -58.4790
   XY=              0.0210   XZ=              4.3164   YZ=              0.7405

  Exact polarizability:  75.884   1.033  80.113  -1.128   1.002  66.880
 Approx polarizability: 106.655   1.694 110.948  -9.097   0.735 111.427

                      1                      2                      3
                      A                      A                      A
 Frequencies --    123.0762               194.3133               211.9628
 Red. masses --      5.8615                 2.5817                 2.5701
 Frc consts  --      0.0523                 0.0574                 0.0680
 IR Inten    --      3.7295                 2.5118                 1.6512

                      4                      5                      6
                      A                      A                      A
 Frequencies --    313.0981               328.5615               364.3068
 Red. masses --      1.8712                 4.3185                 3.5197
 Frc consts  --      0.1081                 0.2747                 0.2752
 IR Inten    --      0.6984                 2.8861                 0.2483

                      7                      8                      9
                      A                      A                      A
 Frequencies --    458.9284               488.6147               546.7237
 Red. masses --      3.1216                 3.9335                 1.9312
 Frc consts  --      0.3874                 0.5533                 0.3401
 IR Inten    --      8.4005                 6.9733                 0.6541

                     10                     11                     12
                      A                      A                      A
 Frequencies --    664.9352               719.1595               785.1010
 Red. masses --      3.5289                 4.9594                 1.8147
 Frc consts  --      0.9193                 1.5112                 0.6590
 IR Inten    --      0.3240                 1.1148                 2.6634

                     13                     14                     15
                      A                      A                      A
 Frequencies --    794.6904               839.6498               869.1807
 Red. masses --      2.0943                 3.1881                 3.6845
 Frc consts  --      0.7793                 1.3243                 1.6400
 IR Inten    --      1.7201                 0.9720                10.4156

                     16                     17                     18
                      A                      A                      A
 Frequencies --    927.1570               938.4755               953.3489
 Red. masses --      2.2950                 2.5116                 2.8954
 Frc consts  --      1.1623                 1.3033                 1.5505
 IR Inten    --      2.8960                17.4036                64.1034

                     19                     20                     21
                      A                      A                      A
 Frequencies --    961.3133              1028.1773              1058.1802
 Red. masses --      1.8525                 2.3315                 2.3675
 Frc consts  --      1.0086                 1.4522                 1.5619
 IR Inten    --      2.4213                29.3771                11.6354

                     22                     23                     24
                      A                      A                      A
 Frequencies --   1064.5728              1100.1858              1116.7576
 Red. masses --      2.3943                 1.9045                 2.4354
 Frc consts  --      1.5987                 1.3582                 1.7895
 IR Inten    --      5.5571                22.7605                 4.5014

                     25                     26                     27
                      A                      A                      A
 Frequencies --   1146.6808              1198.5868              1208.0077
 Red. masses --      1.1517                 1.5576                 1.6523
 Frc consts  --      0.8922                 1.3184                 1.4206
 IR Inten    --      0.6630                 2.7585                 1.7491

                     28                     29                     30
                      A                      A                      A
 Frequencies --   1251.7715              1283.5275              1292.1681
 Red. masses --      1.2819                 1.4319                 1.3700
 Frc consts  --      1.1835                 1.3899                 1.3477
 IR Inten    --      0.2631                 1.0997                 3.9195

                     31                     32                     33
                      A                      A                      A
 Frequencies --   1323.9777              1335.0448              1364.5529
 Red. masses --      1.3768                 1.3423                 1.3797
 Frc consts  --      1.4219                 1.4096                 1.5137
 IR Inten    --      0.7664                 4.2464                 0.4004

                     34                     35                     36
                      A                      A                      A
 Frequencies --   1382.7420              1386.6692              1391.4538
 Red. masses --      1.4115                 1.3922                 1.4055
 Frc consts  --      1.5901                 1.5773                 1.6033
 IR Inten    --      2.7909                 1.3016                 1.0291

                     37                     38                     39
                      A                      A                      A
 Frequencies --   1464.6771              1477.7864              1486.6500
 Red. masses --      1.0861                 1.0793                 1.0910
 Frc consts  --      1.3727                 1.3887                 1.4207
 IR Inten    --      2.2603                 4.4282                 3.8465

                     40                     41                     42
                      A                      A                      A
 Frequencies --   1494.9101              1917.7124              3022.0473
 Red. masses --      1.0869                12.5858                 1.0647
 Frc consts  --      1.4311                27.2708                 5.7292
 IR Inten    --      4.9550               237.2499                15.6324

                     43                     44                     45
                      A                      A                      A
 Frequencies --   3025.7409              3028.2951              3039.9516
 Red. masses --      1.0620                 1.0613                 1.0634
 Frc consts  --      5.7282                 5.7346                 5.7899
 IR Inten    --     13.4787                11.2958                20.0935

                     46                     47                     48
                      A                      A                      A
 Frequencies --   3051.1849              3059.9323              3066.4890
 Red. masses --      1.0858                 1.0880                 1.0956
 Frc consts  --      5.9555                 6.0023                 6.0699
 IR Inten    --     33.1985                46.9362                40.7427

                     49                     50                     51
                      A                      A                      A
 Frequencies --   3071.1431              3076.1118              3086.5371
 Red. masses --      1.0966                 1.1036                 1.1026
 Frc consts  --      6.0942                 6.1526                 6.1889
 IR Inten    --     15.5500                21.0590                40.3741

 - Thermochemistry -
 -------------------
 Temperature   298.150 Kelvin.  Pressure   1.00000 Atm.
 Atom     1 has atomic number  8 and mass  15.99491

 Molecular mass:   126.06808 amu.
 Principal axes and moments of inertia in atomic units:
                           1         2         3
     Eigenvalues --   808.557721024.145601183.66072
           X            0.99845   0.00517   0.05536
           Y           -0.00634   0.99976   0.02106
           Z           -0.05524  -0.02138   0.99824
 This molecule is an asymmetric top.
 Rotational symmetry number  1.
 Warning -- assumption of classical behavior for rotation
           may cause significant error
 Rotational temperatures (Kelvin)      0.10712     0.08457     0.07317
 Rotational constants (GHZ):           2.23205     1.76219     1.52471
 Zero-point vibrational energy     423387.3 (Joules/Mol)
                                  101.19198 (Kcal/Mol)
 Warning -- explicit consideration of   9 degrees of freedom as
           vibrations may cause significant error
 Vibrational temperatures:    177.08   279.57   304.97   450.48   472.73
          (Kelvin)            524.16   660.29   703.01   786.61   956.69
                             1034.71  1129.58  1143.38  1208.07  1250.56
                             1333.97  1350.26  1371.65  1383.11  1479.32
                             1522.48  1531.68  1582.92  1606.76  1649.82
                             1724.50  1738.05  1801.02  1846.71  1859.14
                             1904.91  1920.83  1963.28  1989.45  1995.11
                             2001.99  2107.34  2126.20  2138.96  2150.84
                             2759.16  4348.05  4353.36  4357.04  4373.81
                             4389.97  4402.55  4411.99  4418.68  4425.83
                             4440.83

 Zero-point correction=                           0.161260 (Hartree/Particle)
 Thermal correction to Energy=                    0.168722
 Thermal correction to Enthalpy=                  0.169666
 Thermal correction to Gibbs Free Energy=         0.129569
 Sum of electronic and zero-point Energies=           -423.043347
 Sum of electronic and thermal Energies=              -423.035885
 Sum of electronic and thermal Enthalpies=            -423.034940
 Sum of electronic and thermal Free Energies=         -423.075038

                     E (Thermal)             CV                S
                      KCal/Mol        Cal/Mol-Kelvin    Cal/Mol-Kelvin
 Total                  105.875             29.772             84.393
 Electronic               0.000              0.000              0.000
 Translational            0.889              2.981             40.409
 Rotational               0.889              2.981             28.374
 Vibrational            104.097             23.810             15.610
 Vibration     1          0.610              1.930              3.051
 Vibration     2          0.635              1.848              2.186
 Vibration     3          0.643              1.823              2.027
 Vibration     4          0.701              1.649              1.346
 Vibration     5          0.712              1.618              1.267
 Vibration     6          0.738              1.546              1.104
 Vibration     7          0.817              1.341              0.769
 Vibration     8          0.845              1.275              0.687
 Vibration     9          0.902              1.147              0.551

 Optimization completed.
    -- Stationary point found.
 Normal termination of Gaussian 09 at Mon Jan 27 13:38:13 2020.
