 Gaussian 09, Revision D.01,
 Gaussian 09:  ES64L-G09RevD.01 24-Apr-2013

 -----------------------------
 # b3lyp 6-31G(2df,p) opt Freq
 -----------------------------

 -----
 titel
 -----
 Symbolic Z-matrix:
 Charge =  0 Multiplicity = 1

 SCF Done:  E(RB3LYP) =  -423.158636732     A.U. after   13 cycles
 Optimization completed.
    -- Stationary point found.
 Normal termination of Gaussian 09 at Tue Jan 28 14:02:25 2020.

 ----------------------------------------------------------------------
 #N Geom=AllCheck Guess=TCheck SCRF=Check GenChk RB3LYP/6-31G(2df,p) Fr
 eq
 ----------------------------------------------------------------------

 Structure from the checkpoint file:  "/scratch/puck/g09_6d834d3d-9bfc-446e-8f4f-953bf1f8da42/Gau-28433.chk"
 -----
 titel
 -----
 Charge =  0 Multiplicity = 1

                         Standard orientation:
 ---------------------------------------------------------------------
 Center     Atomic      Atomic             Coordinates (Angstroms)
 Number     Number       Type             X           Y           Z
 ---------------------------------------------------------------------
      1          6           0       -2.705783   -0.224955   -0.031792
      2          8           0       -1.498894    0.422855   -0.366002
      3          6           0       -0.433396    0.138575    0.515017
      4          6           0        0.102412   -1.300017    0.482863
      5          8           0        0.585170   -1.727419   -0.790997
      6          6           0        1.536132   -1.224982    0.178027
      7          6           0        1.867864    0.218103   -0.022652
      8          6           0        0.778240    0.979188    0.117023
      9          6           0        0.630924    2.446027   -0.114501
     10          1           0       -3.023075    0.013212    0.996348
     11          1           0       -3.467033    0.134438   -0.728121
     12          1           0       -2.629530   -1.317400   -0.127736
     13          1           0       -0.741692    0.375251    1.551940
     14          1           0       -0.335938   -2.074003    1.106975
     15          1           0        2.262353   -1.950342    0.531667
     16          1           0        2.853712    0.573996   -0.297586
     17          1           0        0.275453    2.956076    0.790130
     18          1           0        1.575663    2.902783   -0.419885
     19          1           0       -0.118470    2.630866   -0.891647
 ---------------------------------------------------------------------

 SCF Done:  E(RB3LYP) =  -423.158636732     A.U. after    1 cycles

 The electronic state is 1-A.
 Alpha  occ. eigenvalues --  -19.14459 -19.14303 -10.23831 -10.23521 -10.22987
 Alpha  occ. eigenvalues --  -10.22508 -10.19349 -10.18087 -10.18063  -1.06706
 Alpha  occ. eigenvalues --   -1.03351  -0.82506  -0.72475  -0.72003  -0.66986
 Alpha  occ. eigenvalues --   -0.63130  -0.57616  -0.53979  -0.51576  -0.48865
 Alpha  occ. eigenvalues --   -0.46363  -0.45061  -0.42653  -0.41638  -0.40857
 Alpha  occ. eigenvalues --   -0.39692  -0.38485  -0.36964  -0.34879  -0.32512
 Alpha  occ. eigenvalues --   -0.30832  -0.27235  -0.24711  -0.23911
 Alpha virt. eigenvalues --   -0.00077   0.08248   0.10907   0.11786   0.12953
 Alpha virt. eigenvalues --    0.14066   0.14871   0.15126   0.15895   0.16713
 Alpha virt. eigenvalues --    0.17098   0.18027   0.19063   0.19560   0.21589

 Mulliken charges:
               1
     1  C   -0.232594
     2  O   -0.241845
     3  C    0.036675
     4  C   -0.007985
     5  O   -0.251068
     6  C    0.004382
     7  C   -0.202836
     8  C    0.283432
     9  C   -0.488310
    10  H    0.100556
    11  H    0.129941
    12  H    0.116724
    13  H    0.064522
    14  H    0.095854
    15  H    0.097122
    16  H    0.098944
    17  H    0.123068
    18  H    0.122248
    19  H    0.151170
 Sum of Mulliken charges =   0.00000

 Dipole moment (field-independent basis, Debye):
    X=             -0.1142    Y=              0.5517    Z=              2.1734  Tot=              2.2452
 Quadrupole moment (field-independent basis, Debye-Ang):
   XX=            -46.8163   YY=            -53.0214   ZZ=            -54.9544
   XY=              1.3647   XZ=             -0.5744   YZ=             -3.1152

  Exact polarizability:  91.414  -3.472  83.248  -2.986  -1.418  57.133
 Approx polarizability: 129.637 -11.072 116.245  -5.268   2.482  93.872

                      1                      2                      3
                      A                      A                      A
 Frequencies --     70.4215               123.6525               177.7783
 Red. masses --      2.9749                 2.4496                 1.1327
 Frc consts  --      0.0087                 0.0221                 0.0211
 IR Inten    --      2.7924                 2.0869                 0.5120

                      4                      5                      6
                      A                      A                      A
 Frequencies --    187.5126               200.4550               248.6061
 Red. masses --      2.3121                 1.8862                 2.3638
 Frc consts  --      0.0479                 0.0447                 0.0861
 IR Inten    --      1.9739                 2.9796                 0.5652

                      7                      8                      9
                      A                      A                      A
 Frequencies --    292.8227               395.7207               479.0544
 Red. masses --      2.7117                 3.4001                 3.5903
 Frc consts  --      0.1370                 0.3137                 0.4855
 IR Inten    --      0.4815                 0.5427                 3.5319

                     10                     11                     12
                      A                      A                      A
 Frequencies --    529.0840               542.6609               684.6002
 Red. masses --      3.9641                 3.5649                 4.3188
 Frc consts  --      0.6538                 0.6185                 1.1926
 IR Inten    --      6.3740                 0.4414                12.9556

                     13                     14                     15
                      A                      A                      A
 Frequencies --    720.5496               807.6696               839.5292
 Red. masses --      5.6144                 3.1033                 2.4446
 Frc consts  --      1.7174                 1.1927                 1.0152
 IR Inten    --      8.6260                 2.4497                 8.2991

                     16                     17                     18
                      A                      A                      A
 Frequencies --    880.7127               904.4713               923.7112
 Red. masses --      2.0233                 2.3932                 2.4732
 Frc consts  --      0.9247                 1.1535                 1.2433
 IR Inten    --     37.4731                10.0152                 2.2078

                     19                     20                     21
                      A                      A                      A
 Frequencies --    973.9519              1018.7643              1038.7250
 Red. masses --      2.1309                 2.6435                 1.6626
 Frc consts  --      1.1910                 1.6165                 1.0569
 IR Inten    --     16.6373                 7.9352                15.5972

                     22                     23                     24
                      A                      A                      A
 Frequencies --   1049.1270              1072.0139              1109.8309
 Red. masses --      1.7411                 1.7609                 1.3419
 Frc consts  --      1.1291                 1.1923                 0.9738
 IR Inten    --      4.9662                 0.6799                 4.1688

                     25                     26                     27
                      A                      A                      A
 Frequencies --   1155.9097              1182.4124              1196.4271
 Red. masses --      4.3717                 1.3203                 2.1913
 Frc consts  --      3.4415                 1.0876                 1.8481
 IR Inten    --    142.4343                 6.4029                 9.4580

                     28                     29                     30
                      A                      A                      A
 Frequencies --   1221.4842              1253.5404              1287.6017
 Red. masses --      1.6282                 1.4253                 1.3529
 Frc consts  --      1.4313                 1.3196                 1.3215
 IR Inten    --     46.3881                 1.9856                 1.4210

                     31                     32                     33
                      A                      A                      A
 Frequencies --   1310.1360              1347.0460              1361.8403
 Red. masses --      1.9220                 1.4708                 1.6601
 Frc consts  --      1.9438                 1.5724                 1.8140
 IR Inten    --      2.7750                 9.8685                29.6620

                     34                     35                     36
                      A                      A                      A
 Frequencies --   1407.3812              1421.8442              1473.5461
 Red. masses --      1.3518                 2.8252                 1.0501
 Frc consts  --      1.5775                 3.3651                 1.3434
 IR Inten    --      1.4972                14.8251                 5.9608

                     37                     38                     39
                      A                      A                      A
 Frequencies --   1478.6025              1486.8535              1491.1477
 Red. masses --      1.1122                 1.0662                 1.0812
 Frc consts  --      1.4327                 1.3888                 1.4164
 IR Inten    --      3.0462                10.9428                 3.0105

                     40                     41                     42
                      A                      A                      A
 Frequencies --   1508.1345              1710.6514              2914.4314
 Red. masses --      1.0532                 7.3032                 1.0798
 Frc consts  --      1.4114                12.5918                 5.4038
 IR Inten    --      7.6930                11.3101                49.9076

                     43                     44                     45
                      A                      A                      A
 Frequencies --   2973.5907              3023.7772              3029.9869
 Red. masses --      1.0412                 1.0406                 1.0978
 Frc consts  --      5.4243                 5.6057                 5.9383
 IR Inten    --     63.5293                22.1703                48.1372

                     46                     47                     48
                      A                      A                      A
 Frequencies --   3080.7336              3116.7374              3120.0785
 Red. masses --      1.0932                 1.0965                 1.1014
 Frc consts  --      6.1131                 6.2758                 6.3172
 IR Inten    --     11.4840                27.5939                16.1779

                     49                     50                     51
                      A                      A                      A
 Frequencies --   3145.8034              3165.7705              3203.2280
 Red. masses --      1.0888                 1.0929                 1.0954
 Frc consts  --      6.3483                 6.4537                 6.6223
 IR Inten    --     19.4314                35.6084                12.9010

 - Thermochemistry -
 -------------------
 Temperature   298.150 Kelvin.  Pressure   1.00000 Atm.
 Atom     1 has atomic number  6 and mass  12.00000

 Molecular mass:   126.06808 amu.
 Principal axes and moments of inertia in atomic units:
                           1         2         3
     Eigenvalues --   833.943231018.494391667.46882
           X            0.99427   0.10657  -0.00787
           Y           -0.10672   0.99405  -0.02188
           Z            0.00549   0.02260   0.99973
 This molecule is an asymmetric top.
 Rotational symmetry number  1.
 Warning -- assumption of classical behavior for rotation
           may cause significant error
 Rotational temperatures (Kelvin)      0.10386     0.08504     0.05194
 Rotational constants (GHZ):           2.16411     1.77197     1.08232
 Zero-point vibrational energy     414746.0 (Joules/Mol)
                                   99.12668 (Kcal/Mol)
 Warning -- explicit consideration of  11 degrees of freedom as
           vibrations may cause significant error
 Vibrational temperatures:    101.32   177.91   255.78   269.79   288.41
          (Kelvin)            357.69   421.31   569.35   689.25   761.23
                              780.77   984.99  1036.71  1162.05  1207.89
                             1267.15  1301.33  1329.01  1401.30  1465.77
                             1494.49  1509.46  1542.39  1596.80  1663.09
                             1701.23  1721.39  1757.44  1803.56  1852.57
                             1884.99  1938.10  1959.38  2024.91  2045.71
                             2120.10  2127.38  2139.25  2145.43  2169.87
                             2461.24  4193.21  4278.33  4350.54  4359.47
                             4432.48  4484.28  4489.09  4526.10  4554.83
                             4608.72

 Zero-point correction=                           0.157968 (Hartree/Particle)
 Thermal correction to Energy=                    0.166774
 Thermal correction to Enthalpy=                  0.167718
 Thermal correction to Gibbs Free Energy=         0.124297
 Sum of electronic and zero-point Energies=           -423.000668
 Sum of electronic and thermal Energies=              -422.991863
 Sum of electronic and thermal Enthalpies=            -422.990919
 Sum of electronic and thermal Free Energies=         -423.034340

                     E (Thermal)             CV                S
                      KCal/Mol        Cal/Mol-Kelvin    Cal/Mol-Kelvin
 Total                  104.652             32.560             91.387
 Electronic               0.000              0.000              0.000
 Translational            0.889              2.981             40.409
 Rotational               0.889              2.981             28.739
 Vibrational            102.875             26.598             22.239
 Vibration     1          0.598              1.968              4.142
 Vibration     2          0.610              1.929              3.042
 Vibration     3          0.628              1.870              2.352
 Vibration     4          0.632              1.857              2.252
 Vibration     5          0.638              1.839              2.129
 Vibration     6          0.662              1.765              1.740
 Vibration     7          0.688              1.687              1.458
 Vibration     8          0.762              1.479              0.979
 Vibration     9          0.835              1.297              0.713
 Vibration    10          0.884              1.186              0.589
 Vibration    11          0.898              1.156              0.560

 Normal termination of Gaussian 09 at Tue Jan 28 14:47:05 2020.
