 Gaussian 09, Revision D.01,
 Gaussian 09:  ES64L-G09RevD.01 24-Apr-2013

 -----------------------------
 # b3lyp 6-31G(2df,p) opt Freq
 -----------------------------

 -----
 titel
 -----
 Symbolic Z-matrix:
 Charge =  0 Multiplicity = 1

 SCF Done:  E(RB3LYP) =  -423.105159676     A.U. after   13 cycles
 Optimization completed.
    -- Stationary point found.
 Normal termination of Gaussian 09 at Tue Jan 28 00:08:31 2020.

 ----------------------------------------------------------------------
 #N Geom=AllCheck Guess=TCheck SCRF=Check GenChk RB3LYP/6-31G(2df,p) Fr
 eq
 ----------------------------------------------------------------------

 Structure from the checkpoint file:  "/scratch/puck/g09_bf17e054-dab5-4a65-9ff6-238e4f5a490a/Gau-56839.chk"
 -----
 titel
 -----
 Charge =  0 Multiplicity = 1

                         Standard orientation:
 ---------------------------------------------------------------------
 Center     Atomic      Atomic             Coordinates (Angstroms)
 Number     Number       Type             X           Y           Z
 ---------------------------------------------------------------------
      1          8           0        1.026267    1.818969   -0.352122
      2          6           0       -0.155679    1.062963   -0.441988
      3          6           0       -0.875051    0.652943    0.877414
      4          6           0       -2.022037   -0.165971    0.192269
      5          8           0       -1.301721   -0.908053   -0.853431
      6          6           0        0.013759   -0.501939   -0.506947
      7          6           0        1.403803   -1.089617   -0.713809
      8          6           0        1.689092   -0.618228    0.771675
      9          6           0        0.133541   -0.521279    1.022245
     10          1           0        0.792327    2.697797   -0.037817
     11          1           0       -0.804610    1.447558   -1.240105
     12          1           0       -1.190655    1.358192    1.651375
     13          1           0       -2.516966   -0.873677    0.866346
     14          1           0       -2.773695    0.479101   -0.273630
     15          1           0        1.387856   -2.179684   -0.793746
     16          1           0        2.017495   -0.669524   -1.513409
     17          1           0        2.163566   -1.371764    1.401880
     18          1           0        2.242194    0.313558    0.827784
     19          1           0       -0.238438   -1.402109    1.550590
 ---------------------------------------------------------------------

 SCF Done:  E(RB3LYP) =  -423.105159676     A.U. after    1 cycles

 The electronic state is 1-A.
 Alpha  occ. eigenvalues --  -19.14532 -19.13486 -10.23130 -10.23106 -10.23000
 Alpha  occ. eigenvalues --  -10.20057 -10.18449 -10.18295 -10.17557  -1.04402
 Alpha  occ. eigenvalues --   -1.02263  -0.85471  -0.77473  -0.69102  -0.65161
 Alpha  occ. eigenvalues --   -0.61389  -0.57140  -0.52958  -0.51315  -0.49325
 Alpha  occ. eigenvalues --   -0.47985  -0.44262  -0.43023  -0.41490  -0.38351
 Alpha  occ. eigenvalues --   -0.36893  -0.34832  -0.34641  -0.33523  -0.32343
 Alpha  occ. eigenvalues --   -0.31810  -0.27047  -0.25601  -0.22506
 Alpha virt. eigenvalues --    0.06656   0.07950   0.10530   0.11715   0.13130
 Alpha virt. eigenvalues --    0.13492   0.14765   0.15758   0.16133   0.16364
 Alpha virt. eigenvalues --    0.19280   0.19747   0.20354   0.21330   0.22058

 Mulliken charges:
               1
     1  O   -0.443219
     2  C    0.094199
     3  C   -0.178210
     4  C   -0.091476
     5  O   -0.343103
     6  C    0.434523
     7  C   -0.333087
     8  C   -0.269870
     9  C   -0.030798
    10  H    0.286579
    11  H    0.071617
    12  H    0.061445
    13  H    0.107455
    14  H    0.106440
    15  H    0.113698
    16  H    0.110851
    17  H    0.098231
    18  H    0.133075
    19  H    0.071651
 Sum of Mulliken charges =   0.00000

 Dipole moment (field-independent basis, Debye):
    X=             -0.3833    Y=              1.5414    Z=              1.4072  Tot=              2.1221
 Quadrupole moment (field-independent basis, Debye-Ang):
   XX=            -53.2799   YY=            -48.3851   ZZ=            -54.9396
   XY=             -3.3415   XZ=             -1.7493   YZ=             -0.6389

  Exact polarizability:  84.308  -4.357  73.790  -1.969  -1.305  66.073
 Approx polarizability: 117.567  -2.967 108.469  -1.822  -0.070 103.441

                      1                      2                      3
                      A                      A                      A
 Frequencies --    199.5361               222.6979               277.9823
 Red. masses --      1.7710                 1.3329                 5.7422
 Frc consts  --      0.0415                 0.0389                 0.2614
 IR Inten    --     32.8397                53.2512                19.4182

                      4                      5                      6
                      A                      A                      A
 Frequencies --    324.4033               336.3512               389.3752
 Red. masses --      2.1539                 2.6233                 3.1923
 Frc consts  --      0.1336                 0.1749                 0.2852
 IR Inten    --      0.4878                 6.0653                 1.8110

                      7                      8                      9
                      A                      A                      A
 Frequencies --    447.2301               483.4087               606.1402
 Red. masses --      3.1957                 5.0608                 4.9510
 Frc consts  --      0.3766                 0.6968                 1.0717
 IR Inten    --      4.7398                 5.0796                 5.2343

                     10                     11                     12
                      A                      A                      A
 Frequencies --    645.6432               707.5916               751.8802
 Red. masses --      3.2210                 2.0619                 2.2972
 Frc consts  --      0.7911                 0.6083                 0.7652
 IR Inten    --      3.9610                 7.5358                 2.2275

                     13                     14                     15
                      A                      A                      A
 Frequencies --    807.4199               861.6610               863.7430
 Red. masses --      1.8209                 4.2148                 2.6836
 Frc consts  --      0.6994                 1.8437                 1.1796
 IR Inten    --      4.6470                35.1580                 1.4336

                     16                     17                     18
                      A                      A                      A
 Frequencies --    880.7031               907.2440               910.5826
 Red. masses --      2.6957                 3.0674                 3.2151
 Frc consts  --      1.2319                 1.4876                 1.5707
 IR Inten    --      0.5642                 7.5311                12.5395

                     19                     20                     21
                      A                      A                      A
 Frequencies --    970.0585              1011.6125              1040.8235
 Red. masses --      2.6934                 1.4899                 2.5562
 Frc consts  --      1.4933                 0.8983                 1.6315
 IR Inten    --      8.9417                10.2551                 1.6687

                     22                     23                     24
                      A                      A                      A
 Frequencies --   1052.1323              1075.5492              1101.9774
 Red. masses --      2.0234                 1.7874                 1.7668
 Frc consts  --      1.3197                 1.2182                 1.2641
 IR Inten    --     30.6608                17.2030                 0.4543

                     25                     26                     27
                      A                      A                      A
 Frequencies --   1138.2529              1154.1122              1178.8340
 Red. masses --      2.7246                 1.2467                 1.5318
 Frc consts  --      2.0798                 0.9783                 1.2542
 IR Inten    --     53.4030                19.2521                 1.8385

                     28                     29                     30
                      A                      A                      A
 Frequencies --   1197.6913              1207.2967              1215.5533
 Red. masses --      1.9737                 1.5132                 1.3160
 Frc consts  --      1.6681                 1.2995                 1.1457
 IR Inten    --     41.1236                12.7075                 3.5656

                     31                     32                     33
                      A                      A                      A
 Frequencies --   1233.8570              1249.1407              1256.2563
 Red. masses --      1.5412                 1.3138                 1.7654
 Frc consts  --      1.3824                 1.2078                 1.6416
 IR Inten    --      5.7804                 5.7870                32.2352

                     34                     35                     36
                      A                      A                      A
 Frequencies --   1298.7110              1335.8249              1345.1940
 Red. masses --      1.9089                 1.3819                 1.7720
 Frc consts  --      1.8969                 1.4528                 1.8893
 IR Inten    --     23.3170                 6.9253                14.4418

                     37                     38                     39
                      A                      A                      A
 Frequencies --   1364.5340              1431.1484              1468.9022
 Red. masses --      1.4309                 1.3249                 1.0933
 Frc consts  --      1.5697                 1.5988                 1.3898
 IR Inten    --      3.3285                 1.9455                 0.9174

                     40                     41                     42
                      A                      A                      A
 Frequencies --   1486.8385              1515.4774              3009.4437
 Red. masses --      1.1411                 1.1058                 1.0848
 Frc consts  --      1.4863                 1.4963                 5.7886
 IR Inten    --      5.2446                 0.5326                56.8118

                     43                     44                     45
                      A                      A                      A
 Frequencies --   3034.3238              3065.0293              3070.4642
 Red. masses --      1.0572                 1.0577                 1.0857
 Frc consts  --      5.7352                 5.8541                 6.0310
 IR Inten    --     53.9788                39.4701                42.1619

                     46                     47                     48
                      A                      A                      A
 Frequencies --   3078.4979              3084.9335              3095.0728
 Red. masses --      1.0875                 1.1092                 1.0703
 Frc consts  --      6.0724                 6.2193                 6.0410
 IR Inten    --     44.0483                37.1093                45.3811

                     49                     50                     51
                      A                      A                      A
 Frequencies --   3122.5847              3192.5334              3817.7048
 Red. masses --      1.1081                 1.0996                 1.0664
 Frc consts  --      6.3660                 6.6035                 9.1574
 IR Inten    --     17.0040                 7.5197                27.3619

 - Thermochemistry -
 -------------------
 Temperature   298.150 Kelvin.  Pressure   1.00000 Atm.
 Atom     1 has atomic number  8 and mass  15.99491

 Molecular mass:   126.06808 amu.
 Principal axes and moments of inertia in atomic units:
                           1         2         3
     Eigenvalues --   709.93637 933.969471161.11901
           X            0.99516  -0.09715  -0.01488
           Y            0.09677   0.99502  -0.02395
           Z            0.01713   0.02239   0.99960
 This molecule is an asymmetric top.
 Rotational symmetry number  1.
 Warning -- assumption of classical behavior for rotation
           may cause significant error
 Rotational temperatures (Kelvin)      0.12200     0.09274     0.07460
 Rotational constants (GHZ):           2.54212     1.93233     1.55431
 Zero-point vibrational energy     421827.0 (Joules/Mol)
                                  100.81906 (Kcal/Mol)
 Warning -- explicit consideration of   9 degrees of freedom as
           vibrations may cause significant error
 Vibrational temperatures:    287.09   320.41   399.95   466.74   483.93
          (Kelvin)            560.22   643.46   695.52   872.10   928.94
                             1018.07  1081.79  1161.70  1239.74  1242.73
                             1267.13  1305.32  1310.12  1395.70  1455.48
                             1497.51  1513.78  1547.47  1585.50  1637.69
                             1660.51  1696.08  1723.21  1737.03  1748.91
                             1775.24  1797.23  1807.47  1868.55  1921.95
                             1935.43  1963.26  2059.10  2113.42  2139.23
                             2180.43  4329.91  4365.71  4409.89  4417.71
                             4429.27  4438.53  4453.11  4492.70  4593.34
                             5492.82

 Zero-point correction=                           0.160665 (Hartree/Particle)
 Thermal correction to Energy=                    0.167885
 Thermal correction to Enthalpy=                  0.168829
 Thermal correction to Gibbs Free Energy=         0.129632
 Sum of electronic and zero-point Energies=           -422.944494
 Sum of electronic and thermal Energies=              -422.937275
 Sum of electronic and thermal Enthalpies=            -422.936331
 Sum of electronic and thermal Free Energies=         -422.975528

                     E (Thermal)             CV                S
                      KCal/Mol        Cal/Mol-Kelvin    Cal/Mol-Kelvin
 Total                  105.349             30.156             82.497
 Electronic               0.000              0.000              0.000
 Translational            0.889              2.981             40.409
 Rotational               0.889              2.981             28.134
 Vibrational            103.572             24.194             13.954
 Vibration     1          0.638              1.841              2.137
 Vibration     2          0.648              1.807              1.937
 Vibration     3          0.679              1.714              1.546
 Vibration     4          0.709              1.627              1.288
 Vibration     5          0.717              1.603              1.229
 Vibration     6          0.757              1.493              1.003
 Vibration     7          0.806              1.367              0.804
 Vibration     8          0.840              1.287              0.701
 Vibration     9          0.965              1.019              0.439

 Optimization completed.
    -- Stationary point found.
 Normal termination of Gaussian 09 at Tue Jan 28 01:35:05 2020.
