 Gaussian 09, Revision D.01,
 Gaussian 09:  ES64L-G09RevD.01 24-Apr-2013

 -----------------------------
 # b3lyp 6-31G(2df,p) opt Freq
 -----------------------------

 -----
 titel
 -----
 Symbolic Z-matrix:
 Charge =  0 Multiplicity = 1

 SCF Done:  E(RB3LYP) =  -423.174663923     A.U. after   14 cycles
 Optimization completed.
    -- Stationary point found.
 Normal termination of Gaussian 09 at Mon Jan 27 16:48:42 2020.

 ----------------------------------------------------------------------
 #N Geom=AllCheck Guess=TCheck SCRF=Check GenChk RB3LYP/6-31G(2df,p) Fr
 eq
 ----------------------------------------------------------------------

 Structure from the checkpoint file:  "/scratch/puck/g09_aa634bc0-a37c-4d2e-98bb-3e4a58b0c9f5/Gau-164724.chk"
 -----
 titel
 -----
 Charge =  0 Multiplicity = 1

                         Standard orientation:
 ---------------------------------------------------------------------
 Center     Atomic      Atomic             Coordinates (Angstroms)
 Number     Number       Type             X           Y           Z
 ---------------------------------------------------------------------
      1          8           0       -0.263921    0.451373    1.562065
      2          6           0        0.110249   -0.143095    0.342356
      3          6           0        0.992177   -1.441677    0.414028
      4          6           0        1.979613   -0.838514   -0.637038
      5          6           0        1.338050    0.514885   -0.319278
      6          8           0        1.726233    1.649495   -0.285481
      7          6           0       -1.081738   -0.298370   -0.587211
      8          6           0       -2.145983    0.764141   -0.646262
      9          6           0       -2.448245   -0.570759   -0.010379
     10          1           0        0.168552    1.314155    1.596703
     11          1           0        1.449786   -1.538622    1.399776
     12          1           0        0.490971   -2.370934    0.141679
     13          1           0        3.053233   -0.912207   -0.454229
     14          1           0        1.770099   -1.170534   -1.658366
     15          1           0       -0.845376   -0.799953   -1.521870
     16          1           0       -2.039948    1.609686    0.023051
     17          1           0       -2.583736    0.997674   -1.610166
     18          1           0       -2.533387   -0.590209    1.069433
     19          1           0       -3.093441   -1.265675   -0.535976
 ---------------------------------------------------------------------

 SCF Done:  E(RB3LYP) =  -423.174663923     A.U. after    1 cycles

 The electronic state is 1-A.
 Alpha  occ. eigenvalues --  -19.14877 -19.14810 -10.27276 -10.24588 -10.20096
 Alpha  occ. eigenvalues --  -10.19677 -10.19532 -10.18393 -10.18365  -1.05990
 Alpha  occ. eigenvalues --   -1.02925  -0.86222  -0.83668  -0.68364  -0.63719
 Alpha  occ. eigenvalues --   -0.59886  -0.59075  -0.55829  -0.50055  -0.48625
 Alpha  occ. eigenvalues --   -0.47155  -0.46544  -0.44886  -0.40022  -0.39305
 Alpha  occ. eigenvalues --   -0.38297  -0.37932  -0.36124  -0.35269  -0.34356
 Alpha  occ. eigenvalues --   -0.30281  -0.29899  -0.27132  -0.24173
 Alpha virt. eigenvalues --   -0.02839   0.07860   0.08514   0.11126   0.12800
 Alpha virt. eigenvalues --    0.12988   0.13908   0.14958   0.15763   0.16896
 Alpha virt. eigenvalues --    0.17356   0.19237   0.20505   0.22713   0.23165

 Mulliken charges:
               1
     1  O   -0.483314
     2  C    0.292066
     3  C   -0.281469
     4  C   -0.341220
     5  C    0.339552
     6  O   -0.314469
     7  C   -0.017873
     8  C   -0.269259
     9  C   -0.274854
    10  H    0.297084
    11  H    0.121919
    12  H    0.112610
    13  H    0.133017
    14  H    0.134730
    15  H    0.081283
    16  H    0.118316
    17  H    0.110213
    18  H    0.132622
    19  H    0.109046
 Sum of Mulliken charges =   0.00000

 Dipole moment (field-independent basis, Debye):
    X=             -0.0677    Y=             -1.8250    Z=             -0.7853  Tot=              1.9879
 Quadrupole moment (field-independent basis, Debye-Ang):
   XX=            -54.0532   YY=            -54.6388   ZZ=            -52.4870
   XY=             -3.8915   XZ=              2.2487   YZ=              2.9553

  Exact polarizability:  85.964  -0.806  76.432  -1.222   0.953  65.725
 Approx polarizability: 111.361   3.869 120.558  -3.731   1.937 100.379

                      1                      2                      3
                      A                      A                      A
 Frequencies --     71.1816                81.2587               148.2088
 Red. masses --      2.8429                 4.3030                 2.8562
 Frc consts  --      0.0085                 0.0167                 0.0370
 IR Inten    --      1.1672                 1.2436                 1.2355

                      4                      5                      6
                      A                      A                      A
 Frequencies --    224.4061               233.1486               277.9371
 Red. masses --      3.0842                 2.3804                 1.5900
 Frc consts  --      0.0915                 0.0762                 0.0724
 IR Inten    --      5.5721                43.2890                25.4392

                      7                      8                      9
                      A                      A                      A
 Frequencies --    290.1433               381.9009               455.6627
 Red. masses --      4.0403                 2.3916                 3.4489
 Frc consts  --      0.2004                 0.2055                 0.4219
 IR Inten    --      3.9210                 3.3098                 0.6008

                     10                     11                     12
                      A                      A                      A
 Frequencies --    491.3099               583.6359               687.8407
 Red. masses --      2.2556                 3.1921                 2.7084
 Frc consts  --      0.3208                 0.6406                 0.7550
 IR Inten    --      1.7391                 3.9644                 1.3462

                     13                     14                     15
                      A                      A                      A
 Frequencies --    734.9524               760.1004               788.8820
 Red. masses --      2.8648                 1.4553                 1.0837
 Frc consts  --      0.9117                 0.4954                 0.3974
 IR Inten    --      3.0803                 0.9329                 0.4753

                     16                     17                     18
                      A                      A                      A
 Frequencies --    821.9348               841.3901               907.7368
 Red. masses --      1.3223                 2.5314                 4.5518
 Frc consts  --      0.5263                 1.0559                 2.2098
 IR Inten    --     12.0088                13.0401                23.9073

                     19                     20                     21
                      A                      A                      A
 Frequencies --    926.6633               953.6305               987.4633
 Red. masses --      3.3424                 2.6503                 2.8851
 Frc consts  --      1.6910                 1.4201                 1.6575
 IR Inten    --      6.6201                 6.5025                 1.5331

                     22                     23                     24
                      A                      A                      A
 Frequencies --   1040.4664              1061.5780              1074.0883
 Red. masses --      2.2419                 1.4068                 1.8074
 Frc consts  --      1.4300                 0.9341                 1.2285
 IR Inten    --     42.9466                16.9803                32.4362

                     25                     26                     27
                      A                      A                      A
 Frequencies --   1078.2350              1088.6900              1130.4616
 Red. masses --      1.6030                 1.3680                 2.0781
 Frc consts  --      1.0980                 0.9553                 1.5647
 IR Inten    --     44.0338                 1.2205                 2.0437

                     28                     29                     30
                      A                      A                      A
 Frequencies --   1136.1069              1185.3528              1200.0733
 Red. masses --      1.2795                 1.4729                 1.3568
 Frc consts  --      0.9730                 1.2193                 1.1513
 IR Inten    --      0.8531                19.1412                 1.6675

                     31                     32                     33
                      A                      A                      A
 Frequencies --   1205.3464              1226.9993              1238.8755
 Red. masses --      1.4786                 1.8120                 1.5621
 Frc consts  --      1.2657                 1.6073                 1.4126
 IR Inten    --      6.8583                 6.2345                19.8122

                     34                     35                     36
                      A                      A                      A
 Frequencies --   1282.4582              1356.1580              1400.5886
 Red. masses --      2.7868                 1.4023                 1.6613
 Frc consts  --      2.7005                 1.5196                 1.9201
 IR Inten    --     20.8141                40.8056                 4.4305

                     37                     38                     39
                      A                      A                      A
 Frequencies --   1446.7148              1456.3479              1482.7180
 Red. masses --      1.0949                 1.0890                 1.1018
 Frc consts  --      1.3502                 1.3609                 1.4271
 IR Inten    --      9.5321                 2.2089                 3.3068

                     40                     41                     42
                      A                      A                      A
 Frequencies --   1498.5210              1873.2990              3065.4398
 Red. masses --      1.4370                12.5894                 1.0606
 Frc consts  --      1.9012                26.0298                 5.8721
 IR Inten    --      0.9539               223.5383                 6.4280

                     43                     44                     45
                      A                      A                      A
 Frequencies --   3084.8439              3125.6091              3138.5170
 Red. masses --      1.0580                 1.1043                 1.0765
 Frc consts  --      5.9322                 6.3566                 6.2476
 IR Inten    --     14.4667                 6.8257                15.4947

                     46                     47                     48
                      A                      A                      A
 Frequencies --   3140.7310              3145.9819              3150.4030
 Red. masses --      1.0507                 1.0718                 1.1068
 Frc consts  --      6.1067                 6.2497                 6.4721
 IR Inten    --     16.3102                 3.0450                19.3662

                     49                     50                     51
                      A                      A                      A
 Frequencies --   3224.5205              3238.2383              3772.5859
 Red. masses --      1.1173                 1.1156                 1.0663
 Frc consts  --      6.8448                 6.8924                 8.9411
 IR Inten    --      0.7297                10.5320                42.4964

 - Thermochemistry -
 -------------------
 Temperature   298.150 Kelvin.  Pressure   1.00000 Atm.
 Atom     1 has atomic number  8 and mass  15.99491

 Molecular mass:   126.06808 amu.
 Principal axes and moments of inertia in atomic units:
                           1         2         3
     Eigenvalues --   665.190251379.213681523.99361
           X            0.99922  -0.03838   0.00881
           Y            0.03800   0.99847   0.04014
           Z           -0.01033  -0.03978   0.99916
 This molecule is an asymmetric top.
 Rotational symmetry number  1.
 Warning -- assumption of classical behavior for rotation
           may cause significant error
 Rotational temperatures (Kelvin)      0.13021     0.06280     0.05683
 Rotational constants (GHZ):           2.71312     1.30853     1.18422
 Zero-point vibrational energy     413904.0 (Joules/Mol)
                                   98.92542 (Kcal/Mol)
 Warning -- explicit consideration of  11 degrees of freedom as
           vibrations may cause significant error
 Vibrational temperatures:    102.41   116.91   213.24   322.87   335.45
          (Kelvin)            399.89   417.45   549.47   655.60   706.88
                              839.72   989.65  1057.43  1093.61  1135.02
                             1182.58  1210.57  1306.03  1333.26  1372.06
                             1420.74  1497.00  1527.37  1545.37  1551.34
                             1566.38  1626.48  1634.60  1705.46  1726.64
                             1734.22  1765.38  1782.46  1845.17  1951.21
                             2015.13  2081.50  2095.36  2133.30  2156.03
                             2695.26  4410.48  4438.40  4497.05  4515.62
                             4518.81  4526.36  4532.72  4639.36  4659.10
                             5427.90

 Zero-point correction=                           0.157648 (Hartree/Particle)
 Thermal correction to Energy=                    0.166620
 Thermal correction to Enthalpy=                  0.167565
 Thermal correction to Gibbs Free Energy=         0.123734
 Sum of electronic and zero-point Energies=           -423.017016
 Sum of electronic and thermal Energies=              -423.008044
 Sum of electronic and thermal Enthalpies=            -423.007099
 Sum of electronic and thermal Free Energies=         -423.050930

                     E (Thermal)             CV                S
                      KCal/Mol        Cal/Mol-Kelvin    Cal/Mol-Kelvin
 Total                  104.556             33.745             92.249
 Electronic               0.000              0.000              0.000
 Translational            0.889              2.981             40.409
 Rotational               0.889              2.981             28.727
 Vibrational            102.778             27.783             23.114
 Vibration     1          0.598              1.968              4.120
 Vibration     2          0.600              1.962              3.860
 Vibration     3          0.618              1.905              2.695
 Vibration     4          0.649              1.804              1.923
 Vibration     5          0.654              1.790              1.855
 Vibration     6          0.679              1.714              1.546
 Vibration     7          0.686              1.692              1.473
 Vibration     8          0.751              1.509              1.032
 Vibration     9          0.814              1.348              0.779
 Vibration    10          0.847              1.269              0.680
 Vibration    11          0.941              1.067              0.479

 Optimization completed.
    -- Stationary point found.
 Normal termination of Gaussian 09 at Mon Jan 27 17:33:46 2020.
