 Gaussian 09, Revision D.01,
 Gaussian 09:  ES64L-G09RevD.01 24-Apr-2013

 -----------------------------
 # b3lyp 6-31G(2df,p) opt Freq
 -----------------------------

 -----
 titel
 -----
 Symbolic Z-matrix:
 Charge =  0 Multiplicity = 1

 SCF Done:  E(RB3LYP) =  -423.160604581     A.U. after   14 cycles
 Optimization completed.
    -- Stationary point found.
 Normal termination of Gaussian 09 at Mon Jan 27 11:27:54 2020.

 ----------------------------------------------------------------------
 #N Geom=AllCheck Guess=TCheck SCRF=Check GenChk RB3LYP/6-31G(2df,p) Fr
 eq
 ----------------------------------------------------------------------

 Structure from the checkpoint file:  "/scratch/puck/g09_5f5407b9-e87c-40fa-a091-289a6f02b6fd/Gau-61260.chk"
 -----
 titel
 -----
 Charge =  0 Multiplicity = 1

                         Standard orientation:
 ---------------------------------------------------------------------
 Center     Atomic      Atomic             Coordinates (Angstroms)
 Number     Number       Type             X           Y           Z
 ---------------------------------------------------------------------
      1          6           0       -1.103114   -1.570950   -0.032409
      2          6           0        0.259002   -1.376742   -0.713806
      3          6           0        1.259111   -0.831182    0.274747
      4          8           0        2.337610   -0.035843   -0.219652
      5          6           0        1.320112    0.600825    0.584639
      6          6           0        0.518403    1.649978   -0.103594
      7          6           0       -0.790385    1.680773   -0.352009
      8          6           0       -1.880207    0.692930   -0.025857
      9          8           0       -1.524079   -0.447136    0.721046
     10          1           0       -1.864314   -1.838934   -0.782208
     11          1           0       -1.049339   -2.390551    0.692453
     12          1           0        0.596328   -2.340144   -1.115058
     13          1           0        0.177510   -0.686287   -1.556894
     14          1           0        1.546365   -1.522733    1.070327
     15          1           0        1.682435    0.883845    1.575330
     16          1           0        1.111354    2.505688   -0.423474
     17          1           0       -1.182622    2.561178   -0.862378
     18          1           0       -2.642216    1.219908    0.566191
     19          1           0       -2.381274    0.398067   -0.965716
 ---------------------------------------------------------------------

 SCF Done:  E(RB3LYP) =  -423.160604581     A.U. after    1 cycles

 The electronic state is 1-A.
 Alpha  occ. eigenvalues --  -19.14474 -19.14113 -10.23981 -10.23482 -10.23250
 Alpha  occ. eigenvalues --  -10.23176 -10.19249 -10.18746 -10.18522  -1.06052
 Alpha  occ. eigenvalues --   -1.03785  -0.79734  -0.77668  -0.71140  -0.66631
 Alpha  occ. eigenvalues --   -0.61809  -0.59992  -0.52365  -0.50851  -0.49317
 Alpha  occ. eigenvalues --   -0.48400  -0.47408  -0.43787  -0.41357  -0.41063
 Alpha  occ. eigenvalues --   -0.39853  -0.37900  -0.36562  -0.35084  -0.31414
 Alpha  occ. eigenvalues --   -0.28996  -0.26638  -0.25859  -0.25252
 Alpha virt. eigenvalues --    0.01158   0.07938   0.09531   0.11027   0.13318
 Alpha virt. eigenvalues --    0.13458   0.13682   0.15240   0.15447   0.16569
 Alpha virt. eigenvalues --    0.17072   0.18019   0.18919   0.19674   0.20854

 Mulliken charges:
               1
     1  C   -0.080785
     2  C   -0.272678
     3  C    0.097151
     4  O   -0.274852
     5  C    0.009585
     6  C   -0.095307
     7  C   -0.037751
     8  C   -0.136625
     9  O   -0.231804
    10  H    0.093331
    11  H    0.110505
    12  H    0.104070
    13  H    0.119193
    14  H    0.084174
    15  H    0.097199
    16  H    0.100825
    17  H    0.091545
    18  H    0.122153
    19  H    0.100071
 Sum of Mulliken charges =   0.00000

 Dipole moment (field-independent basis, Debye):
    X=             -1.8343    Y=             -0.1243    Z=             -0.3612  Tot=              1.8737
 Quadrupole moment (field-independent basis, Debye-Ang):
   XX=            -57.6857   YY=            -47.8552   ZZ=            -53.7168
   XY=             -1.0872   XZ=              4.5048   YZ=              0.0381

  Exact polarizability:  86.036  -1.577  83.843   5.494  -1.431  60.201
 Approx polarizability: 130.290  -2.146 114.753   5.872  -1.899  95.587

                      1                      2                      3
                      A                      A                      A
 Frequencies --    108.7856               206.3916               233.4990
 Red. masses --      2.4762                 3.7220                 3.4751
 Frc consts  --      0.0173                 0.0934                 0.1116
 IR Inten    --      1.6625                 3.2990                 1.7766

                      4                      5                      6
                      A                      A                      A
 Frequencies --    262.8423               305.4567               370.3885
 Red. masses --      4.2532                 4.0125                 2.9864
 Frc consts  --      0.1731                 0.2206                 0.2414
 IR Inten    --      2.7064                 1.1123                 0.6753

                      7                      8                      9
                      A                      A                      A
 Frequencies --    427.1706               471.0807               556.9006
 Red. masses --      2.2414                 2.7623                 2.9749
 Frc consts  --      0.2410                 0.3612                 0.5436
 IR Inten    --      5.1978                 9.4247                10.4568

                     10                     11                     12
                      A                      A                      A
 Frequencies --    575.5177               699.2697               793.3293
 Red. masses --      2.9166                 1.8731                 3.6138
 Frc consts  --      0.5692                 0.5396                 1.3400
 IR Inten    --      3.4776                15.1745                 9.3149

                     13                     14                     15
                      A                      A                      A
 Frequencies --    806.2339               831.6755               849.7329
 Red. masses --      2.9940                 2.3985                 3.1607
 Frc consts  --      1.1466                 0.9775                 1.3446
 IR Inten    --     12.8928                12.1321                 2.5801

                     16                     17                     18
                      A                      A                      A
 Frequencies --    884.9409               915.3390               992.5886
 Red. masses --      3.0561                 2.3557                 1.5570
 Frc consts  --      1.4101                 1.1629                 0.9038
 IR Inten    --      2.6390                14.4953                 6.6161

                     19                     20                     21
                      A                      A                      A
 Frequencies --   1011.6735              1016.6481              1029.9430
 Red. masses --      1.9156                 2.0401                 1.8745
 Frc consts  --      1.1552                 1.2423                 1.1716
 IR Inten    --     13.0829                20.6348                 2.7807

                     22                     23                     24
                      A                      A                      A
 Frequencies --   1053.8961              1075.8341              1137.2999
 Red. masses --      2.4512                 1.7072                 1.6566
 Frc consts  --      1.6041                 1.1642                 1.2624
 IR Inten    --      7.2635                10.4878                 9.8486

                     25                     26                     27
                      A                      A                      A
 Frequencies --   1153.1334              1176.9879              1245.6592
 Red. masses --      2.3784                 1.9194                 1.3910
 Frc consts  --      1.8634                 1.5666                 1.2717
 IR Inten    --     77.4561                33.1096                17.7513

                     28                     29                     30
                      A                      A                      A
 Frequencies --   1251.0175              1275.9268              1299.0350
 Red. masses --      1.1424                 1.3058                 1.2301
 Frc consts  --      1.0534                 1.2525                 1.2231
 IR Inten    --      0.8436                24.7137                 3.5918

                     31                     32                     33
                      A                      A                      A
 Frequencies --   1322.4404              1349.2605              1385.6423
 Red. masses --      1.2509                 1.1996                 1.2953
 Frc consts  --      1.2890                 1.2867                 1.4653
 IR Inten    --      3.7010                 2.3487                 2.8002

                     34                     35                     36
                      A                      A                      A
 Frequencies --   1403.8934              1419.7573              1429.4861
 Red. masses --      1.3190                 1.3642                 1.4596
 Frc consts  --      1.5316                 1.6201                 1.7573
 IR Inten    --     19.0431                10.3723                 0.7694

                     37                     38                     39
                      A                      A                      A
 Frequencies --   1470.0742              1488.3601              1490.7772
 Red. masses --      1.1088                 1.0964                 2.2196
 Frc consts  --      1.4118                 1.4310                 2.9063
 IR Inten    --      9.0628                 6.8194                 5.5209

                     40                     41                     42
                      A                      A                      A
 Frequencies --   1501.8158              1739.1531              2944.4057
 Red. masses --      1.3032                 7.4870                 1.0697
 Frc consts  --      1.7317                13.3425                 5.4640
 IR Inten    --     11.6788                 1.8515                40.1283

                     43                     44                     45
                      A                      A                      A
 Frequencies --   2981.7681              3017.2750              3043.6817
 Red. masses --      1.0685                 1.0891                 1.0674
 Frc consts  --      5.5973                 5.8418                 5.8261
 IR Inten    --     62.9927                30.0055                28.5511

                     46                     47                     48
                      A                      A                      A
 Frequencies --   3066.7069              3073.5414              3085.6713
 Red. masses --      1.0938                 1.0829                 1.0887
 Frc consts  --      6.0609                 6.0273                 6.1073
 IR Inten    --     19.7930                12.8040                38.2514

                     49                     50                     51
                      A                      A                      A
 Frequencies --   3111.7951              3117.4024              3143.2901
 Red. masses --      1.0967                 1.0826                 1.0928
 Frc consts  --      6.2567                 6.1988                 6.3613
 IR Inten    --     39.2940                 8.4996                26.2658

 - Thermochemistry -
 -------------------
 Temperature   298.150 Kelvin.  Pressure   1.00000 Atm.
 Atom     1 has atomic number  6 and mass  12.00000

 Molecular mass:   126.06808 amu.
 Principal axes and moments of inertia in atomic units:
                           1         2         3
     Eigenvalues --   734.671901039.400311543.14473
           X            0.99966  -0.00968   0.02409
           Y            0.00964   0.99995   0.00180
           Z           -0.02411  -0.00157   0.99971
 This molecule is an asymmetric top.
 Rotational symmetry number  1.
 Warning -- assumption of classical behavior for rotation
           may cause significant error
 Rotational temperatures (Kelvin)      0.11789     0.08333     0.05613
 Rotational constants (GHZ):           2.45653     1.73633     1.16952
 Zero-point vibrational energy     422308.1 (Joules/Mol)
                                  100.93405 (Kcal/Mol)
 Warning -- explicit consideration of  10 degrees of freedom as
           vibrations may cause significant error
 Vibrational temperatures:    156.52   296.95   335.95   378.17   439.48
          (Kelvin)            532.91   614.60   677.78   801.25   828.04
                             1006.09  1141.42  1159.99  1196.59  1222.57
                             1273.23  1316.97  1428.11  1455.57  1462.73
                             1481.86  1516.32  1547.88  1636.32  1659.10
                             1693.42  1792.22  1799.93  1835.77  1869.02
                             1902.69  1941.28  1993.63  2019.89  2042.71
                             2056.71  2115.11  2141.42  2144.89  2160.78
                             2502.25  4236.34  4290.09  4341.18  4379.17
                             4412.30  4422.14  4439.59  4477.17  4485.24
                             4522.49

 Zero-point correction=                           0.160849 (Hartree/Particle)
 Thermal correction to Energy=                    0.168463
 Thermal correction to Enthalpy=                  0.169408
 Thermal correction to Gibbs Free Energy=         0.128918
 Sum of electronic and zero-point Energies=           -422.999756
 Sum of electronic and thermal Energies=              -422.992141
 Sum of electronic and thermal Enthalpies=            -422.991197
 Sum of electronic and thermal Free Energies=         -423.031686

                     E (Thermal)             CV                S
                      KCal/Mol        Cal/Mol-Kelvin    Cal/Mol-Kelvin
 Total                  105.712             30.166             85.217
 Electronic               0.000              0.000              0.000
 Translational            0.889              2.981             40.409
 Rotational               0.889              2.981             28.557
 Vibrational            103.935             24.204             16.252
 Vibration     1          0.606              1.942              3.290
 Vibration     2          0.641              1.831              2.075
 Vibration     3          0.654              1.790              1.852
 Vibration     4          0.670              1.741              1.643
 Vibration     5          0.696              1.663              1.387
 Vibration     6          0.742              1.533              1.078
 Vibration     7          0.789              1.411              0.868
 Vibration     8          0.828              1.314              0.735
 Vibration     9          0.912              1.125              0.530
 Vibration    10          0.932              1.084              0.494

 Optimization completed.
    -- Stationary point found.
 Normal termination of Gaussian 09 at Mon Jan 27 13:44:51 2020.
