 Gaussian 09, Revision D.01,
 Gaussian 09:  ES64L-G09RevD.01 24-Apr-2013

 -----------------------------
 # b3lyp 6-31G(2df,p) opt Freq
 -----------------------------

 -----
 titel
 -----
 Symbolic Z-matrix:
 Charge =  0 Multiplicity = 1

 SCF Done:  E(RB3LYP) =  -423.111219992     A.U. after   12 cycles
 Optimization completed.
    -- Stationary point found.
 Normal termination of Gaussian 09 at Tue Jan 28 04:01:46 2020.

 ----------------------------------------------------------------------
 #N Geom=AllCheck Guess=TCheck SCRF=Check GenChk RB3LYP/6-31G(2df,p) Fr
 eq
 ----------------------------------------------------------------------

 Structure from the checkpoint file:  "/scratch/puck/g09_caa85040-97db-4ee9-b1a6-a152b39d7ebb/Gau-93619.chk"
 -----
 titel
 -----
 Charge =  0 Multiplicity = 1

                         Standard orientation:
 ---------------------------------------------------------------------
 Center     Atomic      Atomic             Coordinates (Angstroms)
 Number     Number       Type             X           Y           Z
 ---------------------------------------------------------------------
      1          6           0       -2.287629   -1.286076   -0.171064
      2          6           0       -1.551826   -0.132810    0.498102
      3          6           0       -1.717598    1.275171   -0.125899
      4          8           0       -0.295425    1.395813   -0.361599
      5          6           0       -0.074992    0.088700    0.159031
      6          6           0        1.098100   -0.309441    0.999132
      7          6           0        2.362043    0.275443    0.373149
      8          8           0        2.038926   -0.277493   -0.931614
      9          6           0        0.876558   -0.908153   -0.402645
     10          1           0       -1.967247   -2.253237    0.230870
     11          1           0       -3.366920   -1.202816   -0.004999
     12          1           0       -2.111133   -1.293210   -1.251360
     13          1           0       -1.735849   -0.137906    1.576719
     14          1           0       -2.285986    1.296971   -1.064080
     15          1           0       -2.087478    2.061619    0.540890
     16          1           0        1.013512   -0.731332    1.993533
     17          1           0        2.444263    1.367261    0.352935
     18          1           0        3.288280   -0.167662    0.754043
     19          1           0        0.632619   -1.903260   -0.761691
 ---------------------------------------------------------------------

 SCF Done:  E(RB3LYP) =  -423.111219992     A.U. after    1 cycles

 The electronic state is 1-A.
 Alpha  occ. eigenvalues --  -19.13571 -19.13480 -10.23972 -10.23718 -10.23294
 Alpha  occ. eigenvalues --  -10.23182 -10.20247 -10.19342 -10.18637  -1.05831
 Alpha  occ. eigenvalues --   -1.03293  -0.82782  -0.77882  -0.69855  -0.67545
 Alpha  occ. eigenvalues --   -0.63238  -0.55448  -0.54515  -0.50715  -0.49271
 Alpha  occ. eigenvalues --   -0.47295  -0.46281  -0.43508  -0.41804  -0.40795
 Alpha  occ. eigenvalues --   -0.40126  -0.37111  -0.35790  -0.33615  -0.32719
 Alpha  occ. eigenvalues --   -0.30511  -0.28814  -0.25167  -0.21699
 Alpha virt. eigenvalues --    0.05768   0.08512   0.09093   0.11414   0.12592
 Alpha virt. eigenvalues --    0.13854   0.14363   0.14961   0.15168   0.16150
 Alpha virt. eigenvalues --    0.16881   0.17693   0.18528   0.19043   0.20997

 Mulliken charges:
               1
     1  C   -0.408371
     2  C   -0.141045
     3  C   -0.080611
     4  O   -0.312131
     5  C    0.475658
     6  C   -0.248833
     7  C   -0.086995
     8  O   -0.283934
     9  C   -0.002105
    10  H    0.120719
    11  H    0.119901
    12  H    0.127223
    13  H    0.085126
    14  H    0.103693
    15  H    0.105377
    16  H    0.095390
    17  H    0.121288
    18  H    0.108710
    19  H    0.100939
 Sum of Mulliken charges =   0.00000

 Dipole moment (field-independent basis, Debye):
    X=             -1.8210    Y=             -1.2325    Z=              2.0782  Tot=              3.0256
 Quadrupole moment (field-independent basis, Debye-Ang):
   XX=            -50.4344   YY=            -53.4059   ZZ=            -53.8707
   XY=             -0.1688   XZ=              3.7756   YZ=              0.8455

  Exact polarizability:  90.325  -0.794  71.080   3.462   1.408  64.939
 Approx polarizability: 114.555  -1.515 103.339   1.912   2.513 104.426

                      1                      2                      3
                      A                      A                      A
 Frequencies --     65.4941               141.0572               154.9006
 Red. masses --      2.7346                 3.7828                 3.1727
 Frc consts  --      0.0069                 0.0443                 0.0449
 IR Inten    --      2.7228                 0.4402                 1.0165

                      4                      5                      6
                      A                      A                      A
 Frequencies --    239.5157               240.1127               287.4945
 Red. masses --      1.1572                 4.3325                 2.1911
 Frc consts  --      0.0391                 0.1472                 0.1067
 IR Inten    --      0.7523                 1.8231                 1.9593

                      7                      8                      9
                      A                      A                      A
 Frequencies --    406.3707               471.2304               540.6821
 Red. masses --      2.3902                 3.5606                 2.7749
 Frc consts  --      0.2326                 0.4658                 0.4780
 IR Inten    --      0.6334                 1.2688                 0.8043

                     10                     11                     12
                      A                      A                      A
 Frequencies --    604.5672               749.3954               775.8137
 Red. masses --      4.6103                 2.8755                 2.3939
 Frc consts  --      0.9928                 0.9514                 0.8489
 IR Inten    --      9.5051                 2.3508                12.7682

                     13                     14                     15
                      A                      A                      A
 Frequencies --    819.9957               888.2178               896.7232
 Red. masses --      2.3397                 2.4416                 2.4783
 Frc consts  --      0.9269                 1.1349                 1.1742
 IR Inten    --     10.3225                 7.3085                 5.8731

                     16                     17                     18
                      A                      A                      A
 Frequencies --    924.9170               953.0126               964.1440
 Red. masses --      1.2941                 2.7286                 1.5774
 Frc consts  --      0.6523                 1.4601                 0.8639
 IR Inten    --      7.9673                28.1621                 3.5851

                     19                     20                     21
                      A                      A                      A
 Frequencies --    999.8299              1012.6431              1025.9868
 Red. masses --      1.8668                 6.8174                 3.2054
 Frc consts  --      1.0995                 4.1189                 1.9880
 IR Inten    --     15.1233               143.0888                16.8258

                     22                     23                     24
                      A                      A                      A
 Frequencies --   1053.9235              1066.8949              1093.2957
 Red. masses --      2.6090                 2.3304                 2.6463
 Frc consts  --      1.7074                 1.5629                 1.8637
 IR Inten    --     28.2683                 8.9750                11.7995

                     25                     26                     27
                      A                      A                      A
 Frequencies --   1125.9892              1151.3492              1159.3255
 Red. masses --      1.9321                 1.4928                 1.2423
 Frc consts  --      1.4433                 1.1659                 0.9838
 IR Inten    --      2.8423                10.4489                 5.5553

                     28                     29                     30
                      A                      A                      A
 Frequencies --   1181.5292              1191.0466              1219.8880
 Red. masses --      1.7759                 1.7852                 1.9586
 Frc consts  --      1.4607                 1.4921                 1.7172
 IR Inten    --      7.2096                 0.2391                18.7511

                     31                     32                     33
                      A                      A                      A
 Frequencies --   1240.1845              1271.5381              1330.4725
 Red. masses --      1.4218                 1.5065                 1.5606
 Frc consts  --      1.2884                 1.4351                 1.6276
 IR Inten    --     14.7217                 0.2981                 7.5847

                     34                     35                     36
                      A                      A                      A
 Frequencies --   1340.4082              1379.0822              1412.9277
 Red. masses --      1.3427                 1.6600                 1.2454
 Frc consts  --      1.4213                 1.8601                 1.4648
 IR Inten    --      3.1776                 1.9321                 2.5762

                     37                     38                     39
                      A                      A                      A
 Frequencies --   1437.5825              1496.4847              1500.2919
 Red. masses --      3.5391                 1.0502                 1.0568
 Frc consts  --      4.3093                 1.3857                 1.4015
 IR Inten    --     18.2073                 5.5018                 3.3961

                     40                     41                     42
                      A                      A                      A
 Frequencies --   1509.4559              1527.6826              3019.3417
 Red. masses --      1.1028                 1.1371                 1.0560
 Frc consts  --      1.4804                 1.5636                 5.6718
 IR Inten    --      0.3432                 2.3178                74.9813

                     43                     44                     45
                      A                      A                      A
 Frequencies --   3031.7986              3034.1282              3052.9970
 Red. masses --      1.0357                 1.0546                 1.0903
 Frc consts  --      5.6090                 5.7199                 5.9876
 IR Inten    --     28.7183                62.9908                 5.4185

                     46                     47                     48
                      A                      A                      A
 Frequencies --   3072.5242              3086.4058              3097.5146
 Red. masses --      1.1054                 1.1117                 1.1010
 Frc consts  --      6.1486                 6.2396                 6.2241
 IR Inten    --     49.0165                28.1103                23.6605

                     49                     50                     51
                      A                      A                      A
 Frequencies --   3108.0550              3156.4947              3180.1355
 Red. masses --      1.1018                 1.0902                 1.0956
 Frc consts  --      6.2708                 6.3999                 6.5280
 IR Inten    --     31.8401                22.0710                11.6975

 - Thermochemistry -
 -------------------
 Temperature   298.150 Kelvin.  Pressure   1.00000 Atm.
 Atom     1 has atomic number  6 and mass  12.00000

 Molecular mass:   126.06808 amu.
 Principal axes and moments of inertia in atomic units:
                           1         2         3
     Eigenvalues --   536.742221366.198021573.76972
           X            0.99958   0.02167   0.01920
           Y           -0.02200   0.99961   0.01725
           Z           -0.01882  -0.01767   0.99967
 This molecule is an asymmetric top.
 Rotational symmetry number  1.
 Warning -- assumption of classical behavior for rotation
           may cause significant error
 Rotational temperatures (Kelvin)      0.16137     0.06340     0.05504
 Rotational constants (GHZ):           3.36240     1.32100     1.14676
 Zero-point vibrational energy     416843.9 (Joules/Mol)
                                   99.62807 (Kcal/Mol)
 Warning -- explicit consideration of  10 degrees of freedom as
           vibrations may cause significant error
 Vibrational temperatures:     94.23   202.95   222.87   344.61   345.47
          (Kelvin)            413.64   584.68   677.99   777.92   869.84
                             1078.21  1116.22  1179.79  1277.95  1290.18
                             1330.75  1371.17  1387.19  1438.53  1456.97
                             1476.16  1516.36  1535.02  1573.01  1620.05
                             1656.53  1668.01  1699.95  1713.65  1755.14
                             1784.35  1829.46  1914.25  1928.55  1984.19
                             2032.89  2068.36  2153.10  2158.58  2171.77
                             2197.99  4344.15  4362.08  4365.43  4392.58
                             4420.67  4440.64  4456.63  4471.79  4541.49
                             4575.50

 Zero-point correction=                           0.158767 (Hartree/Particle)
 Thermal correction to Energy=                    0.166926
 Thermal correction to Enthalpy=                  0.167870
 Thermal correction to Gibbs Free Energy=         0.125734
 Sum of electronic and zero-point Energies=           -422.952453
 Sum of electronic and thermal Energies=              -422.944294
 Sum of electronic and thermal Enthalpies=            -422.943350
 Sum of electronic and thermal Free Energies=         -422.985486

                     E (Thermal)             CV                S
                      KCal/Mol        Cal/Mol-Kelvin    Cal/Mol-Kelvin
 Total                  104.748             30.900             88.682
 Electronic               0.000              0.000              0.000
 Translational            0.889              2.981             40.409
 Rotational               0.889              2.981             28.536
 Vibrational            102.970             24.938             19.738
 Vibration     1          0.597              1.971              4.284
 Vibration     2          0.615              1.912              2.789
 Vibration     3          0.620              1.897              2.611
 Vibration     4          0.657              1.780              1.806
 Vibration     5          0.657              1.779              1.802
 Vibration     6          0.685              1.697              1.489
 Vibration     7          0.771              1.456              0.940
 Vibration     8          0.828              1.314              0.734
 Vibration     9          0.896              1.160              0.564
 Vibration    10          0.963              1.022              0.442

 Normal termination of Gaussian 09 at Tue Jan 28 04:44:24 2020.
