 Gaussian 09, Revision D.01,
 Gaussian 09:  ES64L-G09RevD.01 24-Apr-2013

 -----------------------------
 # b3lyp 6-31G(2df,p) opt Freq
 -----------------------------

 -----
 titel
 -----
 Symbolic Z-matrix:
 Charge =  0 Multiplicity = 1

 SCF Done:  E(RB3LYP) =  -423.158541526     A.U. after   13 cycles
 Optimization completed.
    -- Stationary point found.
 Normal termination of Gaussian 09 at Mon Jan 27 18:42:06 2020.

 ----------------------------------------------------------------------
 #N Geom=AllCheck Guess=TCheck SCRF=Check GenChk RB3LYP/6-31G(2df,p) Fr
 eq
 ----------------------------------------------------------------------

 Structure from the checkpoint file:  "/scratch/puck/g09_eb19bc6c-9681-4db9-a7d8-330e584e5cd1/Gau-54455.chk"
 -----
 titel
 -----
 Charge =  0 Multiplicity = 1

                         Standard orientation:
 ---------------------------------------------------------------------
 Center     Atomic      Atomic             Coordinates (Angstroms)
 Number     Number       Type             X           Y           Z
 ---------------------------------------------------------------------
      1          6           0       -1.459228    1.597608   -0.625645
      2          6           0       -0.730227    0.461877    0.057326
      3          6           0       -1.593583   -0.655635    0.701521
      4          8           0       -1.031976   -1.657155   -0.175974
      5          6           0       -0.128015   -0.704630   -0.775132
      6          6           0        1.289874   -0.846505   -0.269714
      7          6           0        2.215333    0.332807   -0.506510
      8          6           0        1.456036    0.204542    0.787709
      9          8           0        0.288933    0.986953    0.906440
     10          1           0       -2.245657    1.214964   -1.282739
     11          1           0       -1.921377    2.253351    0.119313
     12          1           0       -0.765419    2.199029   -1.220536
     13          1           0       -1.362870   -0.840735    1.756662
     14          1           0       -2.678153   -0.563987    0.569908
     15          1           0       -0.226804   -0.685832   -1.866587
     16          1           0        1.696666   -1.846126   -0.173042
     17          1           0        3.281749    0.133749   -0.503874
     18          1           0        1.901278    1.114401   -1.191549
     19          1           0        1.963789    0.042418    1.731381
 ---------------------------------------------------------------------

 SCF Done:  E(RB3LYP) =  -423.158541526     A.U. after    1 cycles

 The electronic state is 1-A.
 Alpha  occ. eigenvalues --  -19.14420 -19.13325 -10.24274 -10.23676 -10.23531
 Alpha  occ. eigenvalues --  -10.22457 -10.19292 -10.18978 -10.18260  -1.05961
 Alpha  occ. eigenvalues --   -1.02274  -0.85302  -0.77014  -0.70242  -0.67481
 Alpha  occ. eigenvalues --   -0.61089  -0.58655  -0.55049  -0.52201  -0.49214
 Alpha  occ. eigenvalues --   -0.46622  -0.45058  -0.42898  -0.40886  -0.40639
 Alpha  occ. eigenvalues --   -0.40237  -0.38437  -0.37359  -0.35533  -0.31299
 Alpha  occ. eigenvalues --   -0.30057  -0.28622  -0.25231  -0.23439
 Alpha virt. eigenvalues --    0.06966   0.09829   0.10080   0.10798   0.12246
 Alpha virt. eigenvalues --    0.13910   0.14269   0.15317   0.16360   0.16906
 Alpha virt. eigenvalues --    0.17540   0.18107   0.20153   0.20796   0.22281

 Mulliken charges:
               1
     1  C   -0.457939
     2  C    0.345438
     3  C   -0.116144
     4  O   -0.295596
     5  C    0.055512
     6  C   -0.093903
     7  C   -0.327142
     8  C    0.097250
     9  O   -0.307703
    10  H    0.123268
    11  H    0.130970
    12  H    0.123984
    13  H    0.105764
    14  H    0.099738
    15  H    0.077467
    16  H    0.104350
    17  H    0.116742
    18  H    0.116944
    19  H    0.100999
 Sum of Mulliken charges =   0.00000

 Dipole moment (field-independent basis, Debye):
    X=              0.4724    Y=              0.6404    Z=             -0.4778  Tot=              0.9282
 Quadrupole moment (field-independent basis, Debye-Ang):
   XX=            -48.9049   YY=            -57.9486   ZZ=            -52.2117
   XY=             -3.6008   XZ=             -0.1953   YZ=             -2.5689

  Exact polarizability:  85.707  -0.782  67.970  -2.185  -2.168  67.531
 Approx polarizability: 112.732   1.912 102.774  -3.405   1.519 103.829

                      1                      2                      3
                      A                      A                      A
 Frequencies --     72.9729               197.3435               212.2682
 Red. masses --      3.3541                 3.2554                 1.0943
 Frc consts  --      0.0105                 0.0747                 0.0291
 IR Inten    --      3.5216                 2.1769                 0.3909

                      4                      5                      6
                      A                      A                      A
 Frequencies --    258.0885               331.3627               379.9793
 Red. masses --      2.2435                 2.3150                 2.7584
 Frc consts  --      0.0880                 0.1498                 0.2347
 IR Inten    --      0.3073                 0.6539                 3.1736

                      7                      8                      9
                      A                      A                      A
 Frequencies --    407.3444               465.7152               610.9451
 Red. masses --      3.9758                 3.1278                 3.5222
 Frc consts  --      0.3887                 0.3997                 0.7746
 IR Inten    --      3.0679                 4.3410                 0.8951

                     10                     11                     12
                      A                      A                      A
 Frequencies --    651.8867               719.4215               802.2844
 Red. masses --      4.2587                 3.8438                 1.9958
 Frc consts  --      1.0663                 1.1721                 0.7569
 IR Inten    --      6.1748                 0.5304                12.2539

                     13                     14                     15
                      A                      A                      A
 Frequencies --    811.4652               877.3210               889.9843
 Red. masses --      1.6309                 1.8475                 2.7263
 Frc consts  --      0.6327                 0.8378                 1.2723
 IR Inten    --     14.4299                 2.5278                11.7345

                     16                     17                     18
                      A                      A                      A
 Frequencies --    893.8810               940.9680               948.2559
 Red. masses --      2.5516                 2.0798                 1.5475
 Frc consts  --      1.2012                 1.0850                 0.8198
 IR Inten    --      7.5771                12.0854                 1.0885

                     19                     20                     21
                      A                      A                      A
 Frequencies --    993.6319              1006.0862              1017.7209
 Red. masses --      2.6145                 2.3793                 4.1504
 Frc consts  --      1.5209                 1.4189                 2.5328
 IR Inten    --     12.8354                 9.2783                45.5752

                     22                     23                     24
                      A                      A                      A
 Frequencies --   1044.1787              1059.7194              1076.0634
 Red. masses --      2.5541                 1.8777                 1.3942
 Frc consts  --      1.6407                 1.2424                 0.9512
 IR Inten    --     66.4895                16.6365                 4.0861

                     25                     26                     27
                      A                      A                      A
 Frequencies --   1101.9692              1142.1547              1150.4892
 Red. masses --      1.3317                 2.5396                 1.2866
 Frc consts  --      0.9528                 1.9519                 1.0034
 IR Inten    --      3.1718                73.1055                 1.7951

                     28                     29                     30
                      A                      A                      A
 Frequencies --   1177.8442              1195.3100              1203.5378
 Red. masses --      1.9715                 2.0907                 2.5131
 Frc consts  --      1.6114                 1.7600                 2.1448
 IR Inten    --      0.0905                 7.2303                51.7110

                     31                     32                     33
                      A                      A                      A
 Frequencies --   1213.5292              1286.0532              1312.4361
 Red. masses --      1.9956                 1.5294                 1.3321
 Frc consts  --      1.7315                 1.4903                 1.3519
 IR Inten    --     21.4599                11.1081                 4.8655

                     34                     35                     36
                      A                      A                      A
 Frequencies --   1341.1778              1366.7969              1378.1065
 Red. masses --      2.1287                 1.6403                 1.8654
 Frc consts  --      2.2560                 1.8055                 2.0874
 IR Inten    --     15.3573                 8.7473                 7.6995

                     37                     38                     39
                      A                      A                      A
 Frequencies --   1411.2440              1474.6166              1482.9790
 Red. masses --      1.3475                 1.2592                 1.0608
 Frc consts  --      1.5812                 1.6133                 1.3745
 IR Inten    --      9.4007                 5.8159                 5.2608

                     40                     41                     42
                      A                      A                      A
 Frequencies --   1490.8907              1513.3414              3020.5649
 Red. masses --      1.0587                 1.0972                 1.0550
 Frc consts  --      1.3865                 1.4805                 5.6713
 IR Inten    --      2.2043                 0.9973                64.4195

                     43                     44                     45
                      A                      A                      A
 Frequencies --   3037.3289              3043.2916              3074.2505
 Red. masses --      1.0442                 1.0769                 1.1113
 Frc consts  --      5.6757                 5.8767                 6.1882
 IR Inten    --     13.6030                37.4198                33.4614

                     46                     47                     48
                      A                      A                      A
 Frequencies --   3109.7817              3117.1441              3125.3046
 Red. masses --      1.1014                 1.1019                 1.0542
 Frc consts  --      6.2755                 6.3085                 6.0665
 IR Inten    --     15.7376                19.5077                12.3778

                     49                     50                     51
                      A                      A                      A
 Frequencies --   3176.5644              3185.4089              3215.5809
 Red. masses --      1.0892                 1.0956                 1.1155
 Frc consts  --      6.4756                 6.5500                 6.7960
 IR Inten    --     15.7226                 8.0499                11.8435

 - Thermochemistry -
 -------------------
 Temperature   298.150 Kelvin.  Pressure   1.00000 Atm.
 Atom     1 has atomic number  6 and mass  12.00000

 Molecular mass:   126.06808 amu.
 Principal axes and moments of inertia in atomic units:
                           1         2         3
     Eigenvalues --   675.413141010.142301276.24392
           X            0.99765  -0.06848  -0.00144
           Y            0.06819   0.99497  -0.07337
           Z            0.00645   0.07310   0.99730
 This molecule is an asymmetric top.
 Rotational symmetry number  1.
 Warning -- assumption of classical behavior for rotation
           may cause significant error
 Rotational temperatures (Kelvin)      0.12824     0.08574     0.06787
 Rotational constants (GHZ):           2.67206     1.78662     1.41410
 Zero-point vibrational energy     418792.2 (Joules/Mol)
                                  100.09373 (Kcal/Mol)
 Warning -- explicit consideration of   9 degrees of freedom as
           vibrations may cause significant error
 Vibrational temperatures:    104.99   283.93   305.41   371.33   476.76
          (Kelvin)            546.70   586.08   670.06   879.01   937.92
                             1035.09  1154.31  1167.52  1262.27  1280.49
                             1286.09  1353.84  1364.33  1429.61  1447.53
                             1464.27  1502.34  1524.70  1548.21  1585.49
                             1643.30  1655.30  1694.65  1719.78  1731.62
                             1746.00  1850.34  1888.30  1929.65  1966.51
                             1982.79  2030.46  2121.64  2133.67  2145.06
                             2177.36  4345.91  4370.03  4378.61  4423.16
                             4474.28  4484.87  4496.61  4570.36  4583.09
                             4626.50

 Zero-point correction=                           0.159510 (Hartree/Particle)
 Thermal correction to Energy=                    0.167189
 Thermal correction to Enthalpy=                  0.168134
 Thermal correction to Gibbs Free Energy=         0.127393
 Sum of electronic and zero-point Energies=           -422.999032
 Sum of electronic and thermal Energies=              -422.991352
 Sum of electronic and thermal Enthalpies=            -422.990408
 Sum of electronic and thermal Free Energies=         -423.031148

                     E (Thermal)             CV                S
                      KCal/Mol        Cal/Mol-Kelvin    Cal/Mol-Kelvin
 Total                  104.913             30.415             85.745
 Electronic               0.000              0.000              0.000
 Translational            0.889              2.981             40.409
 Rotational               0.889              2.981             28.256
 Vibrational            103.135             24.454             17.080
 Vibration     1          0.599              1.967              4.072
 Vibration     2          0.637              1.844              2.158
 Vibration     3          0.643              1.822              2.024
 Vibration     4          0.667              1.749              1.675
 Vibration     5          0.714              1.613              1.253
 Vibration     6          0.750              1.513              1.039
 Vibration     7          0.772              1.454              0.936
 Vibration     8          0.823              1.326              0.750
 Vibration     9          0.970              1.009              0.431

 Optimization completed.
    -- Stationary point found.
 Normal termination of Gaussian 09 at Mon Jan 27 19:26:43 2020.
