 Gaussian 09, Revision D.01,
 Gaussian 09:  ES64L-G09RevD.01 24-Apr-2013

 -----------------------------
 # b3lyp 6-31G(2df,p) opt Freq
 -----------------------------

 -----
 titel
 -----
 Symbolic Z-matrix:
 Charge =  0 Multiplicity = 1

 SCF Done:  E(RB3LYP) =  -423.191139511     A.U. after   14 cycles
 Optimization completed.
    -- Stationary point found.
 Normal termination of Gaussian 09 at Mon Jan 27 22:08:16 2020.

 ----------------------------------------------------------------------
 #N Geom=AllCheck Guess=TCheck SCRF=Check GenChk RB3LYP/6-31G(2df,p) Fr
 eq
 ----------------------------------------------------------------------

 Structure from the checkpoint file:  "/scratch/puck/g09_4d158f64-f231-4f37-aee4-8d072fb2a7d7/Gau-51103.chk"
 -----
 titel
 -----
 Charge =  0 Multiplicity = 1

                         Standard orientation:
 ---------------------------------------------------------------------
 Center     Atomic      Atomic             Coordinates (Angstroms)
 Number     Number       Type             X           Y           Z
 ---------------------------------------------------------------------
      1          6           0       -0.364078    2.130665    0.215640
      2          6           0       -0.242409    0.802468   -0.529670
      3          6           0       -1.338166   -0.214533   -0.119633
      4          8           0       -2.531243   -0.100795   -0.158988
      5          6           0       -0.465524   -1.368921    0.393787
      6          6           0        0.595159   -1.481173   -0.721686
      7          6           0        0.958250   -0.095051   -0.125873
      8          6           0        2.351725    0.464351   -0.127650
      9          8           0        0.495886   -0.601692    1.187535
     10          1           0        0.367189    2.861455   -0.142752
     11          1           0       -1.363961    2.548572    0.068010
     12          1           0       -0.213111    1.980305    1.288336
     13          1           0       -0.286056    0.967912   -1.612980
     14          1           0       -0.933402   -2.207806    0.904239
     15          1           0        1.346303   -2.236287   -0.484282
     16          1           0        0.273081   -1.546933   -1.764664
     17          1           0        2.418122    1.348813    0.512884
     18          1           0        3.065423   -0.279654    0.236349
     19          1           0        2.639534    0.756676   -1.143002
 ---------------------------------------------------------------------

 SCF Done:  E(RB3LYP) =  -423.191139511     A.U. after    1 cycles

 The electronic state is 1-A.
 Alpha  occ. eigenvalues --  -19.14800 -19.13788 -10.26838 -10.25457 -10.24595
 Alpha  occ. eigenvalues --  -10.20266 -10.19846 -10.19030 -10.18151  -1.06478
 Alpha  occ. eigenvalues --   -1.04102  -0.81125  -0.75934  -0.75049  -0.66491
 Alpha  occ. eigenvalues --   -0.65389  -0.55133  -0.53139  -0.49697  -0.48054
 Alpha  occ. eigenvalues --   -0.46127  -0.45347  -0.43194  -0.41870  -0.39808
 Alpha  occ. eigenvalues --   -0.39340  -0.38935  -0.37313  -0.36274  -0.35128
 Alpha  occ. eigenvalues --   -0.32975  -0.32487  -0.28170  -0.22842
 Alpha virt. eigenvalues --   -0.01696   0.08061   0.09136   0.11765   0.12250
 Alpha virt. eigenvalues --    0.12789   0.14485   0.14597   0.15593   0.16256
 Alpha virt. eigenvalues --    0.17138   0.17454   0.18471   0.18946   0.21417

 Mulliken charges:
               1
     1  C   -0.419122
     2  C   -0.141250
     3  C    0.447713
     4  O   -0.334738
     5  C   -0.036635
     6  C   -0.291474
     7  C    0.404636
     8  C   -0.498961
     9  O   -0.330545
    10  H    0.115387
    11  H    0.136995
    12  H    0.136279
    13  H    0.094005
    14  H    0.098382
    15  H    0.117783
    16  H    0.107552
    17  H    0.137341
    18  H    0.130421
    19  H    0.126229
 Sum of Mulliken charges =   0.00000

 Dipole moment (field-independent basis, Debye):
    X=              2.6973    Y=             -0.1668    Z=             -1.5122  Tot=              3.0968
 Quadrupole moment (field-independent basis, Debye-Ang):
   XX=            -59.9040   YY=            -49.5535   ZZ=            -53.9741
   XY=              0.7023   XZ=             -1.9662   YZ=              0.4054

  Exact polarizability:  83.258   0.487  79.057  -1.147  -0.802  62.432
 Approx polarizability: 122.858   0.788 107.555   1.037  -2.736 102.929
