 Gaussian 09, Revision D.01,
 Gaussian 09:  ES64L-G09RevD.01 24-Apr-2013

 -----------------------------
 # b3lyp 6-31G(2df,p) opt Freq
 -----------------------------

 -----
 titel
 -----
 Symbolic Z-matrix:
 Charge =  0 Multiplicity = 1

 SCF Done:  E(RB3LYP) =  -423.129697619     A.U. after   14 cycles
 Optimization completed.
    -- Stationary point found.
 Normal termination of Gaussian 09 at Tue Jan 28 08:11:32 2020.

 ----------------------------------------------------------------------
 #N Geom=AllCheck Guess=TCheck SCRF=Check GenChk RB3LYP/6-31G(2df,p) Fr
 eq
 ----------------------------------------------------------------------

 Structure from the checkpoint file:  "/scratch/puck/g09_a14e13d7-59d5-4e90-9e15-b37364c78c04/Gau-102035.chk"
 -----
 titel
 -----
 Charge =  0 Multiplicity = 1

                         Standard orientation:
 ---------------------------------------------------------------------
 Center     Atomic      Atomic             Coordinates (Angstroms)
 Number     Number       Type             X           Y           Z
 ---------------------------------------------------------------------
      1          6           0       -4.305232    0.220122    0.191189
      2          6           0       -3.248397   -0.778516   -0.315962
      3          6           0       -1.880225   -0.356850   -0.038126
      4          6           0       -0.757265    0.013675    0.194656
      5          6           0        0.579553    0.442056    0.499280
      6          8           0        1.118858    1.551152   -0.248688
      7          6           0        1.702018    0.270192   -0.451991
      8          6           0        3.122758    0.087129    0.033639
      9          8           0        3.499077   -1.278607    0.055085
     10          1           0       -5.311187   -0.141592   -0.040959
     11          1           0       -4.226989    0.352777    1.273519
     12          1           0       -4.172186    1.197829   -0.279177
     13          1           0       -3.420995   -1.761495    0.141034
     14          1           0       -3.367886   -0.924700   -1.397007
     15          1           0        0.829933    0.481196    1.560389
     16          1           0        1.475678   -0.190583   -1.414031
     17          1           0        3.812977    0.579757   -0.659470
     18          1           0        3.238289    0.574196    1.013969
     19          1           0        2.919624   -1.734597    0.674448
 ---------------------------------------------------------------------

 SCF Done:  E(RB3LYP) =  -423.129697619     A.U. after    1 cycles

 The electronic state is 1-A.
 Alpha  occ. eigenvalues --  -19.15893 -19.14439 -10.26025 -10.24257 -10.23602
 Alpha  occ. eigenvalues --  -10.21323 -10.18639 -10.18445 -10.17636  -1.07922
 Alpha  occ. eigenvalues --   -1.02476  -0.80238  -0.74981  -0.72924  -0.67982
 Alpha  occ. eigenvalues --   -0.63535  -0.60908  -0.54572  -0.50447  -0.48400
 Alpha  occ. eigenvalues --   -0.47250  -0.46034  -0.44068  -0.41667  -0.40492
 Alpha  occ. eigenvalues --   -0.39982  -0.37474  -0.36664  -0.34595  -0.33284
 Alpha  occ. eigenvalues --   -0.29357  -0.26982  -0.26306  -0.24852
 Alpha virt. eigenvalues --    0.02350   0.04026   0.06521   0.09937   0.12447
 Alpha virt. eigenvalues --    0.13064   0.13324   0.14484   0.14831   0.15404
 Alpha virt. eigenvalues --    0.16622   0.17888   0.18120   0.20450   0.21382

 Mulliken charges:
               1
     1  C   -0.365488
     2  C   -0.319636
     3  C    0.154141
     4  C    0.043087
     5  C   -0.180044
     6  O   -0.237810
     7  C    0.040938
     8  C   -0.100832
     9  O   -0.408413
    10  H    0.116771
    11  H    0.129446
    12  H    0.133817
    13  H    0.132616
    14  H    0.134924
    15  H    0.109383
    16  H    0.108100
    17  H    0.123478
    18  H    0.098490
    19  H    0.287032
 Sum of Mulliken charges =   0.00000

 Dipole moment (field-independent basis, Debye):
    X=             -1.7478    Y=             -1.3468    Z=              0.9872  Tot=              2.4173
 Quadrupole moment (field-independent basis, Debye-Ang):
   XX=            -51.1708   YY=            -56.2789   ZZ=            -50.6088
   XY=              3.4508   XZ=              2.9773   YZ=             -0.7316

  Exact polarizability: 123.814   8.407  64.912   0.379   1.560  62.782
 Approx polarizability: 157.299  18.239 101.345   1.742   1.884  94.596

                      1                      2                      3
                      A                      A                      A
 Frequencies --     13.2952                60.7120                92.7571
 Red. masses --      2.5234                 4.8816                 3.9148
 Frc consts  --      0.0003                 0.0106                 0.0198
 IR Inten    --      0.0888                 0.1239                 1.7494

                      4                      5                      6
                      A                      A                      A
 Frequencies --    103.4247               154.6265               207.6989
 Red. masses --      2.5456                 3.4375                 1.5494
 Frc consts  --      0.0160                 0.0484                 0.0394
 IR Inten    --      4.2963                 1.4654                 2.8412

                      7                      8                      9
                      A                      A                      A
 Frequencies --    248.0691               318.1308               342.6663
 Red. masses --      1.9657                 2.0225                 2.2108
 Frc consts  --      0.0713                 0.1206                 0.1529
 IR Inten    --      3.5944                73.5187                 4.3804

                     10                     11                     12
                      A                      A                      A
 Frequencies --    362.4492               459.8788               473.0213
 Red. masses --      1.7992                 5.5723                 4.5568
 Frc consts  --      0.1393                 0.6943                 0.6007
 IR Inten    --     52.2689                 1.8006                 8.2524

                     13                     14                     15
                      A                      A                      A
 Frequencies --    483.7019               562.2743               768.4700
 Red. masses --      6.6767                 6.4275                 3.0047
 Frc consts  --      0.9204                 1.1973                 1.0454
 IR Inten    --      1.1426                 6.2552                10.2208

                     16                     17                     18
                      A                      A                      A
 Frequencies --    784.6261               821.3393               877.0484
 Red. masses --      1.1964                 5.1404                 2.9365
 Frc consts  --      0.4340                 2.0431                 1.3308
 IR Inten    --      2.6743                28.0582                23.6254

                     19                     20                     21
                      A                      A                      A
 Frequencies --    959.1249               985.0384              1064.0441
 Red. masses --      2.4236                 2.2309                 2.3834
 Frc consts  --      1.3136                 1.2754                 1.5899
 IR Inten    --      6.9297                14.7675                22.1997

                     22                     23                     24
                      A                      A                      A
 Frequencies --   1076.1681              1082.1127              1103.5109
 Red. masses --      2.5113                 2.1236                 1.4772
 Frc consts  --      1.7136                 1.4651                 1.0598
 IR Inten    --     70.7244                28.8109                 0.2221

                     25                     26                     27
                      A                      A                      A
 Frequencies --   1121.1940              1143.6168              1177.5925
 Red. masses --      1.3662                 1.6636                 2.8297
 Frc consts  --      1.0119                 1.2819                 2.3119
 IR Inten    --      2.1695                 0.9046                 7.8581

                     28                     29                     30
                      A                      A                      A
 Frequencies --   1216.4992              1264.7990              1285.6038
 Red. masses --      1.2996                 1.4381                 1.1483
 Frc consts  --      1.1332                 1.3555                 1.1182
 IR Inten    --     14.4864                 2.0888                 0.0255

                     31                     32                     33
                      A                      A                      A
 Frequencies --   1339.8277              1349.5794              1367.9445
 Red. masses --      1.2868                 1.4914                 1.2627
 Frc consts  --      1.3610                 1.6004                 1.3922
 IR Inten    --     30.5343                20.0719                14.9250

                     34                     35                     36
                      A                      A                      A
 Frequencies --   1409.3406              1415.2009              1467.8631
 Red. masses --      1.2100                 1.2525                 2.7590
 Frc consts  --      1.4161                 1.4780                 3.5025
 IR Inten    --      1.1015                53.9491                10.2489

                     37                     38                     39
                      A                      A                      A
 Frequencies --   1471.9345              1494.5000              1504.9600
 Red. masses --      1.0740                 1.0396                 1.0809
 Frc consts  --      1.3710                 1.3680                 1.4424
 IR Inten    --      3.6939                 4.6581                 2.5272

                     40                     41                     42
                      A                      A                      A
 Frequencies --   1505.3377              2363.8842              2992.5584
 Red. masses --      1.0643                11.8743                 1.0685
 Frc consts  --      1.4209                39.0940                 5.6380
 IR Inten    --      0.5009                13.5004                43.3147

                     43                     44                     45
                      A                      A                      A
 Frequencies --   3021.8496              3046.2479              3050.0320
 Red. masses --      1.0589                 1.0344                 1.1007
 Frc consts  --      5.6973                 5.6557                 6.0328
 IR Inten    --     21.0168                30.4617                 7.9497

                     46                     47                     48
                      A                      A                      A
 Frequencies --   3075.3183              3096.6602              3117.4333
 Red. masses --      1.0934                 1.0859                 1.0885
 Frc consts  --      6.0928                 6.1354                 6.2326
 IR Inten    --     23.7333                17.9166                25.7291

                     49                     50                     51
                      A                      A                      A
 Frequencies --   3120.1919              3126.6025              3811.9220
 Red. masses --      1.1022                 1.1030                 1.0662
 Frc consts  --      6.3221                 6.3529                 9.1278
 IR Inten    --     29.6530                22.6328                14.2602

 - Thermochemistry -
 -------------------
 Temperature   298.150 Kelvin.  Pressure   1.00000 Atm.
 Atom     1 has atomic number  6 and mass  12.00000

 Molecular mass:   126.06808 amu.
 Principal axes and moments of inertia in atomic units:
                           1         2         3
     Eigenvalues --   376.936743257.131433500.69147
           X            0.99999   0.00317   0.00245
           Y           -0.00321   0.99984   0.01757
           Z           -0.00239  -0.01758   0.99984
 This molecule is an asymmetric top.
 Rotational symmetry number  1.
 Rotational temperatures (Kelvin)      0.22978     0.02659     0.02474
 Rotational constants (GHZ):           4.78792     0.55409     0.51554
 Zero-point vibrational energy     411292.2 (Joules/Mol)
                                   98.30119 (Kcal/Mol)
 Warning -- explicit consideration of  14 degrees of freedom as
           vibrations may cause significant error
 Vibrational temperatures:     19.13    87.35   133.46   148.80   222.47
          (Kelvin)            298.83   356.92   457.72   493.02   521.48
                              661.66   680.57   695.94   808.99  1105.66
                             1128.90  1181.72  1261.88  1379.97  1417.25
                             1530.92  1548.36  1556.92  1587.70  1613.15
                             1645.41  1694.29  1750.27  1819.76  1849.69
                             1927.71  1941.74  1968.16  2027.72  2036.16
                             2111.92  2117.78  2150.25  2165.30  2165.84
                             3401.10  4305.62  4347.76  4382.87  4388.31
                             4424.69  4455.40  4485.29  4489.25  4498.48
                             5484.50

 Zero-point correction=                           0.156653 (Hartree/Particle)
 Thermal correction to Energy=                    0.167058
 Thermal correction to Enthalpy=                  0.168002
 Thermal correction to Gibbs Free Energy=         0.118787
 Sum of electronic and zero-point Energies=           -422.973045
 Sum of electronic and thermal Energies=              -422.962640
 Sum of electronic and thermal Enthalpies=            -422.961695
 Sum of electronic and thermal Free Energies=         -423.010911

                     E (Thermal)             CV                S
                      KCal/Mol        Cal/Mol-Kelvin    Cal/Mol-Kelvin
 Total                  104.830             35.887            103.582
 Electronic               0.000              0.000              0.000
 Translational            0.889              2.981             40.409
 Rotational               0.889              2.981             29.842
 Vibrational            103.053             29.925             33.331
 Vibration     1          0.593              1.987              7.445
 Vibration     2          0.597              1.973              4.434
 Vibration     3          0.602              1.954              3.601
 Vibration     4          0.605              1.946              3.389
 Vibration     5          0.620              1.898              2.615
 Vibration     6          0.641              1.829              2.064
 Vibration     7          0.662              1.766              1.744
 Vibration     8          0.705              1.639              1.320
 Vibration     9          0.722              1.590              1.200
 Vibration    10          0.736              1.550              1.112
 Vibration    11          0.818              1.339              0.766
 Vibration    12          0.830              1.310              0.729
 Vibration    13          0.840              1.286              0.700
 Vibration    14          0.918              1.113              0.519

 Optimization completed on the basis of negligible forces.
    -- Stationary point found.
 Normal termination of Gaussian 09 at Tue Jan 28 08:42:00 2020.
