 Gaussian 09, Revision D.01,
 Gaussian 09:  ES64L-G09RevD.01 24-Apr-2013

 -----------------------------
 # b3lyp 6-31G(2df,p) opt Freq
 -----------------------------

 -----
 titel
 -----
 Symbolic Z-matrix:
 Charge =  0 Multiplicity = 1

 SCF Done:  E(RB3LYP) =  -423.189666159     A.U. after   14 cycles
 Optimization completed.
    -- Stationary point found.
 Normal termination of Gaussian 09 at Mon Jan 27 13:15:48 2020.

 ----------------------------------------------------------------------
 #N Geom=AllCheck Guess=TCheck SCRF=Check GenChk RB3LYP/6-31G(2df,p) Fr
 eq
 ----------------------------------------------------------------------

 Structure from the checkpoint file:  "/scratch/puck/g09_68ccd511-aa1b-44fa-a9f1-c85eccbe434e/Gau-38295.chk"
 -----
 titel
 -----
 Charge =  0 Multiplicity = 1

                         Standard orientation:
 ---------------------------------------------------------------------
 Center     Atomic      Atomic             Coordinates (Angstroms)
 Number     Number       Type             X           Y           Z
 ---------------------------------------------------------------------
      1          8           0        2.874365    0.481845    0.123200
      2          6           0        2.036318   -0.304349   -0.236384
      3          6           0        0.554376   -0.125812   -0.022767
      4          6           0       -0.107804   -1.095988    0.993384
      5          6           0       -1.217798   -1.110133   -0.072901
      6          6           0       -2.187617    0.062143    0.121018
      7          6           0       -1.432906    1.390550   -0.141158
      8          6           0        0.073143    1.311428    0.212327
      9          8           0       -0.228836   -0.745444   -1.087961
     10          1           0        2.295353   -1.260909   -0.743149
     11          1           0        0.417718   -2.051368    1.058516
     12          1           0       -0.331377   -0.709976    1.989626
     13          1           0       -1.709314   -2.058192   -0.304062
     14          1           0       -3.034495   -0.020562   -0.567461
     15          1           0       -2.599918    0.017030    1.136312
     16          1           0       -1.510743    1.608662   -1.208629
     17          1           0       -1.910917    2.221497    0.384799
     18          1           0        0.645325    2.011008   -0.403496
     19          1           0        0.267869    1.584562    1.254521
 ---------------------------------------------------------------------

 SCF Done:  E(RB3LYP) =  -423.189666159     A.U. after    1 cycles

 The electronic state is 1-A.
 Alpha  occ. eigenvalues --  -19.14664 -19.14168 -10.27141 -10.24826 -10.24463
 Alpha  occ. eigenvalues --  -10.19985 -10.18917 -10.18800 -10.18705  -1.05746
 Alpha  occ. eigenvalues --   -1.04536  -0.80500  -0.76294  -0.74498  -0.65981
 Alpha  occ. eigenvalues --   -0.61923  -0.57992  -0.52891  -0.51032  -0.48015
 Alpha  occ. eigenvalues --   -0.47230  -0.45631  -0.44008  -0.41143  -0.40589
 Alpha  occ. eigenvalues --   -0.39622  -0.38232  -0.36055  -0.35379  -0.33776
 Alpha  occ. eigenvalues --   -0.31868  -0.31205  -0.26248  -0.24816
 Alpha virt. eigenvalues --   -0.03532   0.07393   0.09837   0.11051   0.12154
 Alpha virt. eigenvalues --    0.12575   0.13836   0.14725   0.15137   0.16022
 Alpha virt. eigenvalues --    0.16869   0.18315   0.20158   0.21737   0.22001

 Mulliken charges:
               1
     1  O   -0.249961
     2  C    0.086275
     3  C    0.322113
     4  C   -0.280222
     5  C    0.098269
     6  C   -0.224097
     7  C   -0.194108
     8  C   -0.268950
     9  O   -0.330651
    10  H    0.086419
    11  H    0.110894
    12  H    0.108675
    13  H    0.080848
    14  H    0.105855
    15  H    0.101306
    16  H    0.120824
    17  H    0.098523
    18  H    0.116515
    19  H    0.111474
 Sum of Mulliken charges =   0.00000

 Dipole moment (field-independent basis, Debye):
    X=             -2.5252    Y=             -0.8810    Z=              1.1048  Tot=              2.8937
 Quadrupole moment (field-independent basis, Debye-Ang):
   XX=            -59.0034   YY=            -51.4379   ZZ=            -53.8997
   XY=             -2.8662   XZ=             -1.5964   YZ=             -1.5892

  Exact polarizability:  86.481   2.052  75.326  -0.176   1.254  62.237
 Approx polarizability: 117.359  10.021 109.349   0.864   5.065 101.468

                      1                      2                      3
                      A                      A                      A
 Frequencies --     82.2463               159.0308               189.6648
 Red. masses --      4.2177                 1.8614                 3.9382
 Frc consts  --      0.0168                 0.0277                 0.0835
 IR Inten    --      5.5396                 1.5793                 4.6353

                      4                      5                      6
                      A                      A                      A
 Frequencies --    229.6510               357.3358               396.8246
 Red. masses --      2.1930                 2.1990                 2.3296
 Frc consts  --      0.0681                 0.1654                 0.2161
 IR Inten    --      1.7372                 1.0322                 1.2058

                      7                      8                      9
                      A                      A                      A
 Frequencies --    414.7615               442.1751               565.5054
 Red. masses --      4.0791                 4.2965                 5.5124
 Frc consts  --      0.4134                 0.4949                 1.0386
 IR Inten    --      0.3704                12.3314                 3.2095

                     10                     11                     12
                      A                      A                      A
 Frequencies --    627.8483               723.0894               764.0838
 Red. masses --      2.4261                 4.0217                 1.6418
 Frc consts  --      0.5635                 1.2389                 0.5647
 IR Inten    --      3.8982                25.7995                 0.2399

                     13                     14                     15
                      A                      A                      A
 Frequencies --    821.3962               843.6855               880.4418
 Red. masses --      2.7830                 1.9392                 2.7835
 Frc consts  --      1.1063                 0.8133                 1.2713
 IR Inten    --      1.0735                10.8512                13.6243

                     16                     17                     18
                      A                      A                      A
 Frequencies --    915.8394               928.6850               941.2846
 Red. masses --      2.2425                 2.7711                 3.3891
 Frc consts  --      1.1082                 1.4081                 1.7692
 IR Inten    --      4.2068                42.5833                12.6302

                     19                     20                     21
                      A                      A                      A
 Frequencies --    979.7953               993.9170              1029.9073
 Red. masses --      1.8893                 2.3018                 1.7345
 Frc consts  --      1.0686                 1.3397                 1.0840
 IR Inten    --     15.3725                29.3150                 0.5251

                     22                     23                     24
                      A                      A                      A
 Frequencies --   1044.9293              1091.4709              1110.1033
 Red. masses --      1.8662                 1.7044                 1.4882
 Frc consts  --      1.2006                 1.1963                 1.0805
 IR Inten    --      0.3950                 4.1816                 1.2560

                     25                     26                     27
                      A                      A                      A
 Frequencies --   1167.9766              1194.4683              1224.2932
 Red. masses --      1.9757                 1.6841                 1.6515
 Frc consts  --      1.5880                 1.4157                 1.4585
 IR Inten    --      2.8141                 3.8099                 0.5319

                     28                     29                     30
                      A                      A                      A
 Frequencies --   1236.8003              1248.2413              1274.5500
 Red. masses --      1.7714                 1.3724                 1.6902
 Frc consts  --      1.5965                 1.2599                 1.6177
 IR Inten    --      6.6998                 3.0759                 1.6538

                     31                     32                     33
                      A                      A                      A
 Frequencies --   1315.1522              1338.2677              1350.5228
 Red. masses --      1.4159                 1.5748                 1.4819
 Frc consts  --      1.4429                 1.6618                 1.5925
 IR Inten    --      3.4188                 6.6319                 0.7250

                     34                     35                     36
                      A                      A                      A
 Frequencies --   1365.4314              1382.8550              1403.9723
 Red. masses --      1.3992                 1.4114                 1.2560
 Frc consts  --      1.5369                 1.5902                 1.4587
 IR Inten    --      1.0765                 6.1862                 5.1100

                     37                     38                     39
                      A                      A                      A
 Frequencies --   1478.5445              1488.5221              1490.0528
 Red. masses --      1.0885                 1.0879                 1.1045
 Frc consts  --      1.4020                 1.4202                 1.4449
 IR Inten    --      0.5972                 2.6114                 5.3294

                     40                     41                     42
                      A                      A                      A
 Frequencies --   1506.4354              1828.8171              2889.1522
 Red. masses --      1.1021                10.8756                 1.0840
 Frc consts  --      1.4735                21.4310                 5.3313
 IR Inten    --      2.0958               153.5038                92.9268

                     43                     44                     45
                      A                      A                      A
 Frequencies --   3034.7462              3052.5137              3063.7871
 Red. masses --      1.0622                 1.0613                 1.0674
 Frc consts  --      5.7636                 5.8262                 5.9034
 IR Inten    --     23.0301                16.1234                19.0788

                     46                     47                     48
                      A                      A                      A
 Frequencies --   3066.9743              3075.2700              3085.9221
 Red. masses --      1.0601                 1.0919                 1.0899
 Frc consts  --      5.8750                 6.0842                 6.1154
 IR Inten    --     16.8214                42.0366                47.0652

                     49                     50                     51
                      A                      A                      A
 Frequencies --   3090.8082              3111.5924              3132.1567
 Red. masses --      1.1020                 1.1042                 1.1098
 Frc consts  --      6.2027                 6.2991                 6.4149
 IR Inten    --     13.5965                31.6449                23.0725

 - Thermochemistry -
 -------------------
 Temperature   298.150 Kelvin.  Pressure   1.00000 Atm.
 Atom     1 has atomic number  8 and mass  15.99491

 Molecular mass:   126.06808 amu.
 Principal axes and moments of inertia in atomic units:
                           1         2         3
     Eigenvalues --   553.825041287.981091532.06093
           X            0.99969  -0.02435  -0.00538
           Y            0.02420   0.99935  -0.02674
           Z            0.00602   0.02660   0.99963
 This molecule is an asymmetric top.
 Rotational symmetry number  1.
 Warning -- assumption of classical behavior for rotation
           may cause significant error
 Rotational temperatures (Kelvin)      0.15639     0.06725     0.05653
 Rotational constants (GHZ):           3.25868     1.40122     1.17798
 Zero-point vibrational energy     421273.9 (Joules/Mol)
                                  100.68688 (Kcal/Mol)
 Warning -- explicit consideration of   9 degrees of freedom as
           vibrations may cause significant error
 Vibrational temperatures:    118.33   228.81   272.89   330.42   514.13
          (Kelvin)            570.94   596.75   636.19   813.64   903.33
                             1040.36  1099.34  1181.80  1213.87  1266.76
                             1317.69  1336.17  1354.30  1409.71  1430.02
                             1481.81  1503.42  1570.38  1597.19  1680.46
                             1718.57  1761.48  1779.48  1795.94  1833.79
                             1892.21  1925.47  1943.10  1964.55  1989.62
                             2020.00  2127.29  2141.65  2143.85  2167.42
                             2631.26  4156.84  4366.32  4391.88  4408.10
                             4412.69  4424.62  4439.95  4446.98  4476.88
                             4506.47

 Zero-point correction=                           0.160455 (Hartree/Particle)
 Thermal correction to Energy=                    0.168228
 Thermal correction to Enthalpy=                  0.169172
 Thermal correction to Gibbs Free Energy=         0.128094
 Sum of electronic and zero-point Energies=           -423.029211
 Sum of electronic and thermal Energies=              -423.021439
 Sum of electronic and thermal Enthalpies=            -423.020494
 Sum of electronic and thermal Free Energies=         -423.061572

                     E (Thermal)             CV                S
                      KCal/Mol        Cal/Mol-Kelvin    Cal/Mol-Kelvin
 Total                  105.564             30.235             86.455
 Electronic               0.000              0.000              0.000
 Translational            0.889              2.981             40.409
 Rotational               0.889              2.981             28.482
 Vibrational            103.787             24.273             17.564
 Vibration     1          0.600              1.961              3.837
 Vibration     2          0.621              1.892              2.561
 Vibration     3          0.633              1.854              2.231
 Vibration     4          0.652              1.796              1.882
 Vibration     5          0.733              1.560              1.134
 Vibration     6          0.763              1.477              0.974
 Vibration     7          0.778              1.438              0.910
 Vibration     8          0.802              1.378              0.820
 Vibration     9          0.921              1.106              0.513

 Optimization completed.
    -- Stationary point found.
 Normal termination of Gaussian 09 at Mon Jan 27 14:00:57 2020.
