 Gaussian 09, Revision D.01,
 Gaussian 09:  ES64L-G09RevD.01 24-Apr-2013

 -----------------------------
 # b3lyp 6-31G(2df,p) opt Freq
 -----------------------------

 -----
 titel
 -----
 Symbolic Z-matrix:
 Charge =  0 Multiplicity = 1

 SCF Done:  E(RB3LYP) =  -423.096222418     A.U. after   14 cycles
 Optimization completed.
    -- Stationary point found.
 Normal termination of Gaussian 09 at Tue Jan 28 10:00:28 2020.

 ----------------------------------------------------------------------
 #N Geom=AllCheck Guess=TCheck SCRF=Check GenChk RB3LYP/6-31G(2df,p) Fr
 eq
 ----------------------------------------------------------------------

 Structure from the checkpoint file:  "/scratch/puck/g09_28be3192-e4ce-4ff9-9b87-4ce8608fb525/Gau-64583.chk"
 -----
 titel
 -----
 Charge =  0 Multiplicity = 1

                         Standard orientation:
 ---------------------------------------------------------------------
 Center     Atomic      Atomic             Coordinates (Angstroms)
 Number     Number       Type             X           Y           Z
 ---------------------------------------------------------------------
      1          6           0       -2.935655   -0.402379   -0.487528
      2          6           0       -1.988123    0.281808    0.505453
      3          6           0       -0.539964   -0.048530    0.273195
      4          6           0        0.197820   -1.416037    0.313833
      5          6           0        1.314964   -0.425269   -0.024837
      6          8           0        2.630211   -0.755453   -0.227558
      7          6           0        0.692216    0.712461    0.862450
      8          8           0        0.727111    1.718405   -0.196651
      9          6           0        0.366280    0.483393   -0.888128
     10          1           0       -2.706505   -0.109209   -1.517432
     11          1           0       -2.857729   -1.492790   -0.425998
     12          1           0       -3.976042   -0.130102   -0.286679
     13          1           0       -2.099464    1.371323    0.440875
     14          1           0       -2.261620   -0.000240    1.530456
     15          1           0        0.260842   -1.905741    1.289824
     16          1           0       -0.062466   -2.138487   -0.464517
     17          1           0        3.110743    0.058634   -0.424611
     18          1           0        0.900285    1.017482    1.888433
     19          1           0        0.188145    0.512831   -1.963320
 ---------------------------------------------------------------------

 SCF Done:  E(RB3LYP) =  -423.096222418     A.U. after    1 cycles

 The electronic state is 1-A.
 Alpha  occ. eigenvalues --  -19.15572 -19.13084 -10.24940 -10.23917 -10.23888
 Alpha  occ. eigenvalues --  -10.20584 -10.18847 -10.18745 -10.17841  -1.06689
 Alpha  occ. eigenvalues --   -1.03263  -0.86610  -0.77053  -0.66175  -0.65578
 Alpha  occ. eigenvalues --   -0.64871  -0.59472  -0.52603  -0.52209  -0.46878
 Alpha  occ. eigenvalues --   -0.46597  -0.45548  -0.43929  -0.40171  -0.38175
 Alpha  occ. eigenvalues --   -0.38068  -0.37389  -0.36445  -0.34841  -0.32292
 Alpha  occ. eigenvalues --   -0.30061  -0.29958  -0.25513  -0.23386
 Alpha virt. eigenvalues --    0.07685   0.08164   0.09674   0.11498   0.12598
 Alpha virt. eigenvalues --    0.12912   0.14364   0.14508   0.16272   0.16573
 Alpha virt. eigenvalues --    0.17159   0.17948   0.18686   0.19646   0.20880

 Mulliken charges:
               1
     1  C   -0.380674
     2  C   -0.318070
     3  C    0.332791
     4  C   -0.364709
     5  C    0.380110
     6  O   -0.464291
     7  C   -0.059091
     8  O   -0.338370
     9  C   -0.042289
    10  H    0.118548
    11  H    0.120035
    12  H    0.116171
    13  H    0.115704
    14  H    0.101096
    15  H    0.102193
    16  H    0.104229
    17  H    0.294450
    18  H    0.090866
    19  H    0.091303
 Sum of Mulliken charges =   0.00000

 Dipole moment (field-independent basis, Debye):
    X=             -0.7780    Y=             -0.4769    Z=              0.2022  Tot=              0.9347
 Quadrupole moment (field-independent basis, Debye-Ang):
   XX=            -51.7560   YY=            -58.7497   ZZ=            -50.0800
   XY=              2.8001   XZ=             -0.3237   YZ=              0.3691

  Exact polarizability:  84.926   1.376  70.988   0.249   0.105  69.345
 Approx polarizability: 111.080   1.417 111.358  -0.439  -0.770 108.961

                      1                      2                      3
                      A                      A                      A
 Frequencies --     89.7861               141.5782               185.8883
 Red. masses --      2.5418                 3.3975                 1.4397
 Frc consts  --      0.0121                 0.0401                 0.0293
 IR Inten    --      0.0616                 0.1711                 0.1189

                      4                      5                      6
                      A                      A                      A
 Frequencies --    265.5985               281.2121               299.4050
 Red. masses --      2.6978                 2.2750                 2.5211
 Frc consts  --      0.1121                 0.1060                 0.1332
 IR Inten    --      9.3823                 8.6085                 4.2483

                      7                      8                      9
                      A                      A                      A
 Frequencies --    369.7517               432.1372               448.6238
 Red. masses --      1.2075                 2.2897                 2.6262
 Frc consts  --      0.0973                 0.2519                 0.3114
 IR Inten    --     69.9439                 1.6336                18.5974

                     10                     11                     12
                      A                      A                      A
 Frequencies --    569.9511               596.5206               712.4245
 Red. masses --      3.8961                 3.4994                 3.3241
 Frc consts  --      0.7457                 0.7337                 0.9940
 IR Inten    --      3.1469                 1.6075                 1.8728

                     13                     14                     15
                      A                      A                      A
 Frequencies --    718.5244               770.7211               800.6880
 Red. masses --      2.7062                 1.6822                 2.7714
 Frc consts  --      0.8232                 0.5887                 1.0468
 IR Inten    --      8.0885                 0.2713                 8.2231

                     16                     17                     18
                      A                      A                      A
 Frequencies --    848.4578               895.3223               904.2273
 Red. masses --      7.5151                 2.6088                 2.4553
 Frc consts  --      3.1875                 1.2321                 1.1828
 IR Inten    --     22.3246                32.4330                 5.9391

                     19                     20                     21
                      A                      A                      A
 Frequencies --    937.3497               964.1611              1006.3508
 Red. masses --      2.2828                 1.9844                 1.3208
 Frc consts  --      1.1817                 1.0869                 0.7881
 IR Inten    --      3.0307                 8.4740                 0.9520

                     22                     23                     24
                      A                      A                      A
 Frequencies --   1028.4867              1056.2298              1067.2407
 Red. masses --      2.3317                 1.5538                 1.8929
 Frc consts  --      1.4532                 1.0213                 1.2703
 IR Inten    --     13.0799                 2.3505                22.1179

                     25                     26                     27
                      A                      A                      A
 Frequencies --   1100.6138              1121.3080              1139.6980
 Red. masses --      2.9278                 1.4759                 2.0787
 Frc consts  --      2.0896                 1.0934                 1.5908
 IR Inten    --      6.1446                 0.4119                15.0593

                     28                     29                     30
                      A                      A                      A
 Frequencies --   1154.8742              1163.7799              1189.0673
 Red. masses --      1.7658                 1.3768                 2.2208
 Frc consts  --      1.3876                 1.0987                 1.8500
 IR Inten    --      3.0499                 0.1664                 7.8148

                     31                     32                     33
                      A                      A                      A
 Frequencies --   1262.7208              1301.8293              1313.9327
 Red. masses --      1.8375                 1.2561                 2.1719
 Frc consts  --      1.7262                 1.2543                 2.2092
 IR Inten    --     55.6246                 0.3570               151.9907

                     34                     35                     36
                      A                      A                      A
 Frequencies --   1355.3125              1382.2888              1409.4025
 Red. masses --      1.7702                 2.1052                 1.3226
 Frc consts  --      1.9159                 2.3699                 1.5480
 IR Inten    --     60.0732                 8.6660                 7.3918

                     37                     38                     39
                      A                      A                      A
 Frequencies --   1422.8942              1479.9054              1499.9984
 Red. masses --      2.2561                 1.0702                 1.0390
 Frc consts  --      2.6913                 1.3810                 1.3773
 IR Inten    --     24.2036                 1.4846                 5.7102

                     40                     41                     42
                      A                      A                      A
 Frequencies --   1506.6066              1525.0976              3020.4728
 Red. masses --      1.0684                 1.3234                 1.0602
 Frc consts  --      1.4289                 1.8135                 5.6987
 IR Inten    --      2.6257                13.1820                24.3054

                     43                     44                     45
                      A                      A                      A
 Frequencies --   3035.3145              3052.5069              3056.2477
 Red. masses --      1.0351                 1.0558                 1.1003
 Frc consts  --      5.6189                 5.7962                 6.0553
 IR Inten    --     22.6489                37.5057                 6.2084

                     46                     47                     48
                      A                      A                      A
 Frequencies --   3104.2728              3107.9563              3110.7589
 Red. masses --      1.1021                 1.1021                 1.1088
 Frc consts  --      6.2575                 6.2723                 6.3219
 IR Inten    --     32.8524                28.9515                22.6362

                     49                     50                     51
                      A                      A                      A
 Frequencies --   3114.5107              3121.9353              3779.9420
 Red. masses --      1.0895                 1.0951                 1.0651
 Frc consts  --      6.2268                 6.2883                 8.9666
 IR Inten    --     73.6270                 1.6091                32.0533

 - Thermochemistry -
 -------------------
 Temperature   298.150 Kelvin.  Pressure   1.00000 Atm.
 Atom     1 has atomic number  6 and mass  12.00000

 Molecular mass:   126.06808 amu.
 Principal axes and moments of inertia in atomic units:
                           1         2         3
     Eigenvalues --   537.726181413.146881647.27901
           X            0.99988   0.01297   0.00794
           Y           -0.01308   0.99982   0.01348
           Z           -0.00777  -0.01359   0.99988
 This molecule is an asymmetric top.
 Rotational symmetry number  1.
 Warning -- assumption of classical behavior for rotation
           may cause significant error
 Rotational temperatures (Kelvin)      0.16107     0.06129     0.05258
 Rotational constants (GHZ):           3.35625     1.27711     1.09559
 Zero-point vibrational energy     414050.8 (Joules/Mol)
                                   98.96051 (Kcal/Mol)
 Warning -- explicit consideration of  11 degrees of freedom as
           vibrations may cause significant error
 Vibrational temperatures:    129.18   203.70   267.45   382.14   404.60
          (Kelvin)            430.78   531.99   621.75   645.47   820.03
                              858.26  1025.02  1033.80  1108.89  1152.01
                             1220.74  1288.17  1300.98  1348.64  1387.21
                             1447.91  1479.76  1519.68  1535.52  1583.54
                             1613.31  1639.77  1661.60  1674.42  1710.80
                             1816.77  1873.04  1890.45  1949.99  1988.80
                             2027.81  2047.22  2129.25  2158.16  2167.67
                             2194.27  4345.78  4367.14  4391.87  4397.25
                             4466.35  4471.65  4475.68  4481.08  4491.76
                             5438.49

 Zero-point correction=                           0.157704 (Hartree/Particle)
 Thermal correction to Energy=                    0.166065
 Thermal correction to Enthalpy=                  0.167009
 Thermal correction to Gibbs Free Energy=         0.124941
 Sum of electronic and zero-point Energies=           -422.938519
 Sum of electronic and thermal Energies=              -422.930158
 Sum of electronic and thermal Enthalpies=            -422.929213
 Sum of electronic and thermal Free Energies=         -422.971281

                     E (Thermal)             CV                S
                      KCal/Mol        Cal/Mol-Kelvin    Cal/Mol-Kelvin
 Total                  104.207             32.640             88.539
 Electronic               0.000              0.000              0.000
 Translational            0.889              2.981             40.409
 Rotational               0.889              2.981             28.617
 Vibrational            102.430             26.678             19.514
 Vibration     1          0.602              1.956              3.665
 Vibration     2          0.615              1.912              2.782
 Vibration     3          0.632              1.859              2.268
 Vibration     4          0.671              1.736              1.625
 Vibration     5          0.681              1.708              1.526
 Vibration     6          0.692              1.675              1.420
 Vibration     7          0.742              1.534              1.081
 Vibration     8          0.793              1.400              0.852
 Vibration     9          0.808              1.364              0.800
 Vibration    10          0.926              1.096              0.504
 Vibration    11          0.954              1.039              0.456

 Normal termination of Gaussian 09 at Tue Jan 28 11:49:33 2020.
