 Gaussian 09, Revision D.01,
 Gaussian 09:  ES64L-G09RevD.01 24-Apr-2013

 -----------------------------
 # b3lyp 6-31G(2df,p) opt Freq
 -----------------------------

 -----
 titel
 -----
 Symbolic Z-matrix:
 Charge =  0 Multiplicity = 1

 SCF Done:  E(RB3LYP) =  -423.156491598     A.U. after   14 cycles
 SCF Done:  E(RB3LYP) =  -423.156492561     A.U. after    9 cycles
 SCF Done:  E(RB3LYP) =  -423.156490833     A.U. after    8 cycles
 SCF Done:  E(RB3LYP) =  -423.156492767     A.U. after    8 cycles
 SCF Done:  E(RB3LYP) =  -423.156492849     A.U. after    7 cycles
 Optimization completed.
    -- Stationary point found.
 Normal termination of Gaussian 09 at Mon Jan 27 17:49:07 2020.

 ----------------------------------------------------------------------
 #N Geom=AllCheck Guess=TCheck SCRF=Check GenChk RB3LYP/6-31G(2df,p) Fr
 eq
 ----------------------------------------------------------------------

 Structure from the checkpoint file:  "/scratch/puck/g09_336e1b47-2d5d-4b6e-8011-da1b25dd7843/Gau-1872.chk"
 -----
 titel
 -----
 Charge =  0 Multiplicity = 1

                         Standard orientation:
 ---------------------------------------------------------------------
 Center     Atomic      Atomic             Coordinates (Angstroms)
 Number     Number       Type             X           Y           Z
 ---------------------------------------------------------------------
      1          8           0        3.070367   -0.176661   -0.429946
      2          6           0        1.775580   -0.069638    0.044025
      3          6           0        1.045789   -1.207080    0.693089
      4          6           0        0.512710   -0.621512   -0.600487
      5          6           0       -0.215645    0.708516   -0.344643
      6          6           0       -1.520127    0.698134    0.461259
      7          6           0       -2.664617    0.111719   -0.333331
      8          8           0       -3.356161   -0.808233    0.019555
      9          6           0        1.081370    1.266836    0.342041
     10          1           0        3.659184   -0.309928    0.320923
     11          1           0        1.525448   -2.172282    0.565228
     12          1           0        0.517893   -1.087184    1.636393
     13          1           0        0.406727   -1.236482   -1.485674
     14          1           0       -0.385627    1.233485   -1.290449
     15          1           0       -1.424449    0.141871    1.397883
     16          1           0       -1.788905    1.736186    0.707484
     17          1           0       -2.833364    0.606463   -1.320311
     18          1           0        1.519549    2.095752   -0.217573
     19          1           0        0.999538    1.549433    1.397503
 ---------------------------------------------------------------------

 SCF Done:  E(RB3LYP) =  -423.156492849     A.U. after    1 cycles

 The electronic state is 1-A.
 Alpha  occ. eigenvalues --  -19.15088 -19.13719 -10.26946 -10.24400 -10.20670
 Alpha  occ. eigenvalues --  -10.19384 -10.19348 -10.18956 -10.18911  -1.04384
 Alpha  occ. eigenvalues --   -1.03734  -0.89451  -0.78004  -0.71881  -0.64203
 Alpha  occ. eigenvalues --   -0.60178  -0.57308  -0.54441  -0.52539  -0.48460
 Alpha  occ. eigenvalues --   -0.46326  -0.45062  -0.44364  -0.42603  -0.40593
 Alpha  occ. eigenvalues --   -0.39026  -0.38063  -0.36689  -0.34943  -0.32897
 Alpha  occ. eigenvalues --   -0.31987  -0.26229  -0.25807  -0.24654
 Alpha virt. eigenvalues --   -0.02004   0.07539   0.08742   0.10297   0.10968
 Alpha virt. eigenvalues --    0.13244   0.13346   0.14111   0.15237   0.15974
 Alpha virt. eigenvalues --    0.16633   0.18767   0.19616   0.19976   0.23234

 Mulliken charges:
               1
     1  O   -0.462930
     2  C    0.411559
     3  C   -0.340698
     4  C   -0.117323
     5  C    0.010180
     6  C   -0.295138
     7  C    0.166621
     8  O   -0.239206
     9  C   -0.334732
    10  H    0.286313
    11  H    0.117459
    12  H    0.107320
    13  H    0.097130
    14  H    0.084058
    15  H    0.118690
    16  H    0.117751
    17  H    0.067663
    18  H    0.113165
    19  H    0.092118
 Sum of Mulliken charges =   0.00000

 Dipole moment (field-independent basis, Debye):
    X=              2.0734    Y=              1.6549    Z=              0.8272  Tot=              2.7788
 Quadrupole moment (field-independent basis, Debye-Ang):
   XX=            -60.9521   YY=            -52.6653   ZZ=            -52.0763
   XY=             -7.1019   XZ=              5.9509   YZ=             -0.2222

  Exact polarizability:  88.690   1.976  73.280   3.026  -2.563  66.839
 Approx polarizability: 116.753   8.830 111.478   1.995  -6.088 105.313

                      1                      2                      3
                      A                      A                      A
 Frequencies --     49.3802                66.0435               131.9255
 Red. masses --      7.0436                 3.6511                 2.8355
 Frc consts  --      0.0101                 0.0094                 0.0291
 IR Inten    --      3.5971                 3.7408                 2.2735

                      4                      5                      6
                      A                      A                      A
 Frequencies --    194.0517               244.4402               295.4732
 Red. masses --      2.9994                 1.1753                 3.1882
 Frc consts  --      0.0665                 0.0414                 0.1640
 IR Inten    --      1.0568                86.3901                 0.6547

                      7                      8                      9
                      A                      A                      A
 Frequencies --    352.0806               399.1544               420.5813
 Red. masses --      2.7264                 2.2122                 2.9855
 Frc consts  --      0.1991                 0.2077                 0.3111
 IR Inten    --     15.3049                 4.1946                 4.3947

                     10                     11                     12
                      A                      A                      A
 Frequencies --    482.5150               539.0683               617.2475
 Red. masses --      2.2115                 2.6054                 3.1485
 Frc consts  --      0.3034                 0.4461                 0.7068
 IR Inten    --     10.8983                10.7388                 1.0533

                     13                     14                     15
                      A                      A                      A
 Frequencies --    690.7614               764.8993               841.1151
 Red. masses --      2.9555                 1.9124                 2.7111
 Frc consts  --      0.8309                 0.6592                 1.1301
 IR Inten    --      2.0224                 2.2221                14.8487

                     16                     17                     18
                      A                      A                      A
 Frequencies --    882.7800               896.4897               953.3724
 Red. masses --      1.8343                 1.7853                 2.0580
 Frc consts  --      0.8422                 0.8454                 1.1021
 IR Inten    --      7.4368                 3.5220                 4.0366

                     19                     20                     21
                      A                      A                      A
 Frequencies --    956.0803               972.0384              1001.5052
 Red. masses --      2.2354                 1.4341                 1.6591
 Frc consts  --      1.2039                 0.7984                 0.9805
 IR Inten    --      5.3644                 6.7453                 5.0969

                     22                     23                     24
                      A                      A                      A
 Frequencies --   1031.4879              1059.5031              1073.8178
 Red. masses --      1.5129                 1.8140                 1.5546
 Frc consts  --      0.9484                 1.1998                 1.0562
 IR Inten    --     15.7875                32.7171                 0.1872

                     25                     26                     27
                      A                      A                      A
 Frequencies --   1091.5261              1099.5179              1161.1174
 Red. masses --      1.5418                 2.2601                 2.2778
 Frc consts  --      1.0823                 1.6098                 1.8093
 IR Inten    --     15.2931                 2.6158                 8.2632

                     28                     29                     30
                      A                      A                      A
 Frequencies --   1202.7187              1220.3098              1239.5937
 Red. masses --      1.3775                 1.6397                 1.5096
 Frc consts  --      1.1740                 1.4387                 1.3667
 IR Inten    --     12.4276                 6.3585                30.4794

                     31                     32                     33
                      A                      A                      A
 Frequencies --   1253.9761              1276.3208              1311.1411
 Red. masses --      1.7482                 1.5785                 1.7465
 Frc consts  --      1.6196                 1.5150                 1.7690
 IR Inten    --     35.8127                41.7584                21.1427

                     34                     35                     36
                      A                      A                      A
 Frequencies --   1322.3978              1376.6823              1411.2423
 Red. masses --      1.5322                 1.5656                 1.7840
 Frc consts  --      1.5787                 1.7482                 2.0934
 IR Inten    --     21.8428                31.8926                19.9851

                     37                     38                     39
                      A                      A                      A
 Frequencies --   1430.2644              1458.2828              1478.0579
 Red. masses --      1.1941                 1.1103                 1.1406
 Frc consts  --      1.4393                 1.3912                 1.4681
 IR Inten    --      3.4675                 5.2036                 2.3719

                     40                     41                     42
                      A                      A                      A
 Frequencies --   1506.6755              1835.6901              2841.6194
 Red. masses --      1.4379                10.1672                 1.0812
 Frc consts  --      1.9231                20.1860                 5.1438
 IR Inten    --     15.3908               175.8103               114.3931

                     43                     44                     45
                      A                      A                      A
 Frequencies --   3009.6037              3040.4669              3047.2620
 Red. masses --      1.0662                 1.0632                 1.0849
 Frc consts  --      5.6899                 5.7911                 5.9354
 IR Inten    --     11.0689                42.1493                18.9722

                     46                     47                     48
                      A                      A                      A
 Frequencies --   3098.6876              3107.9311              3113.8676
 Red. masses --      1.0917                 1.0597                 1.1013
 Frc consts  --      6.1761                 6.0309                 6.2915
 IR Inten    --      7.4986                19.2873                25.3789

                     49                     50                     51
                      A                      A                      A
 Frequencies --   3188.7787              3203.3114              3795.6097
 Red. masses --      1.0956                 1.1102                 1.0662
 Frc consts  --      6.5639                 6.7119                 9.0500
 IR Inten    --      6.3658                12.6496                23.4035

 - Thermochemistry -
 -------------------
 Temperature   298.150 Kelvin.  Pressure   1.00000 Atm.
 Atom     1 has atomic number  8 and mass  15.99491

 Molecular mass:   126.06808 amu.
 Principal axes and moments of inertia in atomic units:
                           1         2         3
     Eigenvalues --   416.651502066.889972247.83441
           X            0.99988  -0.01327   0.00855
           Y            0.01336   0.99985  -0.01064
           Z           -0.00840   0.01076   0.99991
 This molecule is an asymmetric top.
 Rotational symmetry number  1.
 Rotational temperatures (Kelvin)      0.20788     0.04191     0.03853
 Rotational constants (GHZ):           4.33154     0.87317     0.80288
 Zero-point vibrational energy     412941.7 (Joules/Mol)
                                   98.69544 (Kcal/Mol)
 Warning -- explicit consideration of  12 degrees of freedom as
           vibrations may cause significant error
 Vibrational temperatures:     71.05    95.02   189.81   279.20   351.69
          (Kelvin)            425.12   506.56   574.29   605.12   694.23
                              775.60   888.08   993.85  1100.52  1210.18
                             1270.12  1289.85  1371.69  1375.58  1398.54
                             1440.94  1484.08  1524.39  1544.98  1570.46
                             1581.96  1670.59  1730.44  1755.75  1783.50
                             1804.19  1836.34  1886.44  1902.63  1980.74
                             2030.46  2057.83  2098.14  2126.59  2167.77
                             2641.15  4088.45  4330.14  4374.55  4384.32
                             4458.31  4471.61  4480.16  4587.94  4608.84
                             5461.03

 Zero-point correction=                           0.157281 (Hartree/Particle)
 Thermal correction to Energy=                    0.166304
 Thermal correction to Enthalpy=                  0.167248
 Thermal correction to Gibbs Free Energy=         0.122700
 Sum of electronic and zero-point Energies=           -422.999212
 Sum of electronic and thermal Energies=              -422.990189
 Sum of electronic and thermal Enthalpies=            -422.989245
 Sum of electronic and thermal Free Energies=         -423.033793

                     E (Thermal)             CV                S
                      KCal/Mol        Cal/Mol-Kelvin    Cal/Mol-Kelvin
 Total                  104.357             33.392             93.760
 Electronic               0.000              0.000              0.000
 Translational            0.889              2.981             40.409
 Rotational               0.889              2.981             29.050
 Vibrational            102.580             27.430             24.301
 Vibration     1          0.595              1.978              4.842
 Vibration     2          0.597              1.970              4.268
 Vibration     3          0.612              1.921              2.918
 Vibration     4          0.635              1.848              2.189
 Vibration     5          0.660              1.772              1.770
 Vibration     6          0.690              1.682              1.442
 Vibration     7          0.729              1.571              1.157
 Vibration     8          0.765              1.472              0.966
 Vibration     9          0.783              1.426              0.890
 Vibration    10          0.839              1.289              0.703
 Vibration    11          0.894              1.164              0.567
 Vibration    12          0.977              0.995              0.421

 Normal termination of Gaussian 09 at Mon Jan 27 18:32:17 2020.
