 Gaussian 09, Revision D.01,
 Gaussian 09:  ES64L-G09RevD.01 24-Apr-2013

 -----------------------------
 # b3lyp 6-31G(2df,p) opt Freq
 -----------------------------

 -----
 titel
 -----
 Symbolic Z-matrix:
 Charge =  0 Multiplicity = 1

 SCF Done:  E(RB3LYP) =  -423.149017541     A.U. after   14 cycles
 Optimization completed.
    -- Stationary point found.
 Normal termination of Gaussian 09 at Tue Jan 28 14:03:05 2020.

 ----------------------------------------------------------------------
 #N Geom=AllCheck Guess=TCheck SCRF=Check GenChk RB3LYP/6-31G(2df,p) Fr
 eq
 ----------------------------------------------------------------------

 Structure from the checkpoint file:  "/scratch/puck/g09_41ba7ebc-dcd0-4bfb-bb5e-f191148057a9/Gau-143681.chk"
 -----
 titel
 -----
 Charge =  0 Multiplicity = 1

                         Standard orientation:
 ---------------------------------------------------------------------
 Center     Atomic      Atomic             Coordinates (Angstroms)
 Number     Number       Type             X           Y           Z
 ---------------------------------------------------------------------
      1          6           0       -3.091020    0.206623   -0.091310
      2          6           0       -1.880489   -0.608471    0.374631
      3          6           0       -0.577116   -0.266813   -0.368659
      4          6           0        0.538497   -1.255698   -0.010596
      5          8           0        1.777821   -1.070997   -0.693293
      6          6           0        1.661985   -0.545823    0.628776
      7          6           0        1.311284    0.931664    0.669792
      8          8           0        1.164174    1.524547   -0.620371
      9          6           0       -0.018976    1.098069    0.054112
     10          1           0       -3.283685    0.046932   -1.157606
     11          1           0       -3.991773   -0.082354    0.458426
     12          1           0       -2.945185    1.281118    0.059029
     13          1           0       -1.730154   -0.470401    1.453728
     14          1           0       -2.091508   -1.675703    0.233673
     15          1           0       -0.757222   -0.282900   -1.450571
     16          1           0        0.280515   -2.291045    0.208354
     17          1           0        2.313694   -0.980527    1.381137
     18          1           0        1.707746    1.571281    1.453113
     19          1           0       -0.703374    1.897891    0.329556
 ---------------------------------------------------------------------

 SCF Done:  E(RB3LYP) =  -423.149017541     A.U. after    1 cycles

 The electronic state is 1-A.
 Alpha  occ. eigenvalues --  -19.15166 -19.15163 -10.23929 -10.23907 -10.23729
 Alpha  occ. eigenvalues --  -10.23722 -10.19754 -10.19456 -10.18344  -1.09062
 Alpha  occ. eigenvalues --   -1.05862  -0.81349  -0.73995  -0.70600  -0.64616
 Alpha  occ. eigenvalues --   -0.62154  -0.58271  -0.57666  -0.53827  -0.47683
 Alpha  occ. eigenvalues --   -0.46606  -0.44940  -0.42921  -0.42097  -0.40099
 Alpha  occ. eigenvalues --   -0.39830  -0.37757  -0.36090  -0.34947  -0.34215
 Alpha  occ. eigenvalues --   -0.31928  -0.28020  -0.26557  -0.25867
 Alpha virt. eigenvalues --    0.05951   0.08233   0.09527   0.11589   0.11738
 Alpha virt. eigenvalues --    0.12540   0.13725   0.14333   0.15252   0.16228
 Alpha virt. eigenvalues --    0.17343   0.18385   0.19964   0.20604   0.22576

 Mulliken charges:
               1
     1  C   -0.389477
     2  C   -0.191498
     3  C   -0.057881
     4  C    0.024305
     5  O   -0.240439
     6  C    0.003349
     7  C    0.004113
     8  O   -0.239687
     9  C    0.036407
    10  H    0.122591
    11  H    0.117179
    12  H    0.122111
    13  H    0.100365
    14  H    0.102191
    15  H    0.101899
    16  H    0.093383
    17  H    0.097933
    18  H    0.097123
    19  H    0.096034
 Sum of Mulliken charges =   0.00000

 Dipole moment (field-independent basis, Debye):
    X=             -2.1091    Y=             -0.5550    Z=              2.5585  Tot=              3.3618
 Quadrupole moment (field-independent basis, Debye-Ang):
   XX=            -54.0751   YY=            -53.5249   ZZ=            -53.4040
   XY=              0.0994   XZ=              5.6304   YZ=              1.1044

  Exact polarizability:  86.846   0.637  71.483   5.787   1.127  62.695
 Approx polarizability: 116.410   2.958 104.004   4.753   1.227 103.680

                      1                      2                      3
                      A                      A                      A
 Frequencies --     87.9960               129.3950               185.8728
 Red. masses --      2.2508                 2.4843                 2.0588
 Frc consts  --      0.0103                 0.0245                 0.0419
 IR Inten    --      1.0508                 2.0817                 0.8391

                      4                      5                      6
                      A                      A                      A
 Frequencies --    251.3056               315.6194               329.5820
 Red. masses --      1.4474                 6.3252                 4.0472
 Frc consts  --      0.0539                 0.3712                 0.2590
 IR Inten    --      0.4957                 0.3783                 2.4656

                      7                      8                      9
                      A                      A                      A
 Frequencies --    364.6646               499.5419               571.3383
 Red. masses --      3.6748                 3.7513                 5.6750
 Frc consts  --      0.2879                 0.5515                 1.0914
 IR Inten    --      0.6901                 8.6500                13.4583

                     10                     11                     12
                      A                      A                      A
 Frequencies --    699.2329               731.2874               786.0240
 Red. masses --      2.8773                 5.4735                 1.5024
 Frc consts  --      0.8289                 1.7246                 0.5469
 IR Inten    --      5.2863                 5.9294                 3.9371

                     13                     14                     15
                      A                      A                      A
 Frequencies --    818.9281               849.7106               867.8245
 Red. masses --      4.1415                 2.0130                 2.1075
 Frc consts  --      1.6364                 0.8563                 0.9352
 IR Inten    --     12.2700                 1.4844                39.4016

                     16                     17                     18
                      A                      A                      A
 Frequencies --    897.2729               900.9968               954.8352
 Red. masses --      2.3550                 4.9248                 2.5824
 Frc consts  --      1.1171                 2.3555                 1.3872
 IR Inten    --      6.5929                 2.1773                12.0205

                     19                     20                     21
                      A                      A                      A
 Frequencies --    960.6826              1007.1975              1024.3999
 Red. masses --      2.5743                 2.9552                 1.3551
 Frc consts  --      1.3998                 1.7663                 0.8378
 IR Inten    --     11.0376                 2.4799                 7.2822

                     22                     23                     24
                      A                      A                      A
 Frequencies --   1039.2156              1064.2664              1087.7962
 Red. masses --      1.7398                 1.7659                 1.4279
 Frc consts  --      1.1070                 1.1785                 0.9955
 IR Inten    --      2.0592                 2.7974                 1.6570

                     25                     26                     27
                      A                      A                      A
 Frequencies --   1108.8066              1138.7460              1146.3970
 Red. masses --      1.6962                 1.8977                 1.7973
 Frc consts  --      1.2286                 1.4499                 1.3917
 IR Inten    --      0.1288                 1.4943                 0.8961

                     28                     29                     30
                      A                      A                      A
 Frequencies --   1238.8237              1257.9715              1271.8061
 Red. masses --      1.4884                 1.3323                 1.4054
 Frc consts  --      1.3458                 1.2422                 1.3393
 IR Inten    --      0.3340                 4.5837                 3.3049

                     31                     32                     33
                      A                      A                      A
 Frequencies --   1277.7339              1296.9464              1332.8605
 Red. masses --      1.5097                 1.2178                 1.3025
 Frc consts  --      1.4522                 1.2069                 1.3634
 IR Inten    --      7.0179                 1.1622                 1.6209

                     34                     35                     36
                      A                      A                      A
 Frequencies --   1350.1866              1375.7687              1415.1587
 Red. masses --      1.6903                 1.5009                 1.3063
 Frc consts  --      1.8155                 1.6737                 1.5414
 IR Inten    --      4.2397                 3.6418                 3.5588

                     37                     38                     39
                      A                      A                      A
 Frequencies --   1421.2281              1424.7295              1488.6872
 Red. masses --      2.6645                 2.7094                 1.0607
 Frc consts  --      3.1710                 3.2403                 1.3850
 IR Inten    --     19.3208                 4.8030                 0.5008

                     40                     41                     42
                      A                      A                      A
 Frequencies --   1500.5160              1505.8929              3017.5677
 Red. masses --      1.0406                 1.0701                 1.0612
 Frc consts  --      1.3804                 1.4297                 5.6931
 IR Inten    --      5.4522                 3.6373                17.6720

                     43                     44                     45
                      A                      A                      A
 Frequencies --   3035.8451              3039.8238              3054.5209
 Red. masses --      1.0384                 1.0818                 1.0983
 Frc consts  --      5.6389                 5.8895                 6.0374
 IR Inten    --     16.5563                15.9985                21.6862

                     46                     47                     48
                      A                      A                      A
 Frequencies --   3102.9919              3107.1225              3118.7492
 Red. masses --      1.1015                 1.1012                 1.0892
 Frc consts  --      6.2487                 6.2637                 6.2421
 IR Inten    --     32.6857                30.8129                34.9590

                     49                     50                     51
                      A                      A                      A
 Frequencies --   3130.4796              3151.7370              3165.8880
 Red. masses --      1.0889                 1.0903                 1.0954
 Frc consts  --      6.2873                 6.3812                 6.4686
 IR Inten    --     24.1709                17.5125                33.4542

 - Thermochemistry -
 -------------------
 Temperature   298.150 Kelvin.  Pressure   1.00000 Atm.
 Atom     1 has atomic number  6 and mass  12.00000

 Molecular mass:   126.06808 amu.
 Principal axes and moments of inertia in atomic units:
                           1         2         3
     Eigenvalues --   582.883101355.636081671.80685
           X            0.99986  -0.00258   0.01667
           Y            0.00252   0.99999   0.00406
           Z           -0.01668  -0.00402   0.99985
 This molecule is an asymmetric top.
 Rotational symmetry number  1.
 Warning -- assumption of classical behavior for rotation
           may cause significant error
 Rotational temperatures (Kelvin)      0.14860     0.06389     0.05181
 Rotational constants (GHZ):           3.09623     1.33129     1.07952
 Zero-point vibrational energy     418106.6 (Joules/Mol)
                                   99.92988 (Kcal/Mol)
 Warning -- explicit consideration of   9 degrees of freedom as
           vibrations may cause significant error
 Vibrational temperatures:    126.61   186.17   267.43   361.57   454.11
          (Kelvin)            474.19   524.67   718.73   822.03  1006.04
                             1052.16  1130.91  1178.25  1222.54  1248.60
                             1290.97  1296.33  1373.79  1382.21  1449.13
                             1473.88  1495.20  1531.24  1565.09  1595.32
                             1638.40  1649.41  1782.39  1809.94  1829.84
                             1838.37  1866.01  1917.69  1942.61  1979.42
                             2036.10  2044.83  2049.87  2141.89  2158.91
                             2166.64  4341.60  4367.90  4373.62  4394.77
                             4464.51  4470.45  4487.18  4504.06  4534.64
                             4555.00

 Zero-point correction=                           0.159248 (Hartree/Particle)
 Thermal correction to Energy=                    0.167157
 Thermal correction to Enthalpy=                  0.168101
 Thermal correction to Gibbs Free Energy=         0.126636
 Sum of electronic and zero-point Energies=           -422.989769
 Sum of electronic and thermal Energies=              -422.981860
 Sum of electronic and thermal Enthalpies=            -422.980916
 Sum of electronic and thermal Free Energies=         -423.022382

                     E (Thermal)             CV                S
                      KCal/Mol        Cal/Mol-Kelvin    Cal/Mol-Kelvin
 Total                  104.893             30.621             87.272
 Electronic               0.000              0.000              0.000
 Translational            0.889              2.981             40.409
 Rotational               0.889              2.981             28.670
 Vibrational            103.115             24.660             18.193
 Vibration     1          0.601              1.958              3.704
 Vibration     2          0.612              1.924              2.955
 Vibration     3          0.632              1.859              2.269
 Vibration     4          0.663              1.761              1.721
 Vibration     5          0.703              1.644              1.333
 Vibration     6          0.712              1.616              1.262
 Vibration     7          0.738              1.545              1.102
 Vibration     8          0.855              1.251              0.659
 Vibration     9          0.927              1.093              0.502

 Optimization completed.
    -- Stationary point found.
 Normal termination of Gaussian 09 at Tue Jan 28 14:50:40 2020.
