 Gaussian 09, Revision D.01,
 Gaussian 09:  ES64L-G09RevD.01 24-Apr-2013

 -----------------------------
 # b3lyp 6-31G(2df,p) opt Freq
 -----------------------------

 -----
 titel
 -----
 Symbolic Z-matrix:
 Charge =  0 Multiplicity = 1

 SCF Done:  E(RB3LYP) =  -423.120124889     A.U. after   13 cycles
 Optimization completed.
    -- Stationary point found.
 Normal termination of Gaussian 09 at Tue Jan 28 09:29:21 2020.

 ----------------------------------------------------------------------
 #N Geom=AllCheck Guess=TCheck SCRF=Check GenChk RB3LYP/6-31G(2df,p) Fr
 eq
 ----------------------------------------------------------------------

 Structure from the checkpoint file:  "/scratch/puck/g09_28df8c17-b0e5-47e2-bb87-c66fb0e46d74/Gau-189124.chk"
 -----
 titel
 -----
 Charge =  0 Multiplicity = 1

                         Standard orientation:
 ---------------------------------------------------------------------
 Center     Atomic      Atomic             Coordinates (Angstroms)
 Number     Number       Type             X           Y           Z
 ---------------------------------------------------------------------
      1          8           0       -3.141724   -0.435671   -0.303374
      2          6           0       -2.176581   -0.039144    0.660077
      3          6           0       -0.803498    0.113233    0.085837
      4          6           0        0.138689   -0.996993   -0.443996
      5          6           0        1.324705   -0.107593    0.008424
      6          6           0        2.666612    0.092551   -0.623001
      7          6           0        2.553810   -0.564542    0.736484
      8          6           0        0.346787    0.947648    0.485169
      9          8           0       -0.476392    1.306598   -0.636690
     10          1           0       -2.892416   -1.305180   -0.632786
     11          1           0       -2.510583    0.928964    1.044200
     12          1           0       -2.139999   -0.745928    1.504749
     13          1           0        0.071321   -1.932720    0.119627
     14          1           0        0.053018   -1.197589   -1.514994
     15          1           0        2.924881   -0.534985   -1.469668
     16          1           0        3.065257    1.100131   -0.677300
     17          1           0        2.737864   -1.631749    0.808759
     18          1           0        2.875408    0.000425    1.606033
     19          1           0        0.457029    1.680254    1.277929
 ---------------------------------------------------------------------

 SCF Done:  E(RB3LYP) =  -423.120124889     A.U. after    1 cycles

 The electronic state is 1-A.
 Alpha  occ. eigenvalues --  -19.14666 -19.13795 -10.23868 -10.23607 -10.23499
 Alpha  occ. eigenvalues --  -10.20460 -10.19318 -10.19144 -10.18750  -1.07532
 Alpha  occ. eigenvalues --   -1.01814  -0.86594  -0.77202  -0.71392  -0.65524
 Alpha  occ. eigenvalues --   -0.60589  -0.57591  -0.54290  -0.51743  -0.49397
 Alpha  occ. eigenvalues --   -0.48878  -0.45112  -0.43860  -0.43438  -0.39508
 Alpha  occ. eigenvalues --   -0.38428  -0.36897  -0.35111  -0.33631  -0.31160
 Alpha  occ. eigenvalues --   -0.29166  -0.28570  -0.26191  -0.25041
 Alpha virt. eigenvalues --    0.05754   0.09530   0.09715   0.10585   0.11362
 Alpha virt. eigenvalues --    0.12319   0.13602   0.14355   0.14723   0.15493
 Alpha virt. eigenvalues --    0.16362   0.18017   0.19720   0.22436   0.22471

 Mulliken charges:
               1
     1  O   -0.408415
     2  C   -0.180208
     3  C    0.407655
     4  C   -0.406814
     5  C    0.381508
     6  C   -0.316705
     7  C   -0.332932
     8  C   -0.147848
     9  O   -0.280335
    10  H    0.286280
    11  H    0.124091
    12  H    0.090954
    13  H    0.104482
    14  H    0.112509
    15  H    0.117194
    16  H    0.119125
    17  H    0.113986
    18  H    0.115053
    19  H    0.100420
 Sum of Mulliken charges =   0.00000

 Dipole moment (field-independent basis, Debye):
    X=              1.6364    Y=             -1.9869    Z=              1.5662  Tot=              3.0131
 Quadrupole moment (field-independent basis, Debye-Ang):
   XX=            -58.5754   YY=            -50.6269   ZZ=            -52.3310
   XY=              3.5807   XZ=             -1.4445   YZ=              4.0259

  Exact polarizability:  91.722   1.452  71.123   0.795   2.919  66.599
 Approx polarizability: 116.312   2.261 109.839   5.436   0.885 102.979

                      1                      2                      3
                      A                      A                      A
 Frequencies --     76.1220                96.8734               169.1021
 Red. masses --      3.8075                 3.6916                 2.6285
 Frc consts  --      0.0130                 0.0204                 0.0443
 IR Inten    --      0.6884                 1.9399                 5.2338

                      4                      5                      6
                      A                      A                      A
 Frequencies --    255.2136               260.1793               282.4411
 Red. masses --      1.5614                 2.4565                 2.1664
 Frc consts  --      0.0599                 0.0980                 0.1018
 IR Inten    --     69.2398                 2.5831                13.6775

                      7                      8                      9
                      A                      A                      A
 Frequencies --    349.3634               383.4288               426.0181
 Red. masses --      2.0879                 2.8900                 2.4044
 Frc consts  --      0.1501                 0.2503                 0.2571
 IR Inten    --     35.4228                 1.6870                 3.5043

                     10                     11                     12
                      A                      A                      A
 Frequencies --    502.0682               615.9062               710.1211
 Red. masses --      5.1156                 3.5427                 3.6856
 Frc consts  --      0.7597                 0.7918                 1.0950
 IR Inten    --      5.8067                11.6849                13.0949

                     13                     14                     15
                      A                      A                      A
 Frequencies --    771.2920               781.9603               848.8234
 Red. masses --      1.0914                 3.6617                 2.1484
 Frc consts  --      0.3825                 1.3192                 0.9120
 IR Inten    --      0.1538                 4.3523                 3.1656

                     16                     17                     18
                      A                      A                      A
 Frequencies --    887.9465               904.1446               921.8810
 Red. masses --      2.1161                 2.0586                 2.5771
 Frc consts  --      0.9830                 0.9915                 1.2904
 IR Inten    --      7.6176                 5.9582                21.4636

                     19                     20                     21
                      A                      A                      A
 Frequencies --    939.7957               974.2318               980.2609
 Red. masses --      1.5948                 2.2422                 2.4221
 Frc consts  --      0.8299                 1.2539                 1.3713
 IR Inten    --      7.3016                 2.7071                 7.2478

                     22                     23                     24
                      A                      A                      A
 Frequencies --   1008.4661              1055.4670              1061.0674
 Red. masses --      2.0495                 1.4097                 3.8094
 Frc consts  --      1.2281                 0.9253                 2.5269
 IR Inten    --     32.2496                 3.0783               102.7527

                     25                     26                     27
                      A                      A                      A
 Frequencies --   1074.1703              1079.9116              1136.0745
 Red. masses --      2.1041                 1.5716                 1.6704
 Frc consts  --      1.4304                 1.0798                 1.2702
 IR Inten    --      5.2844                 3.8911                 3.9239

                     28                     29                     30
                      A                      A                      A
 Frequencies --   1169.7431              1185.6283              1204.3560
 Red. masses --      1.5562                 1.2876                 1.3747
 Frc consts  --      1.2545                 1.0664                 1.1748
 IR Inten    --      6.4072                 0.0493                 2.4253

                     31                     32                     33
                      A                      A                      A
 Frequencies --   1220.3942              1241.7209              1285.2648
 Red. masses --      1.2644                 2.2001                 2.1350
 Frc consts  --      1.1096                 1.9987                 2.0780
 IR Inten    --     14.3177                 8.8233                 7.7063

                     34                     35                     36
                      A                      A                      A
 Frequencies --   1370.2938              1396.1406              1402.2178
 Red. masses --      1.3247                 1.8723                 1.5283
 Frc consts  --      1.4656                 2.1503                 1.7705
 IR Inten    --      2.8627                 7.0457                33.7537

                     37                     38                     39
                      A                      A                      A
 Frequencies --   1455.8352              1464.7190              1477.5265
 Red. masses --      1.8953                 1.0921                 1.5105
 Frc consts  --      2.3667                 1.3804                 1.9429
 IR Inten    --     25.6950                 1.9722                 5.2924

                     40                     41                     42
                      A                      A                      A
 Frequencies --   1483.1897              1507.7658              2976.4946
 Red. masses --      1.0865                 1.6555                 1.0703
 Frc consts  --      1.4083                 2.2174                 5.5868
 IR Inten    --      1.8750                 0.7312                50.4413

                     43                     44                     45
                      A                      A                      A
 Frequencies --   3051.0165              3092.8032              3110.0800
 Red. masses --      1.0574                 1.0920                 1.1080
 Frc consts  --      5.7996                 6.1543                 6.3146
 IR Inten    --     26.1467                16.0835                16.6860

                     46                     47                     48
                      A                      A                      A
 Frequencies --   3122.8226              3130.2495              3173.8373
 Red. masses --      1.0523                 1.0563                 1.0941
 Frc consts  --      6.0464                 6.0982                 6.4932
 IR Inten    --     18.0520                11.9680                16.2124

                     49                     50                     51
                      A                      A                      A
 Frequencies --   3201.4204              3217.6879              3816.4171
 Red. masses --      1.1176                 1.1156                 1.0663
 Frc consts  --      6.7489                 6.8055                 9.1500
 IR Inten    --      1.4104                13.3626                16.6783

 - Thermochemistry -
 -------------------
 Temperature   298.150 Kelvin.  Pressure   1.00000 Atm.
 Atom     1 has atomic number  8 and mass  15.99491

 Molecular mass:   126.06808 amu.
 Principal axes and moments of inertia in atomic units:
                           1         2         3
     Eigenvalues --   413.555961816.968721923.96847
           X            0.99997   0.00282  -0.00671
           Y           -0.00212   0.99480   0.10178
           Z            0.00696  -0.10176   0.99478
 This molecule is an asymmetric top.
 Rotational symmetry number  1.
 Rotational temperatures (Kelvin)      0.20944     0.04767     0.04502
 Rotational constants (GHZ):           4.36396     0.99327     0.93803
 Zero-point vibrational energy     414565.6 (Joules/Mol)
                                   99.08355 (Kcal/Mol)
 Warning -- explicit consideration of  11 degrees of freedom as
           vibrations may cause significant error
 Vibrational temperatures:    109.52   139.38   243.30   367.20   374.34
          (Kelvin)            406.37   502.66   551.67   612.94   722.36
                              886.15  1021.70  1109.72  1125.07  1221.27
                             1277.56  1300.86  1326.38  1352.15  1401.70
                             1410.38  1450.96  1518.58  1526.64  1545.49
                             1553.75  1634.56  1683.00  1705.85  1732.80
                             1755.87  1786.56  1849.21  1971.54  2008.73
                             2017.48  2094.62  2107.40  2125.83  2133.98
                             2169.34  4282.51  4389.73  4449.85  4474.71
                             4493.04  4503.73  4566.44  4606.12  4629.53
                             5490.97

 Zero-point correction=                           0.157900 (Hartree/Particle)
 Thermal correction to Energy=                    0.166553
 Thermal correction to Enthalpy=                  0.167497
 Thermal correction to Gibbs Free Energy=         0.124462
 Sum of electronic and zero-point Energies=           -422.962225
 Sum of electronic and thermal Energies=              -422.953572
 Sum of electronic and thermal Enthalpies=            -422.952628
 Sum of electronic and thermal Free Energies=         -422.995663

                     E (Thermal)             CV                S
                      KCal/Mol        Cal/Mol-Kelvin    Cal/Mol-Kelvin
 Total                  104.513             32.962             90.574
 Electronic               0.000              0.000              0.000
 Translational            0.889              2.981             40.409
 Rotational               0.889              2.981             28.760
 Vibrational            102.736             27.000             21.406
 Vibration     1          0.599              1.965              3.988
 Vibration     2          0.603              1.951              3.516
 Vibration     3          0.625              1.881              2.445
 Vibration     4          0.666              1.754              1.694
 Vibration     5          0.668              1.746              1.661
 Vibration     6          0.681              1.706              1.519
 Vibration     7          0.727              1.577              1.169
 Vibration     8          0.753              1.506              1.026
 Vibration     9          0.788              1.414              0.872
 Vibration    10          0.857              1.245              0.653
 Vibration    11          0.975              0.998              0.423

 Optimization completed.
    -- Stationary point found.
 Normal termination of Gaussian 09 at Tue Jan 28 10:03:06 2020.
