 Gaussian 09, Revision D.01,
 Gaussian 09:  ES64L-G09RevD.01 24-Apr-2013

 -----------------------------
 # b3lyp 6-31G(2df,p) opt Freq
 -----------------------------

 -----
 titel
 -----
 Symbolic Z-matrix:
 Charge =  0 Multiplicity = 1

 SCF Done:  E(RB3LYP) =  -423.112703859     A.U. after   14 cycles
 Optimization completed.
    -- Stationary point found.
 Normal termination of Gaussian 09 at Tue Jan 28 14:14:55 2020.

 ----------------------------------------------------------------------
 #N Geom=AllCheck Guess=TCheck SCRF=Check GenChk RB3LYP/6-31G(2df,p) Fr
 eq
 ----------------------------------------------------------------------

 Structure from the checkpoint file:  "/scratch/puck/g09_3eb2e8a4-52f9-41c3-b36e-fa6aba63ae48/Gau-34296.chk"
 -----
 titel
 -----
 Charge =  0 Multiplicity = 1

                         Standard orientation:
 ---------------------------------------------------------------------
 Center     Atomic      Atomic             Coordinates (Angstroms)
 Number     Number       Type             X           Y           Z
 ---------------------------------------------------------------------
      1          6           0       -3.413392    0.892283    0.067304
      2          8           0       -2.385760   -0.032169    0.334852
      3          6           0       -1.293043    0.087977   -0.546517
      4          6           0       -0.263295   -0.952737   -0.146589
      5          6           0        0.574817   -0.670334    1.114476
      6          6           0        1.783951   -0.660374    0.139114
      7          8           0        0.905024   -0.880174   -0.997570
      8          6           0        2.560316    0.564184    0.043157
      9          6           0        3.202041    1.578798   -0.019833
     10          1           0       -3.827501    0.759894   -0.944625
     11          1           0       -4.206626    0.721194    0.799080
     12          1           0       -3.061410    1.931824    0.159672
     13          1           0       -1.599311   -0.082322   -1.592591
     14          1           0       -0.844304    1.094102   -0.494417
     15          1           0       -0.719599   -1.949804   -0.175630
     16          1           0        0.369677    0.287735    1.592113
     17          1           0        0.595345   -1.459643    1.865486
     18          1           0        2.459304   -1.515943    0.267530
     19          1           0        3.771947    2.472924   -0.081535
 ---------------------------------------------------------------------

 SCF Done:  E(RB3LYP) =  -423.112703859     A.U. after    1 cycles

 The electronic state is 1-A.
 Alpha  occ. eigenvalues --  -19.14428 -19.13873 -10.25904 -10.23616 -10.22693
 Alpha  occ. eigenvalues --  -10.22687 -10.19375 -10.18426 -10.18052  -1.04624
 Alpha  occ. eigenvalues --   -1.03455  -0.77592  -0.76456  -0.72552  -0.68164
 Alpha  occ. eigenvalues --   -0.63672  -0.56777  -0.53446  -0.50710  -0.49261
 Alpha  occ. eigenvalues --   -0.49133  -0.47028  -0.45390  -0.43646  -0.40981
 Alpha  occ. eigenvalues --   -0.39075  -0.37488  -0.34424  -0.32368  -0.31324
 Alpha  occ. eigenvalues --   -0.27857  -0.26936  -0.26000  -0.25510
 Alpha virt. eigenvalues --    0.02000   0.04591   0.08746   0.10389   0.11711
 Alpha virt. eigenvalues --    0.12291   0.12785   0.13402   0.15566   0.15978
 Alpha virt. eigenvalues --    0.16860   0.17788   0.18261   0.19131   0.20022

 Mulliken charges:
               1
     1  C   -0.224282
     2  O   -0.237276
     3  C   -0.069944
     4  C    0.125684
     5  C   -0.306023
     6  C   -0.038287
     7  O   -0.300819
     8  C    0.338158
     9  C   -0.456616
    10  H    0.106697
    11  H    0.127700
    12  H    0.106151
    13  H    0.096103
    14  H    0.093880
    15  H    0.086155
    16  H    0.125845
    17  H    0.117862
    18  H    0.106271
    19  H    0.202740
 Sum of Mulliken charges =   0.00000

 Dipole moment (field-independent basis, Debye):
    X=             -0.6249    Y=              0.7963    Z=              0.9338  Tot=              1.3771
 Quadrupole moment (field-independent basis, Debye-Ang):
   XX=            -49.0594   YY=            -48.9345   ZZ=            -55.5745
   XY=             -0.1766   XZ=              3.2627   YZ=             -1.6967

  Exact polarizability:  95.432  11.060  79.041  -0.216  -1.852  61.024
 Approx polarizability: 116.232  23.131 124.179  -1.742  -2.473  92.172

                      1                      2                      3
                      A                      A                      A
 Frequencies --     26.3191                78.9665                91.7451
 Red. masses --      4.4344                 2.5716                 2.3449
 Frc consts  --      0.0018                 0.0094                 0.0116
 IR Inten    --      0.1337                 0.7553                 3.9797

                      4                      5                      6
                      A                      A                      A
 Frequencies --    160.7050               189.0945               224.7670
 Red. masses --      3.3933                 3.2241                 1.7636
 Frc consts  --      0.0516                 0.0679                 0.0525
 IR Inten    --      3.2440                 2.6506                 0.7660

                      7                      8                      9
                      A                      A                      A
 Frequencies --    239.9574               335.8568               400.6708
 Red. masses --      2.3769                 2.7019                 4.8867
 Frc consts  --      0.0806                 0.1796                 0.4622
 IR Inten    --      3.9518                 0.2687                 2.7013

                     10                     11                     12
                      A                      A                      A
 Frequencies --    462.8744               501.2181               541.0580
 Red. masses --      2.4550                 4.2506                 6.8471
 Frc consts  --      0.3099                 0.6292                 1.1810
 IR Inten    --      1.7972                 1.7617                 2.8555

                     13                     14                     15
                      A                      A                      A
 Frequencies --    617.1116               670.8728               735.3760
 Red. masses --      1.2188                 1.2514                 2.5131
 Frc consts  --      0.2735                 0.3318                 0.8007
 IR Inten    --     42.0824                34.5855                 6.2139

                     16                     17                     18
                      A                      A                      A
 Frequencies --    839.9980               899.0997               936.2769
 Red. masses --      2.6503                 2.7627                 1.4583
 Frc consts  --      1.1018                 1.3159                 0.7532
 IR Inten    --      4.2292                 2.2239                 2.6066

                     19                     20                     21
                      A                      A                      A
 Frequencies --    968.5887               995.9023              1030.3816
 Red. masses --      4.8326                 5.0196                 5.1959
 Frc consts  --      2.6712                 2.9333                 3.2502
 IR Inten    --     48.5705                47.8705               118.5335

                     22                     23                     24
                      A                      A                      A
 Frequencies --   1052.3906              1096.9073              1128.7960
 Red. masses --      2.8217                 1.7623                 2.1334
 Frc consts  --      1.8413                 1.2493                 1.6016
 IR Inten    --      8.6361                 7.5420                10.7765

                     25                     26                     27
                      A                      A                      A
 Frequencies --   1159.3298              1174.0684              1197.5024
 Red. masses --      2.3076                 1.7457                 1.5661
 Frc consts  --      1.8273                 1.4177                 1.3232
 IR Inten    --    103.3224                47.2593                 8.9379

                     28                     29                     30
                      A                      A                      A
 Frequencies --   1225.9048              1250.6973              1251.1593
 Red. masses --      1.5980                 1.4031                 1.2387
 Frc consts  --      1.4150                 1.2931                 1.1425
 IR Inten    --     44.9113                 9.8346                 2.5448

                     31                     32                     33
                      A                      A                      A
 Frequencies --   1256.6301              1299.6782              1357.6390
 Red. masses --      1.2656                 1.3816                 1.3026
 Frc consts  --      1.1775                 1.3750                 1.4146
 IR Inten    --      1.8521                 3.6140                38.0492

                     34                     35                     36
                      A                      A                      A
 Frequencies --   1379.1259              1427.6416              1481.6476
 Red. masses --      1.4217                 1.5434                 1.1660
 Frc consts  --      1.5932                 1.8534                 1.5081
 IR Inten    --     14.8832                 3.4242                 2.1209

                     37                     38                     39
                      A                      A                      A
 Frequencies --   1485.4669              1490.0007              1504.4518
 Red. masses --      1.0475                 1.1172                 1.0641
 Frc consts  --      1.3619                 1.4614                 1.4191
 IR Inten    --      4.4468                 4.3510                12.3077

                     40                     41                     42
                      A                      A                      A
 Frequencies --   1526.8417              2234.1632              2956.6420
 Red. masses --      1.0896                 5.9250                 1.0514
 Frc consts  --      1.4967                17.4247                 5.4150
 IR Inten    --      1.7151                 2.3888                32.2498

                     43                     44                     45
                      A                      A                      A
 Frequencies --   2974.2931              2990.1530              3017.0875
 Red. masses --      1.0393                 1.1038                 1.1032
 Frc consts  --      5.4171                 5.8145                 5.9166
 IR Inten    --     68.0592                37.0274                55.3305

                     46                     47                     48
                      A                      A                      A
 Frequencies --   3018.2441              3035.0520              3094.7611
 Red. masses --      1.0834                 1.0881                 1.0591
 Frc consts  --      5.8152                 5.9055                 5.9765
 IR Inten    --     34.5179                66.2058                15.2765

                     49                     50                     51
                      A                      A                      A
 Frequencies --   3114.4285              3154.5428              3502.6461
 Red. masses --      1.0962                 1.1097                 1.1623
 Frc consts  --      6.2649                 6.5064                 8.4019
 IR Inten    --     30.4874                14.8272                62.3152

 - Thermochemistry -
 -------------------
 Temperature   298.150 Kelvin.  Pressure   1.00000 Atm.
 Atom     1 has atomic number  6 and mass  12.00000

 Molecular mass:   126.06808 amu.
 Principal axes and moments of inertia in atomic units:
                           1         2         3
     Eigenvalues --   517.996892222.421322404.00173
           X            0.99987  -0.01302   0.00972
           Y            0.01354   0.99841  -0.05476
           Z           -0.00899   0.05488   0.99845
 This molecule is an asymmetric top.
 Rotational symmetry number  1.
 Warning -- assumption of classical behavior for rotation
           may cause significant error
 Rotational temperatures (Kelvin)      0.16721     0.03897     0.03603
 Rotational constants (GHZ):           3.48408     0.81206     0.75072
 Zero-point vibrational energy     411424.1 (Joules/Mol)
                                   98.33271 (Kcal/Mol)
 Warning -- explicit consideration of  13 degrees of freedom as
           vibrations may cause significant error
 Vibrational temperatures:     37.87   113.61   132.00   231.22   272.06
          (Kelvin)            323.39   345.24   483.22   576.48   665.97
                              721.14   778.46   887.88   965.24  1058.04
                             1208.57  1293.60  1347.09  1393.58  1432.88
                             1482.49  1514.15  1578.20  1624.08  1668.01
                             1689.22  1722.94  1763.80  1799.47  1800.14
                             1808.01  1869.94  1953.34  1984.25  2054.06
                             2131.76  2137.25  2143.78  2164.57  2196.78
                             3214.46  4253.94  4279.34  4302.16  4340.91
                             4342.57  4366.76  4452.67  4480.96  4538.68
                             5039.52

 Zero-point correction=                           0.156703 (Hartree/Particle)
 Thermal correction to Energy=                    0.166436
 Thermal correction to Enthalpy=                  0.167380
 Thermal correction to Gibbs Free Energy=         0.120591
 Sum of electronic and zero-point Energies=           -422.956001
 Sum of electronic and thermal Energies=              -422.946268
 Sum of electronic and thermal Enthalpies=            -422.945324
 Sum of electronic and thermal Free Energies=         -422.992113

                     E (Thermal)             CV                S
                      KCal/Mol        Cal/Mol-Kelvin    Cal/Mol-Kelvin
 Total                  104.440             34.425             98.476
 Electronic               0.000              0.000              0.000
 Translational            0.889              2.981             40.409
 Rotational               0.889              2.981             29.405
 Vibrational            102.663             28.464             28.663
 Vibration     1          0.593              1.985              6.089
 Vibration     2          0.600              1.963              3.916
 Vibration     3          0.602              1.955              3.623
 Vibration     4          0.622              1.891              2.541
 Vibration     5          0.633              1.855              2.237
 Vibration     6          0.649              1.803              1.920
 Vibration     7          0.657              1.779              1.803
 Vibration     8          0.717              1.604              1.232
 Vibration     9          0.767              1.469              0.960
 Vibration    10          0.821              1.332              0.758
 Vibration    11          0.857              1.247              0.655
 Vibration    12          0.896              1.159              0.563
 Vibration    13          0.977              0.996              0.421

 Optimization completed.
    -- Stationary point found.
 Normal termination of Gaussian 09 at Tue Jan 28 14:50:23 2020.
