 Gaussian 09, Revision D.01,
 Gaussian 09:  ES64L-G09RevD.01 24-Apr-2013

 -----------------------------
 # b3lyp 6-31G(2df,p) opt Freq
 -----------------------------

 -----
 titel
 -----
 Symbolic Z-matrix:
 Charge =  0 Multiplicity = 1

 SCF Done:  E(RB3LYP) =  -423.125868314     A.U. after   14 cycles
 Optimization completed.
    -- Stationary point found.
 Normal termination of Gaussian 09 at Tue Jan 28 09:43:05 2020.

 ----------------------------------------------------------------------
 #N Geom=AllCheck Guess=TCheck SCRF=Check GenChk RB3LYP/6-31G(2df,p) Fr
 eq
 ----------------------------------------------------------------------

 Structure from the checkpoint file:  "/scratch/puck/g09_5a9fb836-2479-410e-b94c-048563f46bf8/Gau-106468.chk"
 -----
 titel
 -----
 Charge =  0 Multiplicity = 1

                         Standard orientation:
 ---------------------------------------------------------------------
 Center     Atomic      Atomic             Coordinates (Angstroms)
 Number     Number       Type             X           Y           Z
 ---------------------------------------------------------------------
      1          8           0       -2.734485   -0.618033    0.383222
      2          6           0       -1.802835   -0.169655   -0.594397
      3          6           0       -0.482551    0.227772    0.004698
      4          6           0       -0.200908    1.644739    0.453922
      5          6           0        0.563018    1.064838   -0.712058
      6          6           0        1.783608    0.156344   -0.454901
      7          6           0        1.725289   -0.223433    1.040681
      8          6           0        0.454216   -0.904420    0.491412
      9          8           0        1.220044   -1.176712   -0.739615
     10          1           0       -2.844020    0.094305    1.022076
     11          1           0       -1.658310   -1.016187   -1.273901
     12          1           0       -2.212456    0.664099   -1.187339
     13          1           0       -0.959664    2.377338    0.188094
     14          1           0        0.285167    1.860784    1.397379
     15          1           0        0.402343    1.452111   -1.711420
     16          1           0        2.709908    0.366115   -0.988478
     17          1           0        2.485404   -0.967727    1.274470
     18          1           0        1.675308    0.536411    1.820952
     19          1           0       -0.007177   -1.786391    0.933180
 ---------------------------------------------------------------------

 SCF Done:  E(RB3LYP) =  -423.125868314     A.U. after    1 cycles

 The electronic state is 1-A.
 Alpha  occ. eigenvalues --  -19.13281 -19.12806 -10.24354 -10.23993 -10.22692
 Alpha  occ. eigenvalues --  -10.19938 -10.19717 -10.19569 -10.19028  -1.04380
 Alpha  occ. eigenvalues --   -1.01306  -0.87135  -0.74113  -0.71490  -0.67265
 Alpha  occ. eigenvalues --   -0.63276  -0.55266  -0.54567  -0.52874  -0.49574
 Alpha  occ. eigenvalues --   -0.48045  -0.45666  -0.43027  -0.41523  -0.40009
 Alpha  occ. eigenvalues --   -0.38448  -0.36558  -0.34286  -0.33353  -0.32624
 Alpha  occ. eigenvalues --   -0.29607  -0.27620  -0.26331  -0.24413
 Alpha virt. eigenvalues --    0.07588   0.08777   0.09383   0.10390   0.11393
 Alpha virt. eigenvalues --    0.12402   0.13734   0.15729   0.15994   0.17099
 Alpha virt. eigenvalues --    0.17327   0.18598   0.18891   0.19675   0.22802

 Mulliken charges:
               1
     1  O   -0.417212
     2  C   -0.156591
     3  C    0.334592
     4  C   -0.370482
     5  C   -0.102161
     6  C    0.066032
     7  C   -0.249404
     8  C    0.004332
     9  O   -0.302873
    10  H    0.279055
    11  H    0.124295
    12  H    0.081134
    13  H    0.110246
    14  H    0.116901
    15  H    0.097981
    16  H    0.081680
    17  H    0.116874
    18  H    0.096347
    19  H    0.089254
 Sum of Mulliken charges =   0.00000

 Dipole moment (field-independent basis, Debye):
    X=              0.5597    Y=              2.4799    Z=              1.1365  Tot=              2.7848
 Quadrupole moment (field-independent basis, Debye-Ang):
   XX=            -55.0208   YY=            -54.8705   ZZ=            -51.2475
   XY=             -2.5727   XZ=              0.4846   YZ=             -1.3743

  Exact polarizability:  81.014  -1.371  72.156  -0.425  -0.532  68.217
 Approx polarizability: 110.518   1.186 113.009  -6.326   2.003 107.032

                      1                      2                      3
                      A                      A                      A
 Frequencies --     88.1187               141.4128               251.8556
 Red. masses --      4.0018                 3.6420                 2.5211
 Frc consts  --      0.0183                 0.0429                 0.0942
 IR Inten    --      1.7653                 0.3696                 4.8719

                      4                      5                      6
                      A                      A                      A
 Frequencies --    311.0461               365.4333               402.5323
 Red. masses --      1.6133                 1.9875                 2.7818
 Frc consts  --      0.0920                 0.1564                 0.2656
 IR Inten    --     44.6869                59.7207                17.4541

                      7                      8                      9
                      A                      A                      A
 Frequencies --    458.5135               525.6820               614.4213
 Red. masses --      2.5578                 2.0777                 5.7118
 Frc consts  --      0.3168                 0.3383                 1.2705
 IR Inten    --      0.5958                 4.7713                 5.6262

                     10                     11                     12
                      A                      A                      A
 Frequencies --    660.7992               708.2207               773.3076
 Red. masses --      3.5626                 3.5115                 2.7685
 Frc consts  --      0.9165                 1.0377                 0.9754
 IR Inten    --      2.7680                 9.1453                17.5709

                     13                     14                     15
                      A                      A                      A
 Frequencies --    836.5206               857.2576               883.6090
 Red. masses --      3.7472                 2.6323                 2.6197
 Frc consts  --      1.5450                 1.1397                 1.2051
 IR Inten    --      9.9789                15.7301                 9.1307

                     16                     17                     18
                      A                      A                      A
 Frequencies --    900.6172               910.5471               937.9897
 Red. masses --      2.3117                 2.4565                 2.5889
 Frc consts  --      1.1048                 1.2000                 1.3420
 IR Inten    --     12.5011                14.6984                28.4219

                     19                     20                     21
                      A                      A                      A
 Frequencies --    967.7273               985.3077              1021.6532
 Red. masses --      1.7392                 1.8146                 1.3968
 Frc consts  --      0.9596                 1.0380                 0.8590
 IR Inten    --     14.0951                 5.3612                13.5661

                     22                     23                     24
                      A                      A                      A
 Frequencies --   1028.5874              1045.7400              1061.1976
 Red. masses --      1.6447                 1.6669                 3.0970
 Frc consts  --      1.0252                 1.0740                 2.0549
 IR Inten    --      6.0469                30.9308                68.6507

                     25                     26                     27
                      A                      A                      A
 Frequencies --   1084.0043              1090.6153              1110.1243
 Red. masses --      1.3079                 2.7286                 1.3899
 Frc consts  --      0.9055                 1.9122                 1.0092
 IR Inten    --     10.6099                 1.6691                 1.4899

                     28                     29                     30
                      A                      A                      A
 Frequencies --   1174.6858              1191.8185              1218.6200
 Red. masses --      1.4452                 1.4636                 1.4602
 Frc consts  --      1.1749                 1.2249                 1.2776
 IR Inten    --      5.3601                13.3380                 2.7794

                     31                     32                     33
                      A                      A                      A
 Frequencies --   1244.2905              1272.7940              1290.2455
 Red. masses --      1.4241                 1.5424                 1.4373
 Frc consts  --      1.2991                 1.4722                 1.4097
 IR Inten    --      1.9523                16.4036                12.9276

                     34                     35                     36
                      A                      A                      A
 Frequencies --   1297.1213              1309.9900              1366.5604
 Red. masses --      1.9186                 2.1793                 1.3246
 Frc consts  --      1.9020                 2.2034                 1.4575
 IR Inten    --      2.4346                 5.0538                 0.9810

                     37                     38                     39
                      A                      A                      A
 Frequencies --   1392.1115              1420.1366              1480.5418
 Red. masses --      1.6360                 1.4517                 1.3378
 Frc consts  --      1.8681                 1.7249                 1.7277
 IR Inten    --      5.0975                64.9050                 3.9412

                     40                     41                     42
                      A                      A                      A
 Frequencies --   1503.1930              1521.9534              2972.0272
 Red. masses --      1.0865                 1.1268                 1.0708
 Frc consts  --      1.4464                 1.5378                 5.5727
 IR Inten    --      3.4751                 2.2291                56.3154

                     43                     44                     45
                      A                      A                      A
 Frequencies --   3075.1514              3090.3431              3119.3102
 Red. masses --      1.0917                 1.0583                 1.0584
 Frc consts  --      6.0827                 5.9551                 6.0673
 IR Inten    --     17.9187                27.8048                22.6170

                     46                     47                     48
                      A                      A                      A
 Frequencies --   3129.9130              3138.5882              3154.8339
 Red. masses --      1.0902                 1.0923                 1.1074
 Frc consts  --      6.2926                 6.3394                 6.4937
 IR Inten    --     47.8909                18.1978                22.7950

                     49                     50                     51
                      A                      A                      A
 Frequencies --   3181.7851              3206.2318              3806.7906
 Red. masses --      1.0923                 1.1102                 1.0660
 Frc consts  --      6.5154                 6.7242                 9.1016
 IR Inten    --     10.3659                14.5079                12.8690

 - Thermochemistry -
 -------------------
 Temperature   298.150 Kelvin.  Pressure   1.00000 Atm.
 Atom     1 has atomic number  8 and mass  15.99491

 Molecular mass:   126.06808 amu.
 Principal axes and moments of inertia in atomic units:
                           1         2         3
     Eigenvalues --   576.161391276.651021438.30093
           X            0.99976  -0.00811   0.02024
           Y            0.00860   0.99967  -0.02435
           Z           -0.02004   0.02452   0.99950
 This molecule is an asymmetric top.
 Rotational symmetry number  1.
 Warning -- assumption of classical behavior for rotation
           may cause significant error
 Rotational temperatures (Kelvin)      0.15033     0.06784     0.06022
 Rotational constants (GHZ):           3.13235     1.41365     1.25477
 Zero-point vibrational energy     422173.4 (Joules/Mol)
                                  100.90186 (Kcal/Mol)
 Warning -- explicit consideration of   9 degrees of freedom as
           vibrations may cause significant error
 Vibrational temperatures:    126.78   203.46   362.36   447.53   525.78
          (Kelvin)            579.15   659.70   756.34   884.01   950.74
                             1018.97  1112.62  1203.57  1233.40  1271.31
                             1295.79  1310.07  1349.56  1392.34  1417.64
                             1469.93  1479.91  1504.58  1526.82  1559.64
                             1569.15  1597.22  1690.11  1714.76  1753.32
                             1790.25  1831.26  1856.37  1866.27  1884.78
                             1966.17  2002.94  2043.26  2130.17  2162.76
                             2189.75  4276.08  4424.45  4446.31  4487.99
                             4503.24  4515.72  4539.10  4577.87  4613.05
                             5477.12

 Zero-point correction=                           0.160797 (Hartree/Particle)
 Thermal correction to Energy=                    0.168303
 Thermal correction to Enthalpy=                  0.169247
 Thermal correction to Gibbs Free Energy=         0.128806
 Sum of electronic and zero-point Energies=           -422.965071
 Sum of electronic and thermal Energies=              -422.957566
 Sum of electronic and thermal Enthalpies=            -422.956621
 Sum of electronic and thermal Free Energies=         -422.997063

                     E (Thermal)             CV                S
                      KCal/Mol        Cal/Mol-Kelvin    Cal/Mol-Kelvin
 Total                  105.612             30.283             85.116
 Electronic               0.000              0.000              0.000
 Translational            0.889              2.981             40.409
 Rotational               0.889              2.981             28.450
 Vibrational            103.834             24.321             16.257
 Vibration     1          0.601              1.958              3.701
 Vibration     2          0.615              1.912              2.785
 Vibration     3          0.664              1.760              1.718
 Vibration     4          0.700              1.653              1.357
 Vibration     5          0.739              1.543              1.099
 Vibration     6          0.768              1.465              0.953
 Vibration     7          0.817              1.342              0.770
 Vibration     8          0.881              1.193              0.597
 Vibration     9          0.974              1.001              0.426

 Normal termination of Gaussian 09 at Tue Jan 28 10:28:22 2020.
