 Gaussian 09, Revision D.01,
 Gaussian 09:  ES64L-G09RevD.01 24-Apr-2013

 -----------------------------
 # b3lyp 6-31G(2df,p) opt Freq
 -----------------------------

 -----
 titel
 -----
 Symbolic Z-matrix:
 Charge =  0 Multiplicity = 1

 SCF Done:  E(RB3LYP) =  -423.158991400     A.U. after   14 cycles
 Optimization completed.
    -- Stationary point found.
 Normal termination of Gaussian 09 at Tue Jan 28 03:18:42 2020.

 ----------------------------------------------------------------------
 #N Geom=AllCheck Guess=TCheck SCRF=Check GenChk RB3LYP/6-31G(2df,p) Fr
 eq
 ----------------------------------------------------------------------

 Structure from the checkpoint file:  "/scratch/puck/g09_08530fee-a4d4-4c49-83a4-43a0a6316231/Gau-1371.chk"
 -----
 titel
 -----
 Charge =  0 Multiplicity = 1

                         Standard orientation:
 ---------------------------------------------------------------------
 Center     Atomic      Atomic             Coordinates (Angstroms)
 Number     Number       Type             X           Y           Z
 ---------------------------------------------------------------------
      1          6           0       -0.154278    2.018190   -0.664527
      2          6           0       -0.057023    1.033095    0.508108
      3          6           0       -1.439771    0.478796    0.963545
      4          6           0       -1.558853   -0.885898    0.307765
      5          8           0       -1.282561   -0.872501   -1.097376
      6          6           0       -0.247548   -1.308152   -0.199865
      7          6           0        0.740651   -0.230088    0.130235
      8          6           0        2.062453   -0.556454    0.683882
      9          8           0        1.920244   -0.094112   -0.661545
     10          1           0        0.844213    2.298354   -1.010076
     11          1           0       -0.693543    1.569649   -1.501625
     12          1           0       -0.681389    2.926935   -0.356059
     13          1           0        0.435627    1.538005    1.344736
     14          1           0       -1.477252    0.351290    2.051725
     15          1           0       -2.262962    1.143802    0.683758
     16          1           0       -2.318499   -1.595230    0.626920
     17          1           0        0.066950   -2.342694   -0.306542
     18          1           0        2.536544    0.141188    1.373509
     19          1           0        2.375062   -1.595332    0.790171
 ---------------------------------------------------------------------

 SCF Done:  E(RB3LYP) =  -423.158991400     A.U. after    1 cycles

 The electronic state is 1-A.
 Alpha  occ. eigenvalues --  -19.15376 -19.15354 -10.24384 -10.24077 -10.23807
 Alpha  occ. eigenvalues --  -10.23679 -10.19552 -10.19168 -10.16635  -1.08187
 Alpha  occ. eigenvalues --   -1.06815  -0.81489  -0.71902  -0.70928  -0.66016
 Alpha  occ. eigenvalues --   -0.63343  -0.58390  -0.55589  -0.53072  -0.48255
 Alpha  occ. eigenvalues --   -0.47246  -0.44787  -0.42743  -0.41035  -0.39878
 Alpha  occ. eigenvalues --   -0.39637  -0.37618  -0.35399  -0.34606  -0.33370
 Alpha  occ. eigenvalues --   -0.31887  -0.28987  -0.27826  -0.25244
 Alpha virt. eigenvalues --    0.07156   0.08773   0.10350   0.11244   0.11816
 Alpha virt. eigenvalues --    0.12677   0.14290   0.14931   0.15601   0.16570
 Alpha virt. eigenvalues --    0.17227   0.18919   0.19256   0.20151   0.21181

 Mulliken charges:
               1
     1  C   -0.392658
     2  C   -0.106435
     3  C   -0.260484
     4  C    0.046411
     5  O   -0.255030
     6  C   -0.052436
     7  C    0.472484
     8  C   -0.260736
     9  O   -0.282839
    10  H    0.127788
    11  H    0.141879
    12  H    0.104579
    13  H    0.076777
    14  H    0.104022
    15  H    0.113152
    16  H    0.096765
    17  H    0.099499
    18  H    0.114324
    19  H    0.112938
 Sum of Mulliken charges =   0.00000

 Dipole moment (field-independent basis, Debye):
    X=             -0.3601    Y=             -0.4550    Z=              3.0963  Tot=              3.1502
 Quadrupole moment (field-independent basis, Debye-Ang):
   XX=            -53.5362   YY=            -50.1133   ZZ=            -55.3205
   XY=             -1.2442   XZ=              0.7223   YZ=             -1.0924

  Exact polarizability:  83.256  -3.162  75.017   0.879  -0.371  64.090
 Approx polarizability: 118.467  -4.681 101.489   1.152  -0.302 105.461

                      1                      2                      3
                      A                      A                      A
 Frequencies --    100.8484               201.4698               225.5451
 Red. masses --      3.3946                 4.0705                 1.2230
 Frc consts  --      0.0203                 0.0973                 0.0367
 IR Inten    --      1.0412                 0.6827                 0.7005

                      4                      5                      6
                      A                      A                      A
 Frequencies --    246.4323               292.8529               355.2601
 Red. masses --      2.3088                 2.4664                 3.0234
 Frc consts  --      0.0826                 0.1246                 0.2248
 IR Inten    --      4.1622                 0.0550                 1.0354

                      7                      8                      9
                      A                      A                      A
 Frequencies --    376.9142               461.5793               498.4782
 Red. masses --      2.4793                 4.1474                 3.9631
 Frc consts  --      0.2075                 0.5206                 0.5802
 IR Inten    --      0.8892                 8.4651                 1.2060

                     10                     11                     12
                      A                      A                      A
 Frequencies --    569.3386               699.0726               762.0268
 Red. masses --      5.3682                 4.7834                 2.7715
 Frc consts  --      1.0252                 1.3773                 0.9482
 IR Inten    --     16.1409                 1.3922                11.5303

                     13                     14                     15
                      A                      A                      A
 Frequencies --    817.7200               857.0998               874.8231
 Red. masses --      3.5867                 2.2480                 2.6539
 Frc consts  --      1.4130                 0.9730                 1.1967
 IR Inten    --      5.3848                13.1123                23.4303

                     16                     17                     18
                      A                      A                      A
 Frequencies --    894.9196               898.4279               942.8195
 Red. masses --      1.9773                 3.4162                 1.4113
 Frc consts  --      0.9330                 1.6247                 0.7391
 IR Inten    --      9.8114                 1.6488                 3.7609

                     19                     20                     21
                      A                      A                      A
 Frequencies --    965.6227               984.0907              1018.4377
 Red. masses --      4.5287                 3.0077                 1.3691
 Frc consts  --      2.4880                 1.7162                 0.8367
 IR Inten    --     23.2439                20.4906                 4.7182

                     22                     23                     24
                      A                      A                      A
 Frequencies --   1049.0213              1092.0010              1111.9392
 Red. masses --      1.7959                 1.3366                 1.7337
 Frc consts  --      1.1644                 0.9391                 1.2629
 IR Inten    --      4.2142                 0.7717                 0.6045

                     25                     26                     27
                      A                      A                      A
 Frequencies --   1128.4660              1143.9893              1163.5662
 Red. masses --      1.2833                 1.8553                 1.3738
 Frc consts  --      0.9628                 1.4306                 1.0959
 IR Inten    --      2.7367                 1.6644                 0.5305

                     28                     29                     30
                      A                      A                      A
 Frequencies --   1220.1065              1246.4378              1261.2889
 Red. masses --      1.6148                 1.6024                 1.4158
 Frc consts  --      1.4163                 1.4668                 1.3270
 IR Inten    --      1.4594                 9.6816                 1.4556

                     31                     32                     33
                      A                      A                      A
 Frequencies --   1269.2900              1306.6780              1336.7227
 Red. masses --      1.6999                 1.7578                 1.7109
 Frc consts  --      1.6136                 1.7683                 1.8012
 IR Inten    --      1.3355                 6.8475                 1.2131

                     34                     35                     36
                      A                      A                      A
 Frequencies --   1353.0214              1400.3240              1409.7532
 Red. masses --      1.3996                 1.3966                 2.1592
 Frc consts  --      1.5096                 1.6135                 2.5283
 IR Inten    --      1.3631                 7.6370                 5.7403

                     37                     38                     39
                      A                      A                      A
 Frequencies --   1454.7491              1481.3289              1493.4873
 Red. masses --      2.4846                 1.0873                 1.0538
 Frc consts  --      3.0980                 1.4058                 1.3849
 IR Inten    --     11.2430                 2.2289                 3.0611

                     40                     41                     42
                      A                      A                      A
 Frequencies --   1511.8372              1531.4369              3037.6085
 Red. masses --      1.0520                 1.4150                 1.0650
 Frc consts  --      1.4167                 1.9553                 5.7897
 IR Inten    --      2.7254                 4.4844                19.7596

                     43                     44                     45
                      A                      A                      A
 Frequencies --   3042.6459              3055.1249              3074.3592
 Red. masses --      1.0391                 1.0792                 1.0503
 Frc consts  --      5.6677                 5.9346                 5.8488
 IR Inten    --     23.2593                28.0058                28.6159

                     46                     47                     48
                      A                      A                      A
 Frequencies --   3085.2597              3113.6436              3137.1595
 Red. masses --      1.1024                 1.0995                 1.1018
 Frc consts  --      6.1826                 6.2801                 6.3890
 IR Inten    --     21.1955                19.5691                13.7716

                     49                     50                     51
                      A                      A                      A
 Frequencies --   3143.5122              3157.6808              3161.4732
 Red. masses --      1.0881                 1.1019                 1.1122
 Frc consts  --      6.3349                 6.4735                 6.5498
 IR Inten    --     21.9648                 6.2343                43.5658

 - Thermochemistry -
 -------------------
 Temperature   298.150 Kelvin.  Pressure   1.00000 Atm.
 Atom     1 has atomic number  6 and mass  12.00000

 Molecular mass:   126.06808 amu.
 Principal axes and moments of inertia in atomic units:
                           1         2         3
     Eigenvalues --   742.133531038.912961309.92606
           X            0.99913  -0.04169   0.00279
           Y            0.04177   0.99815  -0.04407
           Z           -0.00095   0.04415   0.99902
 This molecule is an asymmetric top.
 Rotational symmetry number  1.
 Warning -- assumption of classical behavior for rotation
           may cause significant error
 Rotational temperatures (Kelvin)      0.11671     0.08337     0.06612
 Rotational constants (GHZ):           2.43183     1.73714     1.37774
 Zero-point vibrational energy     418798.8 (Joules/Mol)
                                  100.09531 (Kcal/Mol)
 Warning -- explicit consideration of  10 degrees of freedom as
           vibrations may cause significant error
 Vibrational temperatures:    145.10   289.87   324.51   354.56   421.35
          (Kelvin)            511.14   542.29   664.11   717.20   819.15
                             1005.81  1096.39  1176.52  1233.17  1258.67
                             1287.59  1292.64  1356.51  1389.31  1415.89
                             1465.30  1509.31  1571.14  1599.83  1623.61
                             1645.94  1674.11  1755.46  1793.34  1814.71
                             1826.22  1880.02  1923.24  1946.69  2014.75
                             2028.32  2093.06  2131.30  2148.79  2175.19
                             2203.39  4370.44  4377.68  4395.64  4423.31
                             4439.00  4479.83  4513.67  4522.81  4543.19
                             4548.65

 Zero-point correction=                           0.159512 (Hartree/Particle)
 Thermal correction to Energy=                    0.167361
 Thermal correction to Enthalpy=                  0.168305
 Thermal correction to Gibbs Free Energy=         0.127427
 Sum of electronic and zero-point Energies=           -422.999479
 Sum of electronic and thermal Energies=              -422.991631
 Sum of electronic and thermal Enthalpies=            -422.990686
 Sum of electronic and thermal Free Energies=         -423.031564

                     E (Thermal)             CV                S
                      KCal/Mol        Cal/Mol-Kelvin    Cal/Mol-Kelvin
 Total                  105.020             30.970             86.035
 Electronic               0.000              0.000              0.000
 Translational            0.889              2.981             40.409
 Rotational               0.889              2.981             28.403
 Vibrational            103.243             25.008             17.223
 Vibration     1          0.604              1.948              3.438
 Vibration     2          0.638              1.838              2.120
 Vibration     3          0.650              1.802              1.914
 Vibration     4          0.661              1.769              1.756
 Vibration     5          0.688              1.687              1.457
 Vibration     6          0.731              1.564              1.143
 Vibration     7          0.747              1.519              1.052
 Vibration     8          0.819              1.335              0.762
 Vibration     9          0.854              1.253              0.662
 Vibration    10          0.925              1.098              0.506

 Optimization completed.
    -- Stationary point found.
 Normal termination of Gaussian 09 at Tue Jan 28 04:03:31 2020.
