 Gaussian 09, Revision D.01,
 Gaussian 09:  ES64L-G09RevD.01 24-Apr-2013

 -----------------------------
 # b3lyp 6-31G(2df,p) opt Freq
 -----------------------------

 -----
 titel
 -----
 Symbolic Z-matrix:
 Charge =  0 Multiplicity = 1

 SCF Done:  E(RB3LYP) =  -423.165213230     A.U. after   14 cycles
 SCF Done:  E(RB3LYP) =  -423.165211178     A.U. after    9 cycles
 SCF Done:  E(RB3LYP) =  -423.165214558     A.U. after    9 cycles
 SCF Done:  E(RB3LYP) =  -423.165214739     A.U. after    7 cycles
 SCF Done:  E(RB3LYP) =  -423.165214936     A.U. after    7 cycles
 SCF Done:  E(RB3LYP) =  -423.165215141     A.U. after    7 cycles
 SCF Done:  E(RB3LYP) =  -423.165215858     A.U. after    9 cycles
 SCF Done:  E(RB3LYP) =  -423.165216088     A.U. after    8 cycles
 SCF Done:  E(RB3LYP) =  -423.165216286     A.U. after    8 cycles
 SCF Done:  E(RB3LYP) =  -423.165216298     A.U. after    7 cycles
 SCF Done:  E(RB3LYP) =  -423.165216218     A.U. after    6 cycles
 SCF Done:  E(RB3LYP) =  -423.165215942     A.U. after    9 cycles
 SCF Done:  E(RB3LYP) =  -423.165215595     A.U. after    9 cycles
 SCF Done:  E(RB3LYP) =  -423.165215544     A.U. after    6 cycles
 Optimization completed.
    -- Stationary point found.
 Normal termination of Gaussian 09 at Mon Jan 27 14:53:34 2020.

 ----------------------------------------------------------------------
 #N Geom=AllCheck Guess=TCheck SCRF=Check GenChk RB3LYP/6-31G(2df,p) Fr
 eq
 ----------------------------------------------------------------------

 Structure from the checkpoint file:  "/scratch/puck/g09_7609772b-355f-4802-a3a2-de3c9ab873dc/Gau-50333.chk"
 -----
 titel
 -----
 Charge =  0 Multiplicity = 1

                         Standard orientation:
 ---------------------------------------------------------------------
 Center     Atomic      Atomic             Coordinates (Angstroms)
 Number     Number       Type             X           Y           Z
 ---------------------------------------------------------------------
      1          6           0        3.758749    0.677980   -0.331026
      2          6           0        2.455218    0.140947    0.030305
      3          6           0        1.373819   -0.294766    0.330607
      4          6           0        0.072262   -0.849948    0.695238
      5          6           0       -0.663580   -1.531634   -0.486239
      6          8           0       -1.470190   -0.489777   -0.997042
      7          6           0       -1.910614    0.221981    0.135124
      8          6           0       -2.246372    1.649504   -0.233857
      9          8           0       -0.845124    0.180643    1.083154
     10          1           0        3.827692    1.742401   -0.081188
     11          1           0        4.564344    0.160025    0.200869
     12          1           0        3.948974    0.576442   -1.405115
     13          1           0        0.189464   -1.545691    1.535373
     14          1           0        0.004229   -1.882831   -1.272912
     15          1           0       -1.277869   -2.368171   -0.118639
     16          1           0       -2.784443   -0.291603    0.578621
     17          1           0       -2.546570    2.201431    0.660236
     18          1           0       -1.369798    2.129536   -0.674862
     19          1           0       -3.070413    1.667147   -0.952187
 ---------------------------------------------------------------------

 SCF Done:  E(RB3LYP) =  -423.165215544     A.U. after    1 cycles

 The electronic state is 1-A.
 Alpha  occ. eigenvalues --  -19.14961 -19.14101 -10.27623 -10.25518 -10.23709
 Alpha  occ. eigenvalues --  -10.20458 -10.17731 -10.17422 -10.16663  -1.08815
 Alpha  occ. eigenvalues --   -0.99274  -0.80094  -0.77027  -0.72133  -0.68482
 Alpha  occ. eigenvalues --   -0.63579  -0.59943  -0.52799  -0.50792  -0.47789
 Alpha  occ. eigenvalues --   -0.46206  -0.45516  -0.42861  -0.42642  -0.42448
 Alpha  occ. eigenvalues --   -0.39605  -0.38227  -0.37758  -0.34752  -0.33503
 Alpha  occ. eigenvalues --   -0.27872  -0.26733  -0.25248  -0.24437
 Alpha virt. eigenvalues --    0.04276   0.05193   0.10935   0.11060   0.12261
 Alpha virt. eigenvalues --    0.13182   0.13932   0.15088   0.15821   0.17180
 Alpha virt. eigenvalues --    0.18177   0.18392   0.18626   0.20176   0.21835

 Mulliken charges:
               1
     1  C   -0.497473
     2  C    0.029927
     3  C    0.128019
     4  C   -0.081885
     5  C   -0.121731
     6  O   -0.245368
     7  C    0.232375
     8  C   -0.401816
     9  O   -0.273186
    10  H    0.153211
    11  H    0.149114
    12  H    0.149320
    13  H    0.105331
    14  H    0.128361
    15  H    0.094870
    16  H    0.062141
    17  H    0.128809
    18  H    0.134889
    19  H    0.125093
 Sum of Mulliken charges =   0.00000

 Dipole moment (field-independent basis, Debye):
    X=              0.7794    Y=             -0.6089    Z=             -0.2097  Tot=              1.0110
 Quadrupole moment (field-independent basis, Debye-Ang):
   XX=            -44.9191   YY=            -49.4262   ZZ=            -55.9909
   XY=              0.9395   XZ=             -2.4301   YZ=             -1.4941

  Exact polarizability: 107.951   5.858  73.498  -5.626  -2.451  61.060
 Approx polarizability: 143.377  13.890 101.844 -11.485  -4.201  94.378

                      1                      2                      3
                      A                      A                      A
 Frequencies --     26.1184                29.6886                98.2555
 Red. masses --      1.0533                 3.2380                 3.8797
 Frc consts  --      0.0004                 0.0017                 0.0221
 IR Inten    --      0.0133                 0.5442                 1.9428

                      4                      5                      6
                      A                      A                      A
 Frequencies --    135.7677               198.3469               217.3968
 Red. masses --      4.4124                 1.9008                 1.3344
 Frc consts  --      0.0479                 0.0441                 0.0372
 IR Inten    --      3.8695                 2.5401                 1.3738

                      7                      8                      9
                      A                      A                      A
 Frequencies --    302.5287               321.0084               335.7503
 Red. masses --      3.0684                 3.9726                 2.9117
 Frc consts  --      0.1655                 0.2412                 0.1934
 IR Inten    --      0.9515                 3.7732                 6.3430

                     10                     11                     12
                      A                      A                      A
 Frequencies --    443.4585               495.0922               532.3363
 Red. masses --      5.5198                 2.7848                 5.1102
 Frc consts  --      0.6396                 0.4022                 0.8532
 IR Inten    --      0.9536                 4.1852                 0.2335

                     13                     14                     15
                      A                      A                      A
 Frequencies --    699.7318               721.5305               805.4206
 Red. masses --      4.7865                 3.9294                 6.1032
 Frc consts  --      1.3808                 1.2053                 2.3327
 IR Inten    --      8.0425                 2.4091                10.2243

                     16                     17                     18
                      A                      A                      A
 Frequencies --    845.0683               886.5975               946.3258
 Red. masses --      2.8043                 2.2346                 2.6645
 Frc consts  --      1.1799                 1.0349                 1.4059
 IR Inten    --      7.0040                41.7633                10.2738

                     19                     20                     21
                      A                      A                      A
 Frequencies --   1000.3161              1046.5806              1051.2646
 Red. masses --      4.2066                 2.0239                 1.4116
 Frc consts  --      2.4800                 1.3061                 0.9192
 IR Inten    --     81.6330                11.7719                 0.8467

                     22                     23                     24
                      A                      A                      A
 Frequencies --   1056.6391              1075.0671              1111.4993
 Red. masses --      1.5593                 3.7974                 1.9336
 Frc consts  --      1.0257                 2.5858                 1.4074
 IR Inten    --      4.4141                24.5596                78.1449

                     25                     26                     27
                      A                      A                      A
 Frequencies --   1134.8026              1167.5514              1181.2222
 Red. masses --      2.1187                 2.7884                 2.7487
 Frc consts  --      1.6075                 2.2395                 2.2596
 IR Inten    --     63.2326               128.9643                14.4895

                     28                     29                     30
                      A                      A                      A
 Frequencies --   1253.3945              1284.3634              1344.4015
 Red. masses --      1.2688                 1.4305                 1.1854
 Frc consts  --      1.1744                 1.3903                 1.2623
 IR Inten    --     20.6466                 5.7298                 1.9157

                     31                     32                     33
                      A                      A                      A
 Frequencies --   1371.6887              1387.3286              1396.7764
 Red. masses --      1.3849                 1.2833                 1.2498
 Frc consts  --      1.5353                 1.4553                 1.4367
 IR Inten    --     61.1859                15.4709                 1.3456

                     34                     35                     36
                      A                      A                      A
 Frequencies --   1414.1484              1435.0726              1477.0115
 Red. masses --      1.2400                 1.5170                 1.0394
 Frc consts  --      1.4610                 1.8407                 1.3360
 IR Inten    --      3.4663                61.8587                 5.8595

                     37                     38                     39
                      A                      A                      A
 Frequencies --   1478.3143              1483.9474              1485.4932
 Red. masses --      1.0399                 1.0582                 1.0527
 Frc consts  --      1.3390                 1.3730                 1.3686
 IR Inten    --      5.5174                 4.4002                 1.4497

                     40                     41                     42
                      A                      A                      A
 Frequencies --   1509.1751              2371.4970              2922.7244
 Red. masses --      1.1111                11.8629                 1.0824
 Frc consts  --      1.4911                39.3084                 5.4476
 IR Inten    --      3.2201                15.1979               106.6870

                     43                     44                     45
                      A                      A                      A
 Frequencies --   2985.4263              3026.9651              3028.2335
 Red. masses --      1.0710                 1.0831                 1.0350
 Frc consts  --      5.6241                 5.8468                 5.5921
 IR Inten    --     62.0972                51.7488                26.8716

                     46                     47                     48
                      A                      A                      A
 Frequencies --   3053.6667              3089.3357              3090.4731
 Red. masses --      1.0343                 1.1003                 1.1000
 Frc consts  --      5.6824                 6.1874                 6.1900
 IR Inten    --      9.1643                 9.9040                 8.7215

                     49                     50                     51
                      A                      A                      A
 Frequencies --   3132.2916              3133.1244              3141.5917
 Red. masses --      1.1018                 1.0947                 1.1031
 Frc consts  --      6.3691                 6.3312                 6.4147
 IR Inten    --     14.6684                15.5827                17.5065

 - Thermochemistry -
 -------------------
 Temperature   298.150 Kelvin.  Pressure   1.00000 Atm.
 Atom     1 has atomic number  6 and mass  12.00000

 Molecular mass:   126.06808 amu.
 Principal axes and moments of inertia in atomic units:
                           1         2         3
     Eigenvalues --   584.010991978.429542170.55672
           X            0.99996  -0.00145  -0.00881
           Y            0.00106   0.99904  -0.04387
           Z            0.00886   0.04385   0.99900
 This molecule is an asymmetric top.
 Rotational symmetry number  1.
 Warning -- assumption of classical behavior for rotation
           may cause significant error
 Rotational temperatures (Kelvin)      0.14831     0.04378     0.03990
 Rotational constants (GHZ):           3.09025     0.91221     0.83146
 Zero-point vibrational energy     413679.5 (Joules/Mol)
                                   98.87177 (Kcal/Mol)
 Warning -- explicit consideration of  12 degrees of freedom as
           vibrations may cause significant error
 Vibrational temperatures:     37.58    42.72   141.37   195.34   285.38
          (Kelvin)            312.79   435.27   461.86   483.07   638.04
                              712.33   765.91  1006.76  1038.12  1158.82
                             1215.86  1275.61  1361.55  1439.23  1505.79
                             1512.53  1520.27  1546.78  1599.20  1632.73
                             1679.84  1699.51  1803.35  1847.91  1934.29
                             1973.55  1996.05  2009.65  2034.64  2064.75
                             2125.09  2126.96  2135.07  2137.29  2171.36
                             3412.05  4205.14  4295.36  4355.12  4356.95
                             4393.54  4444.86  4446.50  4506.66  4507.86
                             4520.04

 Zero-point correction=                           0.157562 (Hartree/Particle)
 Thermal correction to Energy=                    0.167348
 Thermal correction to Enthalpy=                  0.168292
 Thermal correction to Gibbs Free Energy=         0.120674
 Sum of electronic and zero-point Energies=           -423.007653
 Sum of electronic and thermal Energies=              -422.997868
 Sum of electronic and thermal Enthalpies=            -422.996924
 Sum of electronic and thermal Free Energies=         -423.044541

                     E (Thermal)             CV                S
                      KCal/Mol        Cal/Mol-Kelvin    Cal/Mol-Kelvin
 Total                  105.012             33.973            100.220
 Electronic               0.000              0.000              0.000
 Translational            0.889              2.981             40.409
 Rotational               0.889              2.981             29.307
 Vibrational            103.235             28.011             30.504
 Vibration     1          0.593              1.985              6.104
 Vibration     2          0.593              1.984              5.850
 Vibration     3          0.604              1.950              3.489
 Vibration     4          0.614              1.918              2.863
 Vibration     5          0.637              1.842              2.148
 Vibration     6          0.646              1.815              1.981
 Vibration     7          0.694              1.669              1.403
 Vibration     8          0.706              1.633              1.305
 Vibration     9          0.717              1.604              1.232
 Vibration    10          0.803              1.375              0.816
 Vibration    11          0.851              1.261              0.671
 Vibration    12          0.887              1.178              0.582

 Optimization completed.
    -- Stationary point found.
 Normal termination of Gaussian 09 at Mon Jan 27 15:29:42 2020.
