 Gaussian 09, Revision D.01,
 Gaussian 09:  ES64L-G09RevD.01 24-Apr-2013

 -----------------------------
 # b3lyp 6-31G(2df,p) opt Freq
 -----------------------------

 -----
 titel
 -----
 Symbolic Z-matrix:
 Charge =  0 Multiplicity = 1

 SCF Done:  E(RB3LYP) =  -423.136122325     A.U. after   14 cycles
 Optimization completed.
    -- Stationary point found.
 Normal termination of Gaussian 09 at Tue Jan 28 09:43:03 2020.

 ----------------------------------------------------------------------
 #N Geom=AllCheck Guess=TCheck SCRF=Check GenChk RB3LYP/6-31G(2df,p) Fr
 eq
 ----------------------------------------------------------------------

 Structure from the checkpoint file:  "/scratch/puck/g09_18c50f0e-66a4-49d2-b94b-78c6c7566e9a/Gau-106469.chk"
 -----
 titel
 -----
 Charge =  0 Multiplicity = 1

                         Standard orientation:
 ---------------------------------------------------------------------
 Center     Atomic      Atomic             Coordinates (Angstroms)
 Number     Number       Type             X           Y           Z
 ---------------------------------------------------------------------
      1          8           0        2.743821   -0.511740    0.421318
      2          6           0        1.841877   -0.213956   -0.634482
      3          6           0        0.474996    0.117669   -0.117580
      4          8           0        0.327058    1.441437    0.454093
      5          6           0       -0.489238    1.069139   -0.670489
      6          6           0       -1.828064    0.377447   -0.325455
      7          6           0       -1.466192   -1.093436   -0.740605
      8          6           0       -0.475984   -0.953683    0.470824
      9          6           0       -1.590301   -0.099165    1.134553
     10          1           0        2.773212    0.266290    0.989400
     11          1           0        2.207722    0.615940   -1.256820
     12          1           0        1.799798   -1.113570   -1.258359
     13          1           0       -0.351536    1.652585   -1.575431
     14          1           0       -2.749775    0.865797   -0.639952
     15          1           0       -2.275024   -1.806009   -0.560038
     16          1           0       -1.038958   -1.252179   -1.736008
     17          1           0       -0.019625   -1.811766    0.961647
     18          1           0       -2.414090   -0.718844    1.492870
     19          1           0       -1.301318    0.640089    1.878815
 ---------------------------------------------------------------------

 SCF Done:  E(RB3LYP) =  -423.136122325     A.U. after    1 cycles

 The electronic state is 1-A.
 Alpha  occ. eigenvalues --  -19.14987 -19.13572 -10.23443 -10.23354 -10.23253
 Alpha  occ. eigenvalues --  -10.19999 -10.19716 -10.19301 -10.18335  -1.07166
 Alpha  occ. eigenvalues --   -1.01577  -0.87362  -0.73195  -0.68788  -0.65811
 Alpha  occ. eigenvalues --   -0.64373  -0.56036  -0.54961  -0.52468  -0.49328
 Alpha  occ. eigenvalues --   -0.47480  -0.45438  -0.44051  -0.41016  -0.39387
 Alpha  occ. eigenvalues --   -0.36912  -0.36014  -0.34499  -0.33072  -0.32444
 Alpha  occ. eigenvalues --   -0.31447  -0.28775  -0.26816  -0.25647
 Alpha virt. eigenvalues --    0.07317   0.08830   0.10106   0.11162   0.12306
 Alpha virt. eigenvalues --    0.13010   0.13769   0.14705   0.16183   0.16997
 Alpha virt. eigenvalues --    0.18049   0.19123   0.19813   0.20924   0.21156

 Mulliken charges:
               1
     1  O   -0.416835
     2  C   -0.169513
     3  C    0.411137
     4  O   -0.310866
     5  C   -0.031993
     6  C   -0.078690
     7  C   -0.223018
     8  C   -0.111334
     9  C   -0.216342
    10  H    0.292454
    11  H    0.094306
    12  H    0.112931
    13  H    0.099099
    14  H    0.066969
    15  H    0.100003
    16  H    0.092787
    17  H    0.075733
    18  H    0.095915
    19  H    0.117258
 Sum of Mulliken charges =   0.00000

 Dipole moment (field-independent basis, Debye):
    X=             -1.4054    Y=             -0.1165    Z=             -1.1121  Tot=              1.7960
 Quadrupole moment (field-independent basis, Debye-Ang):
   XX=            -54.8830   YY=            -54.8823   ZZ=            -51.0551
   XY=              3.1149   XZ=             -0.0406   YZ=             -0.8909

  Exact polarizability:  81.950   0.590  70.505   0.158  -0.997  69.057
 Approx polarizability: 111.370  -1.361 112.208   5.292   0.935 106.591

                      1                      2                      3
                      A                      A                      A
 Frequencies --     78.0999               142.3808               260.5704
 Red. masses --      3.8459                 4.0129                 2.3425
 Frc consts  --      0.0138                 0.0479                 0.0937
 IR Inten    --      4.3511                 0.0665                 4.3226

                      4                      5                      6
                      A                      A                      A
 Frequencies --    325.9735               399.9556               430.7888
 Red. masses --      2.5261                 1.6193                 2.2531
 Frc consts  --      0.1582                 0.1526                 0.2464
 IR Inten    --     17.3010                93.9327                14.9038

                      7                      8                      9
                      A                      A                      A
 Frequencies --    475.4143               518.0113               590.4847
 Red. masses --      3.5850                 2.1441                 3.2504
 Frc consts  --      0.4774                 0.3390                 0.6677
 IR Inten    --      0.3820                 6.0591                12.2586

                     10                     11                     12
                      A                      A                      A
 Frequencies --    677.6748               706.3639               812.4261
 Red. masses --      4.3393                 3.8155                 3.7755
 Frc consts  --      1.1741                 1.1217                 1.4682
 IR Inten    --     11.8112                 2.8087                 4.4778

                     13                     14                     15
                      A                      A                      A
 Frequencies --    841.2011               847.7887               855.3527
 Red. masses --      2.3908                 2.2701                 2.6113
 Frc consts  --      0.9968                 0.9613                 1.1256
 IR Inten    --      0.1423                 0.6022                 9.9013

                     16                     17                     18
                      A                      A                      A
 Frequencies --    884.9082               931.2221               955.1094
 Red. masses --      2.9758                 2.1446                 3.9395
 Frc consts  --      1.3729                 1.0957                 2.1174
 IR Inten    --      0.7107                 1.8230                50.2050

                     19                     20                     21
                      A                      A                      A
 Frequencies --    974.1311               994.0200              1010.5268
 Red. masses --      1.8195                 1.4927                 2.0114
 Frc consts  --      1.0173                 0.8690                 1.2102
 IR Inten    --     18.0014                 1.7142                10.9122

                     22                     23                     24
                      A                      A                      A
 Frequencies --   1025.7231              1067.0772              1070.4811
 Red. masses --      1.9108                 3.5011                 1.1161
 Frc consts  --      1.1845                 2.3488                 0.7536
 IR Inten    --      1.7099                62.5072                 2.7473

                     25                     26                     27
                      A                      A                      A
 Frequencies --   1087.2550              1108.8263              1121.3539
 Red. masses --      1.9091                 1.4895                 1.3291
 Frc consts  --      1.3297                 1.0790                 0.9847
 IR Inten    --     12.8914                 1.9625                 2.3297

                     28                     29                     30
                      A                      A                      A
 Frequencies --   1172.5367              1223.5668              1233.4243
 Red. masses --      1.7227                 1.3297                 1.5084
 Frc consts  --      1.3955                 1.1729                 1.3520
 IR Inten    --      8.1701                 1.1243                 4.3993

                     31                     32                     33
                      A                      A                      A
 Frequencies --   1241.8043              1248.3954              1276.7130
 Red. masses --      1.3309                 1.5872                 1.6949
 Frc consts  --      1.2092                 1.4574                 1.6278
 IR Inten    --      5.0242                 4.5187                 2.7308

                     34                     35                     36
                      A                      A                      A
 Frequencies --   1291.2951              1306.6966              1372.5223
 Red. masses --      1.5940                 1.8550                 1.2968
 Frc consts  --      1.5660                 1.8661                 1.4393
 IR Inten    --      8.9250                14.4804                 1.1745

                     37                     38                     39
                      A                      A                      A
 Frequencies --   1421.0780              1459.1607              1480.7511
 Red. masses --      1.2897                 3.4693                 1.0971
 Frc consts  --      1.5345                 4.3521                 1.4173
 IR Inten    --     46.7878                23.0948                 1.9740

                     40                     41                     42
                      A                      A                      A
 Frequencies --   1488.2548              1516.4815              2996.6230
 Red. masses --      1.1008                 1.1458                 1.0667
 Frc consts  --      1.4365                 1.5525                 5.6436
 IR Inten    --      2.0982                 4.0954                45.1720

                     43                     44                     45
                      A                      A                      A
 Frequencies --   3047.0508              3072.3775              3088.1447
 Red. masses --      1.0579                 1.0960                 1.0608
 Frc consts  --      5.7869                 6.0958                 5.9602
 IR Inten    --     40.7069                23.8753                19.6201

                     46                     47                     48
                      A                      A                      A
 Frequencies --   3110.8332              3121.4095              3131.7143
 Red. masses --      1.1062                 1.0895                 1.0902
 Frc consts  --      6.3071                 6.2544                 6.2996
 IR Inten    --     30.0308                56.0068                28.1661

                     49                     50                     51
                      A                      A                      A
 Frequencies --   3160.9732              3166.9995              3803.7305
 Red. masses --      1.1062                 1.0926                 1.0660
 Frc consts  --      6.5123                 6.4569                 9.0872
 IR Inten    --     13.8184                19.0277                22.8527

 - Thermochemistry -
 -------------------
 Temperature   298.150 Kelvin.  Pressure   1.00000 Atm.
 Atom     1 has atomic number  8 and mass  15.99491

 Molecular mass:   126.06808 amu.
 Principal axes and moments of inertia in atomic units:
                           1         2         3
     Eigenvalues --   545.515041301.803051421.68343
           X            0.99979   0.01633  -0.01211
           Y           -0.01657   0.99965  -0.02065
           Z            0.01177   0.02084   0.99971
 This molecule is an asymmetric top.
 Rotational symmetry number  1.
 Warning -- assumption of classical behavior for rotation
           may cause significant error
 Rotational temperatures (Kelvin)      0.15877     0.06653     0.06092
 Rotational constants (GHZ):           3.30833     1.38634     1.26944
 Zero-point vibrational energy     422435.2 (Joules/Mol)
                                  100.96445 (Kcal/Mol)
 Warning -- explicit consideration of   9 degrees of freedom as
           vibrations may cause significant error
 Vibrational temperatures:    112.37   204.85   374.90   469.00   575.45
          (Kelvin)            619.81   684.01   745.30   849.57   975.02
                             1016.30  1168.90  1210.30  1219.78  1230.66
                             1273.18  1339.82  1374.19  1401.56  1430.17
                             1453.92  1475.78  1535.28  1540.18  1564.32
                             1595.35  1613.38  1687.02  1760.44  1774.62
                             1786.68  1796.16  1836.90  1857.88  1880.04
                             1974.75  2044.61  2099.40  2130.47  2141.26
                             2181.88  4311.47  4384.02  4420.46  4443.15
                             4475.79  4491.01  4505.83  4547.93  4556.60
                             5472.71

 Zero-point correction=                           0.160897 (Hartree/Particle)
 Thermal correction to Energy=                    0.168310
 Thermal correction to Enthalpy=                  0.169255
 Thermal correction to Gibbs Free Energy=         0.128931
 Sum of electronic and zero-point Energies=           -422.975225
 Sum of electronic and thermal Energies=              -422.967812
 Sum of electronic and thermal Enthalpies=            -422.966868
 Sum of electronic and thermal Free Energies=         -423.007191

                     E (Thermal)             CV                S
                      KCal/Mol        Cal/Mol-Kelvin    Cal/Mol-Kelvin
 Total                  105.616             29.985             84.868
 Electronic               0.000              0.000              0.000
 Translational            0.889              2.981             40.409
 Rotational               0.889              2.981             28.403
 Vibrational            103.839             24.024             16.056
 Vibration     1          0.599              1.964              3.938
 Vibration     2          0.616              1.911              2.772
 Vibration     3          0.669              1.745              1.658
 Vibration     4          0.710              1.624              1.280
 Vibration     5          0.766              1.470              0.963
 Vibration     6          0.792              1.403              0.856
 Vibration     7          0.832              1.305              0.723
 Vibration     8          0.873              1.210              0.615
 Vibration     9          0.948              1.052              0.466

 Optimization completed.
    -- Stationary point found.
 Normal termination of Gaussian 09 at Tue Jan 28 10:29:12 2020.
