 Gaussian 09, Revision D.01,
 Gaussian 09:  ES64L-G09RevD.01 24-Apr-2013

 -----------------------------
 # b3lyp 6-31G(2df,p) opt Freq
 -----------------------------

 -----
 titel
 -----
 Symbolic Z-matrix:
 Charge =  0 Multiplicity = 1

 SCF Done:  E(RB3LYP) =  -423.192799406     A.U. after   13 cycles
 Optimization completed.
    -- Stationary point found.
 Normal termination of Gaussian 09 at Mon Jan 27 22:00:19 2020.

 ----------------------------------------------------------------------
 #N Geom=AllCheck Guess=TCheck SCRF=Check GenChk RB3LYP/6-31G(2df,p) Fr
 eq
 ----------------------------------------------------------------------

 Structure from the checkpoint file:  "/scratch/puck/g09_204a23a5-1df6-410c-9124-516792ede59d/Gau-99236.chk"
 -----
 titel
 -----
 Charge =  0 Multiplicity = 1

                         Standard orientation:
 ---------------------------------------------------------------------
 Center     Atomic      Atomic             Coordinates (Angstroms)
 Number     Number       Type             X           Y           Z
 ---------------------------------------------------------------------
      1          6           0        2.619416    0.213149   -0.326722
      2          6           0        1.228624   -0.251917   -0.051843
      3          6           0        0.495174   -1.165774   -0.696708
      4          6           0       -0.916706   -1.174501   -0.119301
      5          6           0       -0.648283   -0.739897    1.331824
      6          6           0        0.329740    0.399357    1.008275
      7          8           0       -0.437586    1.475856    0.431628
      8          6           0       -1.080249    1.101757   -0.774143
      9          8           0       -1.737619   -0.145999   -0.717650
     10          1           0        3.072588   -0.328194   -1.161587
     11          1           0        2.628238    1.283947   -0.564901
     12          1           0        3.261288    0.086067    0.554238
     13          1           0        0.799896   -1.736640   -1.566196
     14          1           0       -1.472305   -2.104052   -0.247623
     15          1           0       -1.548461   -0.391134    1.841223
     16          1           0       -0.166068   -1.533885    1.908585
     17          1           0        0.858945    0.836691    1.857099
     18          1           0       -1.848541    1.854696   -0.963912
     19          1           0       -0.350227    1.100614   -1.597042
 ---------------------------------------------------------------------

 SCF Done:  E(RB3LYP) =  -423.192799406     A.U. after    1 cycles

 The electronic state is 1-A.
 Alpha  occ. eigenvalues --  -19.13940 -19.13729 -10.26386 -10.23570 -10.23535
 Alpha  occ. eigenvalues --  -10.19486 -10.18968 -10.18129 -10.17679  -1.06309
 Alpha  occ. eigenvalues --   -0.99297  -0.84738  -0.75681  -0.70312  -0.67024
 Alpha  occ. eigenvalues --   -0.65995  -0.55517  -0.53987  -0.51448  -0.48222
 Alpha  occ. eigenvalues --   -0.46075  -0.44521  -0.43667  -0.41818  -0.40837
 Alpha  occ. eigenvalues --   -0.39806  -0.37677  -0.37414  -0.35394  -0.33503
 Alpha  occ. eigenvalues --   -0.30384  -0.25469  -0.25303  -0.25025
 Alpha virt. eigenvalues --   -0.00100   0.09659   0.11391   0.13092   0.13426
 Alpha virt. eigenvalues --    0.14207   0.15705   0.16203   0.16771   0.17032
 Alpha virt. eigenvalues --    0.17761   0.18603   0.19243   0.20504   0.21857

 Mulliken charges:
               1
     1  C   -0.514224
     2  C    0.320737
     3  C   -0.204943
     4  C    0.077650
     5  C   -0.225896
     6  C    0.028470
     7  O   -0.280647
     8  C    0.030077
     9  O   -0.277952
    10  H    0.126707
    11  H    0.141869
    12  H    0.129868
    13  H    0.097487
    14  H    0.075895
    15  H    0.105721
    16  H    0.096372
    17  H    0.072472
    18  H    0.115493
    19  H    0.084843
 Sum of Mulliken charges =   0.00000

 Dipole moment (field-independent basis, Debye):
    X=              1.7904    Y=             -0.8993    Z=              0.0248  Tot=              2.0038
 Quadrupole moment (field-independent basis, Debye-Ang):
   XX=            -53.5283   YY=            -53.2657   ZZ=            -51.7595
   XY=              0.3113   XZ=             -0.6601   YZ=             -1.3057

  Exact polarizability:  82.436   3.333  73.251   0.874   2.031  69.704
 Approx polarizability: 116.685   8.480 116.001   7.652   9.751 105.060

                      1                      2                      3
                      A                      A                      A
 Frequencies --    144.9658               172.3805               237.8807
 Red. masses --      2.9865                 1.0533                 3.9724
 Frc consts  --      0.0370                 0.0184                 0.1324
 IR Inten    --      0.7637                 0.1846                 0.1793

                      4                      5                      6
                      A                      A                      A
 Frequencies --    327.9684               349.4536               414.4097
 Red. masses --      2.7261                 2.3590                 4.1913
 Frc consts  --      0.1728                 0.1697                 0.4241
 IR Inten    --      0.4698                 8.1959                 4.0460

                      7                      8                      9
                      A                      A                      A
 Frequencies --    472.4446               475.4555               596.9298
 Red. masses --      2.5742                 3.2078                 3.7697
 Frc consts  --      0.3385                 0.4272                 0.7914
 IR Inten    --      0.9235                10.3210                 3.7411

                     10                     11                     12
                      A                      A                      A
 Frequencies --    619.2991               670.7225               816.9572
 Red. masses --      4.4045                 3.6053                 5.2533
 Frc consts  --      0.9953                 0.9556                 2.0658
 IR Inten    --      1.5454                 2.8037                 9.9839

                     13                     14                     15
                      A                      A                      A
 Frequencies --    839.1931               859.9843               872.2194
 Red. masses --      1.7395                 2.8231                 2.8171
 Frc consts  --      0.7218                 1.2301                 1.2627
 IR Inten    --      3.9495                17.4526                 7.3533

                     16                     17                     18
                      A                      A                      A
 Frequencies --    911.3073               937.2287               952.4877
 Red. masses --      2.4628                 2.4736                 2.7012
 Frc consts  --      1.2051                 1.2802                 1.4438
 IR Inten    --      9.2051                 8.0085                 8.7903

                     19                     20                     21
                      A                      A                      A
 Frequencies --    990.6914              1007.3499              1018.7502
 Red. masses --      2.1546                 2.6083                 1.7729
 Frc consts  --      1.2459                 1.5594                 1.0841
 IR Inten    --     31.8569                37.3649                 1.4857

                     22                     23                     24
                      A                      A                      A
 Frequencies --   1052.0794              1065.0939              1120.2070
 Red. masses --      2.1235                 1.7074                 4.2807
 Frc consts  --      1.3848                 1.1412                 3.1649
 IR Inten    --     24.3623                11.7879               136.2155

                     25                     26                     27
                      A                      A                      A
 Frequencies --   1142.0306              1176.1840              1187.4617
 Red. masses --      1.4886                 1.6718                 1.7662
 Frc consts  --      1.1439                 1.3626                 1.4674
 IR Inten    --      0.8120                43.5105                26.6867

                     28                     29                     30
                      A                      A                      A
 Frequencies --   1257.4786              1272.8197              1292.9780
 Red. masses --      1.7360                 1.5211                 1.2776
 Frc consts  --      1.6173                 1.4519                 1.2584
 IR Inten    --      5.6730                 0.8755                 0.8212

                     31                     32                     33
                      A                      A                      A
 Frequencies --   1311.9224              1336.7165              1361.1619
 Red. masses --      1.6773                 1.5608                 1.2671
 Frc consts  --      1.7008                 1.6431                 1.3832
 IR Inten    --      7.2499                 3.4001                 8.7182

                     34                     35                     36
                      A                      A                      A
 Frequencies --   1367.3362              1409.7635              1442.9598
 Red. masses --      1.3758                 1.2831                 1.1880
 Frc consts  --      1.5155                 1.5025                 1.4574
 IR Inten    --     18.6493                 1.0957                 6.7886

                     37                     38                     39
                      A                      A                      A
 Frequencies --   1476.2360              1476.6924              1485.2036
 Red. masses --      1.0511                 1.1050                 1.0617
 Frc consts  --      1.3497                 1.4197                 1.3799
 IR Inten    --      4.0708                 5.7563                10.3116

                     40                     41                     42
                      A                      A                      A
 Frequencies --   1516.4219              1699.4064              2987.8019
 Red. masses --      1.0871                 6.8705                 1.0689
 Frc consts  --      1.4729                11.6904                 5.6220
 IR Inten    --      0.5056                 8.2960                73.8971

                     43                     44                     45
                      A                      A                      A
 Frequencies --   3019.8536              3064.1477              3068.6809
 Red. masses --      1.0376                 1.0601                 1.0980
 Frc consts  --      5.5749                 5.8643                 6.0918
 IR Inten    --     21.7383                18.6628                13.4831

                     46                     47                     48
                      A                      A                      A
 Frequencies --   3095.7139              3103.1778              3109.7467
 Red. masses --      1.0879                 1.0946                 1.0902
 Frc consts  --      6.1429                 6.2104                 6.2114
 IR Inten    --     48.0742                41.6600                33.0441

                     49                     50                     51
                      A                      A                      A
 Frequencies --   3111.8104              3128.4739              3197.6740
 Red. masses --      1.1000                 1.1062                 1.0952
 Frc consts  --      6.2760                 6.3789                 6.5981
 IR Inten    --     17.6879                22.4694                10.5112

 - Thermochemistry -
 -------------------
 Temperature   298.150 Kelvin.  Pressure   1.00000 Atm.
 Atom     1 has atomic number  6 and mass  12.00000

 Molecular mass:   126.06808 amu.
 Principal axes and moments of inertia in atomic units:
                           1         2         3
     Eigenvalues --   668.768161069.017361184.33687
           X            0.99958   0.01584  -0.02422
           Y           -0.01784   0.99627  -0.08443
           Z            0.02279   0.08483   0.99614
 This molecule is an asymmetric top.
 Rotational symmetry number  1.
 Warning -- assumption of classical behavior for rotation
           may cause significant error
 Rotational temperatures (Kelvin)      0.12951     0.08102     0.07313
 Rotational constants (GHZ):           2.69861     1.68822     1.52384
 Zero-point vibrational energy     424825.7 (Joules/Mol)
                                  101.53578 (Kcal/Mol)
 Warning -- explicit consideration of  10 degrees of freedom as
           vibrations may cause significant error
 Vibrational temperatures:    208.57   248.02   342.26   471.87   502.79
          (Kelvin)            596.24   679.74   684.07   858.85   891.03
                              965.02  1175.42  1207.41  1237.32  1254.93
                             1311.17  1348.46  1370.42  1425.38  1449.35
                             1465.75  1513.71  1532.43  1611.73  1643.13
                             1692.26  1708.49  1809.23  1831.30  1860.30
                             1887.56  1923.23  1958.41  1967.29  2028.33
                             2076.09  2123.97  2124.63  2136.87  2181.79
                             2445.06  4298.78  4344.89  4408.62  4415.14
                             4454.04  4464.78  4474.23  4477.20  4501.17
                             4600.73

 Zero-point correction=                           0.161808 (Hartree/Particle)
 Thermal correction to Energy=                    0.169135
 Thermal correction to Enthalpy=                  0.170079
 Thermal correction to Gibbs Free Energy=         0.130372
 Sum of electronic and zero-point Energies=           -423.030992
 Sum of electronic and thermal Energies=              -423.023665
 Sum of electronic and thermal Enthalpies=            -423.022720
 Sum of electronic and thermal Free Energies=         -423.062427

                     E (Thermal)             CV                S
                      KCal/Mol        Cal/Mol-Kelvin    Cal/Mol-Kelvin
 Total                  106.134             29.603             83.570
 Electronic               0.000              0.000              0.000
 Translational            0.889              2.981             40.409
 Rotational               0.889              2.981             28.228
 Vibrational            104.356             23.641             14.933
 Vibration     1          0.616              1.908              2.737
 Vibration     2          0.626              1.876              2.409
 Vibration     3          0.656              1.783              1.819
 Vibration     4          0.711              1.620              1.270
 Vibration     5          0.727              1.576              1.169
 Vibration     6          0.778              1.439              0.911
 Vibration     7          0.829              1.311              0.731
 Vibration     8          0.832              1.305              0.722
 Vibration     9          0.955              1.038              0.455
 Vibration    10          0.979              0.991              0.418

 Optimization completed.
    -- Stationary point found.
 Normal termination of Gaussian 09 at Mon Jan 27 22:44:43 2020.
