 Gaussian 09, Revision D.01,
 Gaussian 09:  ES64L-G09RevD.01 24-Apr-2013

 -----------------------------
 # b3lyp 6-31G(2df,p) opt Freq
 -----------------------------

 -----
 titel
 -----
 Symbolic Z-matrix:
 Charge =  0 Multiplicity = 1

 SCF Done:  E(RB3LYP) =  -423.164820349     A.U. after   14 cycles
 Optimization completed.
    -- Stationary point found.
 Normal termination of Gaussian 09 at Mon Jan 27 13:24:51 2020.

 ----------------------------------------------------------------------
 #N Geom=AllCheck Guess=TCheck SCRF=Check GenChk RB3LYP/6-31G(2df,p) Fr
 eq
 ----------------------------------------------------------------------

 Structure from the checkpoint file:  "/scratch/puck/g09_71de50c0-9003-42d7-b56b-3605eba76c47/Gau-51905.chk"
 -----
 titel
 -----
 Charge =  0 Multiplicity = 1

                         Standard orientation:
 ---------------------------------------------------------------------
 Center     Atomic      Atomic             Coordinates (Angstroms)
 Number     Number       Type             X           Y           Z
 ---------------------------------------------------------------------
      1          8           0       -2.451703   -1.521005    0.183157
      2          6           0       -1.798510   -0.609560   -0.255701
      3          6           0       -0.859263    0.237265    0.563310
      4          6           0       -0.964035    1.762502    0.234375
      5          6           0        0.287361    1.642512   -0.674508
      6          6           0        0.588814    0.272451   -0.037433
      7          6           0        1.797768    0.047009    0.894753
      8          6           0        2.102295   -1.148785   -0.028603
      9          8           0        0.995100   -0.806957   -0.892173
     10          1           0       -1.862964   -0.325651   -1.331190
     11          1           0       -0.939605   -0.063042    1.610121
     12          1           0       -1.889603    2.090246   -0.244441
     13          1           0       -0.797096    2.376873    1.120975
     14          1           0        0.024994    1.518196   -1.729173
     15          1           0        1.060194    2.411413   -0.594249
     16          1           0        2.538550    0.848825    0.869869
     17          1           0        1.560281   -0.194926    1.931953
     18          1           0        3.057701   -1.120270   -0.563386
     19          1           0        1.973789   -2.138331    0.424494
 ---------------------------------------------------------------------

 SCF Done:  E(RB3LYP) =  -423.164820349     A.U. after    1 cycles

 The electronic state is 1-A.
 Alpha  occ. eigenvalues --  -19.14109 -19.13268 -10.26536 -10.25186 -10.23807
 Alpha  occ. eigenvalues --  -10.19972 -10.19779 -10.19438 -10.19075  -1.04889
 Alpha  occ. eigenvalues --   -1.03917  -0.85360  -0.74911  -0.70142  -0.67763
 Alpha  occ. eigenvalues --   -0.61273  -0.58029  -0.53205  -0.50391  -0.49265
 Alpha  occ. eigenvalues --   -0.48372  -0.45269  -0.43154  -0.41930  -0.40493
 Alpha  occ. eigenvalues --   -0.39829  -0.38227  -0.36506  -0.35041  -0.33407
 Alpha  occ. eigenvalues --   -0.31408  -0.30365  -0.25694  -0.24026
 Alpha virt. eigenvalues --   -0.01841   0.06341   0.08476   0.09473   0.10407
 Alpha virt. eigenvalues --    0.11884   0.13619   0.13966   0.14792   0.16526
 Alpha virt. eigenvalues --    0.17378   0.18059   0.18845   0.20570   0.21685

 Mulliken charges:
               1
     1  O   -0.260188
     2  C    0.185237
     3  C   -0.181381
     4  C   -0.244969
     5  C   -0.297144
     6  C    0.461471
     7  C   -0.352984
     8  C   -0.074607
     9  O   -0.307892
    10  H    0.075006
    11  H    0.085906
    12  H    0.113152
    13  H    0.116628
    14  H    0.122381
    15  H    0.102875
    16  H    0.115170
    17  H    0.118650
    18  H    0.109398
    19  H    0.113291
 Sum of Mulliken charges =   0.00000

 Dipole moment (field-independent basis, Debye):
    X=              2.5194    Y=              2.6632    Z=              0.8283  Tot=              3.7585
 Quadrupole moment (field-independent basis, Debye-Ang):
   XX=            -55.4489   YY=            -55.3657   ZZ=            -53.1118
   XY=             -6.0678   XZ=              2.8770   YZ=             -0.6724

  Exact polarizability:  82.562   0.824  78.336   0.296  -2.521  66.822
 Approx polarizability: 110.145   7.567 113.577  -1.879  -4.796 103.328

                      1                      2                      3
                      A                      A                      A
 Frequencies --     60.7176                85.0749               100.0363
 Red. masses --      4.7483                 2.3960                 2.7271
 Frc consts  --      0.0103                 0.0102                 0.0161
 IR Inten    --      1.9574                 1.8845                 1.5724

                      4                      5                      6
                      A                      A                      A
 Frequencies --    172.4096               267.4000               300.9019
 Red. masses --      3.5895                 1.9872                 2.7669
 Frc consts  --      0.0629                 0.0837                 0.1476
 IR Inten    --      3.4338                 1.2988                 2.0138

                      7                      8                      9
                      A                      A                      A
 Frequencies --    379.7469               437.3817               486.8491
 Red. masses --      2.8327                 3.4538                 4.2754
 Frc consts  --      0.2407                 0.3893                 0.5971
 IR Inten    --      1.1912                11.6622                 4.1981

                     10                     11                     12
                      A                      A                      A
 Frequencies --    512.0917               717.9589               781.8051
 Red. masses --      4.5307                 1.4085                 1.1756
 Frc consts  --      0.7000                 0.4278                 0.4234
 IR Inten    --      3.3246                 3.7247                 0.2287

                     13                     14                     15
                      A                      A                      A
 Frequencies --    852.8634               862.3753               870.0276
 Red. masses --      2.2412                 2.1890                 2.8015
 Frc consts  --      0.9605                 0.9592                 1.2494
 IR Inten    --     15.3132                14.4141                 1.9479

                     16                     17                     18
                      A                      A                      A
 Frequencies --    910.9885               928.7377               947.7284
 Red. masses --      1.9634                 2.3769                 2.5107
 Frc consts  --      0.9600                 1.2079                 1.3286
 IR Inten    --      5.6504                 3.7054                 7.0265

                     19                     20                     21
                      A                      A                      A
 Frequencies --    973.0963               992.9343              1026.7587
 Red. masses --      2.3276                 2.7539                 2.8780
 Frc consts  --      1.2986                 1.5997                 1.7876
 IR Inten    --      8.6796                15.4923                58.8374

                     22                     23                     24
                      A                      A                      A
 Frequencies --   1030.8159              1129.8957              1155.6843
 Red. masses --      2.5738                 2.1679                 1.6040
 Frc consts  --      1.6114                 1.6306                 1.2622
 IR Inten    --     66.3293                32.6625                 4.4550

                     25                     26                     27
                      A                      A                      A
 Frequencies --   1162.2253              1171.4795              1179.1864
 Red. masses --      2.2010                 2.1517                 1.5433
 Frc consts  --      1.7516                 1.7398                 1.2643
 IR Inten    --     28.4211                21.3153                 7.4553

                     28                     29                     30
                      A                      A                      A
 Frequencies --   1208.8615              1224.5153              1243.1769
 Red. masses --      1.3122                 1.2485                 1.3081
 Frc consts  --      1.1298                 1.1030                 1.1911
 IR Inten    --      0.6157                 1.6349                 3.0122

                     31                     32                     33
                      A                      A                      A
 Frequencies --   1260.6635              1269.0383              1288.4156
 Red. masses --      1.4660                 1.5529                 1.5030
 Frc consts  --      1.3727                 1.4735                 1.4700
 IR Inten    --      1.3367                 3.7634                 5.9829

                     34                     35                     36
                      A                      A                      A
 Frequencies --   1307.6987              1357.7276              1437.0064
 Red. masses --      2.1851                 1.4866                 1.1997
 Frc consts  --      2.2016                 1.6146                 1.4596
 IR Inten    --     25.4973                 2.7680                 4.4707

                     37                     38                     39
                      A                      A                      A
 Frequencies --   1473.5117              1488.8245              1495.4505
 Red. masses --      1.0895                 1.1041                 1.1116
 Frc consts  --      1.3937                 1.4419                 1.4647
 IR Inten    --      3.8621                 2.8424                 4.0537

                     40                     41                     42
                      A                      A                      A
 Frequencies --   1532.5198              1828.2570              2868.0639
 Red. masses --      1.1088                10.2037                 1.0818
 Frc consts  --      1.5343                20.0948                 5.2431
 IR Inten    --      1.0036               200.7265                82.3813

                     43                     44                     45
                      A                      A                      A
 Frequencies --   3029.8499              3056.9211              3071.4233
 Red. masses --      1.0555                 1.0581                 1.0599
 Frc consts  --      5.7089                 5.8256                 5.8911
 IR Inten    --     79.6794                23.8632                30.4046

                     46                     47                     48
                      A                      A                      A
 Frequencies --   3072.6885              3076.1181              3092.2878
 Red. masses --      1.0983                 1.0720                 1.0876
 Frc consts  --      6.1094                 5.9767                 6.1277
 IR Inten    --     20.6196                27.5531                11.9508

                     49                     50                     51
                      A                      A                      A
 Frequencies --   3106.6256              3127.8828              3131.8065
 Red. masses --      1.1079                 1.1067                 1.1087
 Frc consts  --      6.2997                 6.3796                 6.4073
 IR Inten    --      8.3788                24.3818                21.6405

 - Thermochemistry -
 -------------------
 Temperature   298.150 Kelvin.  Pressure   1.00000 Atm.
 Atom     1 has atomic number  8 and mass  15.99491

 Molecular mass:   126.06808 amu.
 Principal axes and moments of inertia in atomic units:
                           1         2         3
     Eigenvalues --   753.235841242.147291655.24087
           X            0.99812  -0.05885   0.01715
           Y            0.05908   0.99816  -0.01334
           Z           -0.01633   0.01433   0.99976
 This molecule is an asymmetric top.
 Rotational symmetry number  1.
 Warning -- assumption of classical behavior for rotation
           may cause significant error
 Rotational temperatures (Kelvin)      0.11499     0.06973     0.05233
 Rotational constants (GHZ):           2.39598     1.45292     1.09032
 Zero-point vibrational energy     415980.5 (Joules/Mol)
                                   99.42172 (Kcal/Mol)
 Warning -- explicit consideration of  10 degrees of freedom as
           vibrations may cause significant error
 Vibrational temperatures:     87.36   122.40   143.93   248.06   384.73
          (Kelvin)            432.93   546.37   629.29   700.47   736.78
                             1032.98  1124.84  1227.08  1240.76  1251.77
                             1310.71  1336.24  1363.57  1400.07  1428.61
                             1477.27  1483.11  1625.67  1662.77  1672.18
                             1685.50  1696.58  1739.28  1761.80  1788.65
                             1813.81  1825.86  1853.74  1881.48  1953.46
                             2067.53  2120.05  2142.08  2151.62  2204.95
                             2630.45  4126.50  4359.27  4398.22  4419.09
                             4420.91  4425.84  4449.11  4469.74  4500.32
                             4505.97

 Zero-point correction=                           0.158439 (Hartree/Particle)
 Thermal correction to Energy=                    0.167018
 Thermal correction to Enthalpy=                  0.167962
 Thermal correction to Gibbs Free Energy=         0.124334
 Sum of electronic and zero-point Energies=           -423.006382
 Sum of electronic and thermal Energies=              -422.997803
 Sum of electronic and thermal Enthalpies=            -422.996858
 Sum of electronic and thermal Free Energies=         -423.040486

                     E (Thermal)             CV                S
                      KCal/Mol        Cal/Mol-Kelvin    Cal/Mol-Kelvin
 Total                  104.805             31.445             91.823
 Electronic               0.000              0.000              0.000
 Translational            0.889              2.981             40.409
 Rotational               0.889              2.981             28.828
 Vibrational            103.028             25.484             22.586
 Vibration     1          0.597              1.973              4.434
 Vibration     2          0.601              1.960              3.770
 Vibration     3          0.604              1.949              3.454
 Vibration     4          0.626              1.876              2.409
 Vibration     5          0.673              1.733              1.613
 Vibration     6          0.693              1.672              1.412
 Vibration     7          0.750              1.513              1.040
 Vibration     8          0.798              1.389              0.835
 Vibration     9          0.843              1.279              0.692
 Vibration    10          0.867              1.223              0.629

 Optimization completed.
    -- Stationary point found.
 Normal termination of Gaussian 09 at Mon Jan 27 14:04:50 2020.
