 Gaussian 09, Revision D.01,
 Gaussian 09:  ES64L-G09RevD.01 24-Apr-2013

 -----------------------------
 # b3lyp 6-31G(2df,p) opt Freq
 -----------------------------

 -----
 titel
 -----
 Symbolic Z-matrix:
 Charge =  0 Multiplicity = 1

 SCF Done:  E(RB3LYP) =  -423.165495312     A.U. after   13 cycles
 Optimization completed.
    -- Stationary point found.
 Normal termination of Gaussian 09 at Mon Jan 27 22:51:13 2020.

 ----------------------------------------------------------------------
 #N Geom=AllCheck Guess=TCheck SCRF=Check GenChk RB3LYP/6-31G(2df,p) Fr
 eq
 ----------------------------------------------------------------------

 Structure from the checkpoint file:  "/scratch/puck/g09_c3cd75d4-08dd-4b71-89b8-46f10b0f9796/Gau-74893.chk"
 -----
 titel
 -----
 Charge =  0 Multiplicity = 1

                         Standard orientation:
 ---------------------------------------------------------------------
 Center     Atomic      Atomic             Coordinates (Angstroms)
 Number     Number       Type             X           Y           Z
 ---------------------------------------------------------------------
      1          8           0        0.565620    1.919746    0.872263
      2          6           0        0.568320    1.075543   -0.256550
      3          6           0       -0.690220    0.857197   -1.085161
      4          6           0       -1.581324   -0.231277   -0.499564
      5          6           0       -1.471177   -0.599681    0.983432
      6          6           0        0.023414   -0.963088    1.182062
      7          6           0        0.711711   -0.472742   -0.099861
      8          8           0        2.026499   -0.906152   -0.293738
      9          6           0       -0.345293   -0.620744   -1.245992
     10          1           0       -0.292751    1.849250    1.299921
     11          1           0        1.390258    1.416936   -0.892101
     12          1           0       -1.076025    1.542292   -1.831462
     13          1           0       -2.544239   -0.331482   -0.989082
     14          1           0       -1.796170    0.215039    1.641747
     15          1           0       -2.120688   -1.450638    1.209901
     16          1           0        0.468898   -0.497341    2.064958
     17          1           0        0.150191   -2.049290    1.274026
     18          1           0        2.061037   -1.855535   -0.133022
     19          1           0       -0.270044   -1.219239   -2.143286
 ---------------------------------------------------------------------

 SCF Done:  E(RB3LYP) =  -423.165495312     A.U. after    1 cycles

 The electronic state is 1-A.
 Alpha  occ. eigenvalues --  -19.13969 -19.13153 -10.23282 -10.22526 -10.19620
 Alpha  occ. eigenvalues --  -10.18999 -10.18994 -10.18638 -10.18183  -1.02906
 Alpha  occ. eigenvalues --   -1.01175  -0.90347  -0.76503  -0.72425  -0.64859
 Alpha  occ. eigenvalues --   -0.60580  -0.56304  -0.55362  -0.53654  -0.47713
 Alpha  occ. eigenvalues --   -0.46056  -0.45682  -0.41794  -0.41236  -0.40659
 Alpha  occ. eigenvalues --   -0.38180  -0.35686  -0.35373  -0.33481  -0.32373
 Alpha  occ. eigenvalues --   -0.28641  -0.26752  -0.26232  -0.24479
 Alpha virt. eigenvalues --    0.06532   0.07703   0.09133   0.11633   0.13065
 Alpha virt. eigenvalues --    0.15243   0.15836   0.16044   0.16884   0.17763
 Alpha virt. eigenvalues --    0.17958   0.18786   0.20580   0.21482   0.23327

 Mulliken charges:
               1
     1  O   -0.441434
     2  C    0.123264
     3  C   -0.136860
     4  C   -0.042825
     5  C   -0.258917
     6  C   -0.274535
     7  C    0.372138
     8  O   -0.499493
     9  C   -0.158526
    10  H    0.282919
    11  H    0.101412
    12  H    0.085030
    13  H    0.087098
    14  H    0.091327
    15  H    0.104850
    16  H    0.114909
    17  H    0.085125
    18  H    0.275224
    19  H    0.089296
 Sum of Mulliken charges =   0.00000

 Dipole moment (field-independent basis, Debye):
    X=             -2.1740    Y=             -1.9652    Z=             -0.1203  Tot=              2.9330
 Quadrupole moment (field-independent basis, Debye-Ang):
   XX=            -55.2498   YY=            -51.5728   ZZ=            -51.6831
   XY=             -4.1998   XZ=             -0.7015   YZ=             -1.1556

  Exact polarizability:  74.990  -0.817  73.115  -0.770  -1.871  71.357
 Approx polarizability: 110.122  -1.261 111.750  -2.580   1.212 104.031

                      1                      2                      3
                      A                      A                      A
 Frequencies --    164.2810               215.1508               256.9592
 Red. masses --      3.2606                 1.8037                 2.7868
 Frc consts  --      0.0518                 0.0492                 0.1084
 IR Inten    --      7.1440                11.6543                 7.3585

                      4                      5                      6
                      A                      A                      A
 Frequencies --    272.6695               288.7499               344.1510
 Red. masses --      1.1451                 1.5918                 2.7062
 Frc consts  --      0.0502                 0.0782                 0.1888
 IR Inten    --     38.7700                79.3483                10.2428

                      7                      8                      9
                      A                      A                      A
 Frequencies --    361.8408               497.2762               549.6295
 Red. masses --      3.7774                 2.6744                 4.1041
 Frc consts  --      0.2914                 0.3896                 0.7305
 IR Inten    --     32.8519                 3.2441                 0.9694

                     10                     11                     12
                      A                      A                      A
 Frequencies --    593.5368               637.4902               710.8179
 Red. masses --      4.7223                 4.2096                 4.7870
 Frc consts  --      0.9802                 1.0079                 1.4250
 IR Inten    --      2.4178                 8.2843                 0.0719

                     13                     14                     15
                      A                      A                      A
 Frequencies --    756.1020               788.8478               818.6536
 Red. masses --      2.4728                 2.3838                 1.6469
 Frc consts  --      0.8329                 0.8740                 0.6503
 IR Inten    --      3.0433                 1.4735                 8.1043

                     16                     17                     18
                      A                      A                      A
 Frequencies --    845.2925               895.8751               923.4588
 Red. masses --      1.5619                 1.7540                 2.8479
 Frc consts  --      0.6575                 0.8294                 1.4309
 IR Inten    --     10.1467                41.8825                 7.9368

                     19                     20                     21
                      A                      A                      A
 Frequencies --    955.8911               987.5176              1004.0310
 Red. masses --      1.3351                 3.3004                 2.2311
 Frc consts  --      0.7188                 1.8963                 1.3251
 IR Inten    --      0.4573                 5.6979                20.8870

                     22                     23                     24
                      A                      A                      A
 Frequencies --   1023.2273              1056.5931              1074.0408
 Red. masses --      2.1098                 1.4252                 1.5561
 Frc consts  --      1.3014                 0.9374                 1.0576
 IR Inten    --     16.4607                 6.2827                12.7929

                     25                     26                     27
                      A                      A                      A
 Frequencies --   1092.4584              1113.6601              1152.4052
 Red. masses --      1.6745                 3.0500                 1.8874
 Frc consts  --      1.1775                 2.2287                 1.4768
 IR Inten    --     14.3740                76.8749                49.4437

                     28                     29                     30
                      A                      A                      A
 Frequencies --   1181.7388              1193.4466              1215.8796
 Red. masses --      1.4528                 2.9194                 1.7071
 Frc consts  --      1.1953                 2.4499                 1.4870
 IR Inten    --      4.1705                61.5567                 6.2087

                     31                     32                     33
                      A                      A                      A
 Frequencies --   1229.7682              1264.4917              1277.3197
 Red. masses --      1.4467                 1.2893                 1.4287
 Frc consts  --      1.2890                 1.2146                 1.3734
 IR Inten    --      1.7766                 9.8281                 8.1115

                     34                     35                     36
                      A                      A                      A
 Frequencies --   1299.3971              1322.8038              1350.1293
 Red. masses --      1.5187                 1.7293                 1.9253
 Frc consts  --      1.5108                 1.7828                 2.0678
 IR Inten    --     21.0660                 7.0564                83.4046

                     37                     38                     39
                      A                      A                      A
 Frequencies --   1392.6126              1398.3022              1434.7153
 Red. masses --      1.6192                 2.4607                 1.3205
 Frc consts  --      1.8502                 2.8347                 1.6015
 IR Inten    --     10.6525                 1.3478                61.5374

                     40                     41                     42
                      A                      A                      A
 Frequencies --   1480.8137              1511.1730              3023.5785
 Red. masses --      1.1026                 1.0963                 1.0667
 Frc consts  --      1.4245                 1.4751                 5.7458
 IR Inten    --      3.5425                 3.5577                40.7521

                     43                     44                     45
                      A                      A                      A
 Frequencies --   3028.7474              3073.1250              3081.3635
 Red. masses --      1.0692                 1.0943                 1.0863
 Frc consts  --      5.7787                 6.0892                 6.0768
 IR Inten    --     37.3904                31.5833                17.2350

                     46                     47                     48
                      A                      A                      A
 Frequencies --   3100.9898              3165.9473              3175.9180
 Red. masses --      1.0972                 1.0896                 1.0911
 Frc consts  --      6.2162                 6.4344                 6.4844
 IR Inten    --     22.1060                 9.0464                28.7889

                     49                     50                     51
                      A                      A                      A
 Frequencies --   3212.3634              3798.1295              3836.3284
 Red. masses --      1.0968                 1.0658                 1.0658
 Frc consts  --      6.6682                 9.0585                 9.2415
 IR Inten    --      9.8536                13.4039                13.6805

 - Thermochemistry -
 -------------------
 Temperature   298.150 Kelvin.  Pressure   1.00000 Atm.
 Atom     1 has atomic number  8 and mass  15.99491

 Molecular mass:   126.06808 amu.
 Principal axes and moments of inertia in atomic units:
                           1         2         3
     Eigenvalues --   849.54857 949.116161085.41602
           X            0.99947  -0.02753  -0.01752
           Y            0.02580   0.99538  -0.09245
           Z            0.01998   0.09195   0.99556
 This molecule is an asymmetric top.
 Rotational symmetry number  1.
 Warning -- assumption of classical behavior for rotation
           may cause significant error
 Rotational temperatures (Kelvin)      0.10195     0.09126     0.07980
 Rotational constants (GHZ):           2.12435     1.90150     1.66272
 Zero-point vibrational energy     421263.1 (Joules/Mol)
                                  100.68429 (Kcal/Mol)
 Warning -- explicit consideration of  10 degrees of freedom as
           vibrations may cause significant error
 Vibrational temperatures:    236.36   309.55   369.71   392.31   415.45
          (Kelvin)            495.16   520.61   715.47   790.79   853.97
                              917.21  1022.71  1087.86  1134.97  1177.86
                             1216.19  1288.96  1328.65  1375.31  1420.82
                             1444.57  1472.19  1520.20  1545.30  1571.80
                             1602.31  1658.05  1700.26  1717.10  1749.38
                             1769.36  1819.32  1837.78  1869.54  1903.22
                             1942.53  2003.66  2011.84  2064.23  2130.56
                             2174.24  4350.25  4357.69  4421.54  4433.39
                             4461.63  4555.09  4569.43  4621.87  5464.65
                             5519.61

 Zero-point correction=                           0.160451 (Hartree/Particle)
 Thermal correction to Energy=                    0.168200
 Thermal correction to Enthalpy=                  0.169145
 Thermal correction to Gibbs Free Energy=         0.128877
 Sum of electronic and zero-point Energies=           -423.005045
 Sum of electronic and thermal Energies=              -422.997295
 Sum of electronic and thermal Enthalpies=            -422.996351
 Sum of electronic and thermal Free Energies=         -423.036618

                     E (Thermal)             CV                S
                      KCal/Mol        Cal/Mol-Kelvin    Cal/Mol-Kelvin
 Total                  105.547             31.712             84.750
 Electronic               0.000              0.000              0.000
 Translational            0.889              2.981             40.409
 Rotational               0.889              2.981             28.261
 Vibrational            103.770             25.751             16.080
 Vibration     1          0.623              1.886              2.500
 Vibration     2          0.645              1.818              2.000
 Vibration     3          0.667              1.751              1.682
 Vibration     4          0.676              1.724              1.579
 Vibration     5          0.685              1.695              1.481
 Vibration     6          0.723              1.587              1.193
 Vibration     7          0.736              1.551              1.114
 Vibration     8          0.853              1.256              0.665
 Vibration     9          0.905              1.140              0.545
 Vibration    10          0.951              1.046              0.461

 Normal termination of Gaussian 09 at Mon Jan 27 23:40:55 2020.
