 Gaussian 09, Revision D.01,
 Gaussian 09:  ES64L-G09RevD.01 24-Apr-2013

 -----------------------------
 # b3lyp 6-31G(2df,p) opt Freq
 -----------------------------

 -----
 titel
 -----
 Symbolic Z-matrix:
 Charge =  0 Multiplicity = 1

 SCF Done:  E(RB3LYP) =  -423.173516477     A.U. after   14 cycles
 Optimization completed.
    -- Stationary point found.
 Normal termination of Gaussian 09 at Tue Jan 28 00:05:46 2020.

 ----------------------------------------------------------------------
 #N Geom=AllCheck Guess=TCheck SCRF=Check GenChk RB3LYP/6-31G(2df,p) Fr
 eq
 ----------------------------------------------------------------------

 Structure from the checkpoint file:  "/scratch/puck/g09_6e103229-28f7-4da1-a441-9b0a0c1aa35f/Gau-59271.chk"
 -----
 titel
 -----
 Charge =  0 Multiplicity = 1

                         Standard orientation:
 ---------------------------------------------------------------------
 Center     Atomic      Atomic             Coordinates (Angstroms)
 Number     Number       Type             X           Y           Z
 ---------------------------------------------------------------------
      1          6           0       -2.496341    0.159706   -0.240847
      2          6           0       -1.060595    0.369639    0.172368
      3          6           0       -0.473700   -0.410425    1.351861
      4          6           0        0.029409   -0.670047   -0.033338
      5          8           0       -0.210060   -1.947582   -0.546834
      6          6           0        1.306141    0.056821   -0.466746
      7          8           0        2.442212   -0.190497    0.352542
      8          6           0        0.918142    1.517069   -0.389366
      9          6           0       -0.366836    1.676361   -0.069349
     10          1           0       -2.663286    0.473425   -1.277910
     11          1           0       -2.766910   -0.897239   -0.161398
     12          1           0       -3.184207    0.731883    0.391748
     13          1           0        0.170387    0.103111    2.056702
     14          1           0       -1.098837   -1.195232    1.766065
     15          1           0       -0.337607   -1.868456   -1.499307
     16          1           0        1.538705   -0.229647   -1.510528
     17          1           0        2.580355   -1.144038    0.365691
     18          1           0        1.639985    2.305633   -0.562946
     19          1           0       -0.873118    2.630455    0.038714
 ---------------------------------------------------------------------

 SCF Done:  E(RB3LYP) =  -423.173516478     A.U. after    1 cycles

 The electronic state is 1-A.
 Alpha  occ. eigenvalues --  -19.15054 -19.13241 -10.23290 -10.23121 -10.19578
 Alpha  occ. eigenvalues --  -10.18512 -10.18072 -10.18015 -10.17724  -1.03679
 Alpha  occ. eigenvalues --   -1.01169  -0.87814  -0.76728  -0.72327  -0.67264
 Alpha  occ. eigenvalues --   -0.60046  -0.57133  -0.54091  -0.51797  -0.49408
 Alpha  occ. eigenvalues --   -0.45844  -0.43714  -0.42408  -0.41404  -0.39805
 Alpha  occ. eigenvalues --   -0.39165  -0.38538  -0.34620  -0.34166  -0.31994
 Alpha  occ. eigenvalues --   -0.29319  -0.27235  -0.26463  -0.22205
 Alpha virt. eigenvalues --    0.00825   0.07064   0.09999   0.11363   0.12592
 Alpha virt. eigenvalues --    0.13252   0.14227   0.15389   0.16138   0.17469
 Alpha virt. eigenvalues --    0.17839   0.19540   0.20691   0.22530   0.24095

 Mulliken charges:
               1
     1  C   -0.495031
     2  C    0.223648
     3  C   -0.350800
     4  C    0.326512
     5  O   -0.478345
     6  C    0.009381
     7  O   -0.435770
     8  C   -0.091751
     9  C   -0.136550
    10  H    0.113730
    11  H    0.127999
    12  H    0.121253
    13  H    0.123767
    14  H    0.115964
    15  H    0.281698
    16  H    0.055610
    17  H    0.287301
    18  H    0.103989
    19  H    0.097395
 Sum of Mulliken charges =   0.00000

 Dipole moment (field-independent basis, Debye):
    X=             -1.0256    Y=             -0.1160    Z=             -1.3947  Tot=              1.7350
 Quadrupole moment (field-independent basis, Debye-Ang):
   XX=            -54.4288   YY=            -52.6756   ZZ=            -50.6471
   XY=             -2.8349   XZ=             -1.1347   YZ=              1.1842

  Exact polarizability:  87.396  -1.505  75.756  -3.613  -1.267  65.463
 Approx polarizability: 127.301  -4.706 110.916  -7.302  -1.024 102.062

                      1                      2                      3
                      A                      A                      A
 Frequencies --    117.6155               177.0722               191.8484
 Red. masses --      4.3431                 1.0449                 3.1151
 Frc consts  --      0.0354                 0.0193                 0.0676
 IR Inten    --      0.4761                 0.6285                 0.5087

                      4                      5                      6
                      A                      A                      A
 Frequencies --    218.8772               277.3588               311.5133
 Red. masses --      3.0385                 1.3877                 1.9367
 Frc consts  --      0.0858                 0.0629                 0.1107
 IR Inten    --      2.0552                27.9867                17.4862

                      7                      8                      9
                      A                      A                      A
 Frequencies --    332.0392               343.9186               394.5840
 Red. masses --      2.9286                 1.3049                 2.5839
 Frc consts  --      0.1902                 0.0909                 0.2370
 IR Inten    --     10.0704               154.8911                 3.5685

                     10                     11                     12
                      A                      A                      A
 Frequencies --    450.7241               501.1602               574.9924
 Red. masses --      2.4875                 4.0548                 2.9935
 Frc consts  --      0.2977                 0.6000                 0.5831
 IR Inten    --      7.4646                 1.6065                 5.1172

                     13                     14                     15
                      A                      A                      A
 Frequencies --    595.3960               693.3759               735.0656
 Red. masses --      4.1420                 4.5501                 3.5859
 Frc consts  --      0.8651                 1.2889                 1.1416
 IR Inten    --     11.3372                 5.2083                 3.3682

                     16                     17                     18
                      A                      A                      A
 Frequencies --    767.5187               829.8639               908.3801
 Red. masses --      1.6277                 3.2625                 2.9202
 Frc consts  --      0.5649                 1.3238                 1.4197
 IR Inten    --     20.3256                 8.8099                11.0544

                     19                     20                     21
                      A                      A                      A
 Frequencies --    930.6713               957.9406               966.6726
 Red. masses --      1.8373                 1.2975                 1.5078
 Frc consts  --      0.9376                 0.7015                 0.8302
 IR Inten    --      4.5521                 4.7968                 4.7058

                     22                     23                     24
                      A                      A                      A
 Frequencies --    982.9823               985.2294              1056.1993
 Red. masses --      1.7843                 1.9872                 1.2937
 Frc consts  --      1.0158                 1.1365                 0.8503
 IR Inten    --      4.7462                 8.4863                 2.8550

                     25                     26                     27
                      A                      A                      A
 Frequencies --   1074.0344              1098.7694              1104.2043
 Red. masses --      2.3949                 2.0081                 1.7960
 Frc consts  --      1.6277                 1.4284                 1.2902
 IR Inten    --     54.5646                41.2157                 8.1307

                     28                     29                     30
                      A                      A                      A
 Frequencies --   1170.9510              1201.9494              1241.4845
 Red. masses --      1.7256                 1.2971                 2.0796
 Frc consts  --      1.3940                 1.1040                 1.8885
 IR Inten    --     25.0818                44.3103                13.1086

                     31                     32                     33
                      A                      A                      A
 Frequencies --   1268.8016              1307.3461              1340.8819
 Red. masses --      1.8116                 1.9573                 1.7151
 Frc consts  --      1.7183                 1.9710                 1.8169
 IR Inten    --     37.6586                92.0928                27.2514

                     34                     35                     36
                      A                      A                      A
 Frequencies --   1384.2431              1410.0485              1416.0801
 Red. masses --      1.8217                 1.5116                 1.5978
 Frc consts  --      2.0566                 1.7708                 1.8877
 IR Inten    --     14.1884                 3.2998                 1.9942

                     37                     38                     39
                      A                      A                      A
 Frequencies --   1417.6028              1481.5516              1490.3300
 Red. masses --      1.4629                 1.5400                 1.0500
 Frc consts  --      1.7321                 1.9916                 1.3740
 IR Inten    --      4.9467                 5.3084                 3.2892

                     40                     41                     42
                      A                      A                      A
 Frequencies --   1503.3180              1675.0516              2910.3164
 Red. masses --      1.0884                 6.7575                 1.0807
 Frc consts  --      1.4492                11.1710                 5.3931
 IR Inten    --      6.4630                 2.1151                78.8875

                     43                     44                     45
                      A                      A                      A
 Frequencies --   3024.9809              3082.1302              3106.9961
 Red. masses --      1.0362                 1.1009                 1.0997
 Frc consts  --      5.5867                 6.1615                 6.2548
 IR Inten    --     39.5168                23.9833                13.3443

                     46                     47                     48
                      A                      A                      A
 Frequencies --   3129.2557              3177.4130              3215.8032
 Red. masses --      1.0535                 1.0879                 1.1008
 Frc consts  --      6.0780                 6.4711                 6.7070
 IR Inten    --     10.6059                12.1446                14.0573

                     49                     50                     51
                      A                      A                      A
 Frequencies --   3225.3686              3785.8685              3803.8699
 Red. masses --      1.1178                 1.0659                 1.0661
 Frc consts  --      6.8515                 9.0014                 9.0884
 IR Inten    --      3.5159                14.6521                21.8347

 - Thermochemistry -
 -------------------
 Temperature   298.150 Kelvin.  Pressure   1.00000 Atm.
 Atom     1 has atomic number  6 and mass  12.00000

 Molecular mass:   126.06808 amu.
 Principal axes and moments of inertia in atomic units:
                           1         2         3
     Eigenvalues --   716.803941095.008911465.38066
           X            0.99995  -0.00944  -0.00376
           Y            0.00942   0.99994  -0.00509
           Z            0.00380   0.00506   0.99998
 This molecule is an asymmetric top.
 Rotational symmetry number  1.
 Warning -- assumption of classical behavior for rotation
           may cause significant error
 Rotational temperatures (Kelvin)      0.12083     0.07910     0.05911
 Rotational constants (GHZ):           2.51776     1.64815     1.23159
 Zero-point vibrational energy     414803.0 (Joules/Mol)
                                   99.14030 (Kcal/Mol)
 Warning -- explicit consideration of  13 degrees of freedom as
           vibrations may cause significant error
 Vibrational temperatures:    169.22   254.77   276.03   314.92   399.06
          (Kelvin)            448.20   477.73   494.82   567.72   648.49
                              721.06   827.28   856.64   997.61  1057.59
                             1104.29  1193.99  1306.95  1339.03  1378.26
                             1390.82  1414.29  1417.52  1519.63  1545.29
                             1580.88  1588.70  1684.74  1729.33  1786.22
                             1825.52  1880.98  1929.23  1991.61  2028.74
                             2037.42  2039.61  2131.62  2144.25  2162.94
                             2410.02  4187.29  4352.27  4434.49  4470.27
                             4502.30  4571.58  4626.82  4640.58  5447.01
                             5472.91

 Zero-point correction=                           0.157990 (Hartree/Particle)
 Thermal correction to Energy=                    0.166843
 Thermal correction to Enthalpy=                  0.167787
 Thermal correction to Gibbs Free Energy=         0.125211
 Sum of electronic and zero-point Energies=           -423.015526
 Sum of electronic and thermal Energies=              -423.006673
 Sum of electronic and thermal Enthalpies=            -423.005729
 Sum of electronic and thermal Free Energies=         -423.048306

                     E (Thermal)             CV                S
                      KCal/Mol        Cal/Mol-Kelvin    Cal/Mol-Kelvin
 Total                  104.696             34.617             89.610
 Electronic               0.000              0.000              0.000
 Translational            0.889              2.981             40.409
 Rotational               0.889              2.981             28.533
 Vibrational            102.918             28.655             20.668
 Vibration     1          0.608              1.935              3.139
 Vibration     2          0.628              1.871              2.359
 Vibration     3          0.634              1.851              2.210
 Vibration     4          0.647              1.812              1.968
 Vibration     5          0.678              1.715              1.550
 Vibration     6          0.700              1.652              1.354
 Vibration     7          0.714              1.612              1.250
 Vibration     8          0.723              1.588              1.194
 Vibration     9          0.762              1.482              0.983
 Vibration    10          0.810              1.359              0.794
 Vibration    11          0.857              1.247              0.655
 Vibration    12          0.931              1.085              0.495
 Vibration    13          0.953              1.042              0.458

 Normal termination of Gaussian 09 at Tue Jan 28 00:53:58 2020.
