 Gaussian 09, Revision D.01,
 Gaussian 09:  ES64L-G09RevD.01 24-Apr-2013

 -----------------------------
 # b3lyp 6-31G(2df,p) opt Freq
 -----------------------------

 -----
 titel
 -----
 Symbolic Z-matrix:
 Charge =  0 Multiplicity = 1

 SCF Done:  E(RB3LYP) =  -423.203440409     A.U. after   14 cycles
 Optimization completed.
    -- Stationary point found.
 Normal termination of Gaussian 09 at Mon Jan 27 17:16:23 2020.

 ----------------------------------------------------------------------
 #N Geom=AllCheck Guess=TCheck SCRF=Check GenChk RB3LYP/6-31G(2df,p) Fr
 eq
 ----------------------------------------------------------------------

 Structure from the checkpoint file:  "/scratch/puck/g09_35d9ad32-ea9e-4d8c-be68-a29d6887f3d9/Gau-60067.chk"
 -----
 titel
 -----
 Charge =  0 Multiplicity = 1

                         Standard orientation:
 ---------------------------------------------------------------------
 Center     Atomic      Atomic             Coordinates (Angstroms)
 Number     Number       Type             X           Y           Z
 ---------------------------------------------------------------------
      1          6           0        2.334343   -0.015137   -0.619150
      2          6           0        1.025979   -0.268969    0.070775
      3          6           0        0.669044    0.302068    1.403636
      4          6           0       -0.135446    0.706591    0.150253
      5          6           0       -0.176147    2.133484   -0.332585
      6          6           0       -1.344619   -0.144710   -0.056269
      7          8           0       -2.476121    0.230304   -0.238863
      8          6           0       -0.870114   -1.603774   -0.079061
      9          8           0        0.544182   -1.580296   -0.176003
     10          1           0        3.087904   -0.727406   -0.268279
     11          1           0        2.230025   -0.135188   -1.701577
     12          1           0        2.696456    0.994586   -0.410321
     13          1           0        0.208703   -0.336549    2.150169
     14          1           0        1.299289    1.087811    1.807279
     15          1           0        0.758996    2.657330   -0.116201
     16          1           0       -0.353241    2.182560   -1.411635
     17          1           0       -0.992030    2.672118    0.159130
     18          1           0       -1.206539   -2.126392    0.828359
     19          1           0       -1.292297   -2.126245   -0.943592
 ---------------------------------------------------------------------

 SCF Done:  E(RB3LYP) =  -423.203440409     A.U. after    1 cycles

 The electronic state is 1-A.
 Alpha  occ. eigenvalues --  -19.15263 -19.13136 -10.26957 -10.25539 -10.23785
 Alpha  occ. eigenvalues --  -10.20774 -10.20088 -10.18972 -10.18814  -1.06029
 Alpha  occ. eigenvalues --   -1.03734  -0.87067  -0.76358  -0.72026  -0.70369
 Alpha  occ. eigenvalues --   -0.64097  -0.56293  -0.54933  -0.49304  -0.47994
 Alpha  occ. eigenvalues --   -0.45607  -0.44449  -0.43407  -0.42501  -0.41161
 Alpha  occ. eigenvalues --   -0.39826  -0.39188  -0.38276  -0.38019  -0.36155
 Alpha  occ. eigenvalues --   -0.32987  -0.28595  -0.26111  -0.23271
 Alpha virt. eigenvalues --   -0.01803   0.08089   0.09125   0.11133   0.12705
 Alpha virt. eigenvalues --    0.12807   0.14418   0.14761   0.15050   0.16658
 Alpha virt. eigenvalues --    0.17643   0.17901   0.21075   0.21448   0.22399

 Mulliken charges:
               1
     1  C   -0.463778
     2  C    0.407702
     3  C   -0.388676
     4  C    0.124175
     5  C   -0.482088
     6  C    0.343612
     7  O   -0.324412
     8  C   -0.207853
     9  O   -0.300961
    10  H    0.136619
    11  H    0.130342
    12  H    0.122553
    13  H    0.124335
    14  H    0.124014
    15  H    0.115696
    16  H    0.130210
    17  H    0.141860
    18  H    0.127010
    19  H    0.139640
 Sum of Mulliken charges =   0.00000

 Dipole moment (field-independent basis, Debye):
    X=              2.2495    Y=              0.4790    Z=              0.5734  Tot=              2.3703
 Quadrupole moment (field-independent basis, Debye-Ang):
   XX=            -59.5675   YY=            -52.5897   ZZ=            -51.1683
   XY=              4.7768   XZ=             -0.7785   YZ=             -0.1931

  Exact polarizability:  84.935   1.838  77.204   2.543   0.066  65.817
 Approx polarizability: 126.773  -2.915 108.435   7.361   1.055 100.482

                      1                      2                      3
                      A                      A                      A
 Frequencies --    105.3681               130.5151               160.8240
 Red. masses --      3.0236                 1.1335                 2.6843
 Frc consts  --      0.0198                 0.0114                 0.0409
 IR Inten    --      3.9813                 0.6210                 4.4984

                      4                      5                      6
                      A                      A                      A
 Frequencies --    189.2415               207.3533               258.1713
 Red. masses --      1.2243                 1.8176                 3.1607
 Frc consts  --      0.0258                 0.0460                 0.1241
 IR Inten    --      0.0205                 0.2479                 3.1424

                      7                      8                      9
                      A                      A                      A
 Frequencies --    330.5231               370.9006               454.2548
 Red. masses --      3.6750                 2.4798                 2.6828
 Frc consts  --      0.2365                 0.2010                 0.3262
 IR Inten    --      1.1781                 0.5202                 4.6306

                     10                     11                     12
                      A                      A                      A
 Frequencies --    475.2421               542.8550               598.8743
 Red. masses --      3.6178                 3.1725                 3.0488
 Frc consts  --      0.4814                 0.5508                 0.6442
 IR Inten    --     11.2372                 1.2016                 1.4525

                     13                     14                     15
                      A                      A                      A
 Frequencies --    636.9506               684.3888               704.9095
 Red. masses --      6.1360                 4.0934                 3.8350
 Frc consts  --      1.4667                 1.1296                 1.1228
 IR Inten    --      4.8069                 2.8652                 3.2898

                     16                     17                     18
                      A                      A                      A
 Frequencies --    823.6230               876.1149               929.2185
 Red. masses --      2.5811                 2.1264                 1.3390
 Frc consts  --      1.0316                 0.9617                 0.6812
 IR Inten    --     32.1178                25.3186                 1.2148

                     19                     20                     21
                      A                      A                      A
 Frequencies --    950.5897               965.4936              1014.8231
 Red. masses --      1.7542                 1.7494                 1.9312
 Frc consts  --      0.9339                 0.9608                 1.1718
 IR Inten    --      2.4977                 1.1444                 1.7622

                     22                     23                     24
                      A                      A                      A
 Frequencies --   1034.3351              1092.4915              1096.6797
 Red. masses --      1.4051                 2.5383                 4.3592
 Frc consts  --      0.8857                 1.7850                 3.0890
 IR Inten    --      3.1358                35.7351                47.2791

                     25                     26                     27
                      A                      A                      A
 Frequencies --   1100.7676              1114.2176              1175.7107
 Red. masses --      2.0380                 1.9736                 2.7201
 Frc consts  --      1.4550                 1.4436                 2.2153
 IR Inten    --     19.3224                39.4090                14.2828

                     28                     29                     30
                      A                      A                      A
 Frequencies --   1203.6386              1211.9644              1333.5402
 Red. masses --      1.3710                 1.9617                 1.6103
 Frc consts  --      1.1702                 1.6977                 1.6873
 IR Inten    --      3.4244                34.7285                 6.3218

                     31                     32                     33
                      A                      A                      A
 Frequencies --   1354.9134              1388.4412              1415.8771
 Red. masses --      2.7651                 1.8255                 1.3142
 Frc consts  --      2.9907                 2.0734                 1.5522
 IR Inten    --     42.4281                12.6264                 2.3119

                     34                     35                     36
                      A                      A                      A
 Frequencies --   1428.6799              1474.2309              1479.3285
 Red. masses --      1.6312                 1.0455                 1.1897
 Frc consts  --      1.9617                 1.3388                 1.5340
 IR Inten    --     14.3505                 3.6794                 9.8487

                     37                     38                     39
                      A                      A                      A
 Frequencies --   1485.3089              1491.5027              1493.0049
 Red. masses --      1.0597                 1.1399                 1.0714
 Frc consts  --      1.3774                 1.4941                 1.4071
 IR Inten    --      9.0950                 5.0904                 6.8149

                     40                     41                     42
                      A                      A                      A
 Frequencies --   1506.1182              1835.2708              3004.1630
 Red. masses --      1.1943                12.6284                 1.0672
 Frc consts  --      1.5962                25.0610                 5.6749
 IR Inten    --     11.3618               248.7899                29.9508

                     43                     44                     45
                      A                      A                      A
 Frequencies --   3038.6426              3043.0058              3075.6869
 Red. masses --      1.0349                 1.0354                 1.0948
 Frc consts  --      5.6299                 5.6490                 6.1018
 IR Inten    --     20.4791                21.1133                13.8141

                     46                     47                     48
                      A                      A                      A
 Frequencies --   3105.4963              3109.2883              3113.3929
 Red. masses --      1.1012                 1.1015                 1.1017
 Frc consts  --      6.2573                 6.2739                 6.2921
 IR Inten    --     11.3576                17.3470                13.6844

                     49                     50                     51
                      A                      A                      A
 Frequencies --   3125.6645              3128.3358              3216.6471
 Red. masses --      1.0865                 1.0675                 1.1175
 Frc consts  --      6.2544                 6.1554                 6.8125
 IR Inten    --      7.9286                16.9875                 4.3812

 - Thermochemistry -
 -------------------
 Temperature   298.150 Kelvin.  Pressure   1.00000 Atm.
 Atom     1 has atomic number  6 and mass  12.00000

 Molecular mass:   126.06808 amu.
 Principal axes and moments of inertia in atomic units:
                           1         2         3
     Eigenvalues --   754.201671043.893621468.69453
           X            0.99760   0.06811  -0.01254
           Y           -0.06827   0.99759  -0.01269
           Z            0.01164   0.01351   0.99984
 This molecule is an asymmetric top.
 Rotational symmetry number  1.
 Warning -- assumption of classical behavior for rotation
           may cause significant error
 Rotational temperatures (Kelvin)      0.11484     0.08297     0.05897
 Rotational constants (GHZ):           2.39292     1.72886     1.22881
 Zero-point vibrational energy     413229.5 (Joules/Mol)
                                   98.76422 (Kcal/Mol)
 Warning -- explicit consideration of  12 degrees of freedom as
           vibrations may cause significant error
 Vibrational temperatures:    151.60   187.78   231.39   272.28   298.33
          (Kelvin)            371.45   475.55   533.64   653.57   683.77
                              781.05   861.65   916.43   984.68  1014.21
                             1185.01  1260.53  1336.94  1367.68  1389.13
                             1460.10  1488.18  1571.85  1577.88  1583.76
                             1603.11  1691.58  1731.77  1743.74  1918.66
                             1949.42  1997.65  2037.13  2055.55  2121.09
                             2128.42  2137.03  2145.94  2148.10  2166.97
                             2640.54  4322.32  4371.92  4378.20  4425.22
                             4468.11  4473.57  4479.47  4497.13  4500.97
                             4628.03

 Zero-point correction=                           0.157391 (Hartree/Particle)
 Thermal correction to Energy=                    0.166359
 Thermal correction to Enthalpy=                  0.167303
 Thermal correction to Gibbs Free Energy=         0.124054
 Sum of electronic and zero-point Energies=           -423.046050
 Sum of electronic and thermal Energies=              -423.037082
 Sum of electronic and thermal Enthalpies=            -423.036137
 Sum of electronic and thermal Free Energies=         -423.079387

                     E (Thermal)             CV                S
                      KCal/Mol        Cal/Mol-Kelvin    Cal/Mol-Kelvin
 Total                  104.392             33.732             91.026
 Electronic               0.000              0.000              0.000
 Translational            0.889              2.981             40.409
 Rotational               0.889              2.981             28.538
 Vibrational            102.614             27.770             22.080
 Vibration     1          0.605              1.945              3.353
 Vibration     2          0.612              1.923              2.938
 Vibration     3          0.622              1.890              2.540
 Vibration     4          0.633              1.855              2.235
 Vibration     5          0.641              1.829              2.067
 Vibration     6          0.667              1.749              1.674
 Vibration     7          0.713              1.615              1.258
 Vibration     8          0.743              1.532              1.076
 Vibration     9          0.813              1.351              0.783
 Vibration    10          0.832              1.305              0.723
 Vibration    11          0.898              1.155              0.559
 Vibration    12          0.957              1.034              0.452

 Optimization completed.
    -- Stationary point found.
 Normal termination of Gaussian 09 at Mon Jan 27 18:00:21 2020.
