 Gaussian 09, Revision D.01,
 Gaussian 09:  ES64L-G09RevD.01 24-Apr-2013

 -----------------------------
 # b3lyp 6-31G(2df,p) opt Freq
 -----------------------------

 -----
 titel
 -----
 Symbolic Z-matrix:
 Charge =  0 Multiplicity = 1

 SCF Done:  E(RB3LYP) =  -423.096534282     A.U. after   14 cycles
 Optimization completed.
    -- Stationary point found.
 Normal termination of Gaussian 09 at Mon Jan 27 23:08:01 2020.

 ----------------------------------------------------------------------
 #N Geom=AllCheck Guess=TCheck SCRF=Check GenChk RB3LYP/6-31G(2df,p) Fr
 eq
 ----------------------------------------------------------------------

 Structure from the checkpoint file:  "/scratch/puck/g09_6139cbc7-bc04-4a07-b32c-930e434cf871/Gau-196144.chk"
 -----
 titel
 -----
 Charge =  0 Multiplicity = 1

                         Standard orientation:
 ---------------------------------------------------------------------
 Center     Atomic      Atomic             Coordinates (Angstroms)
 Number     Number       Type             X           Y           Z
 ---------------------------------------------------------------------
      1          8           0        0.520686    1.927434   -0.393638
      2          6           0        1.101581    0.655992   -0.505834
      3          6           0        1.491885   -0.202912    0.725241
      4          8           0        1.439825   -1.374648   -0.208007
      5          6           0        0.186165   -0.599982   -0.449176
      6          6           0       -1.145306   -0.830540   -1.101424
      7          6           0       -2.035361    0.107453   -0.193261
      8          6           0       -1.278995    0.383872    1.177861
      9          6           0       -0.014585   -0.476820    1.053351
     10          1           0        1.222808    2.583268   -0.437826
     11          1           0        1.839386    0.597930   -1.313108
     12          1           0        2.366635   -0.159275    1.376442
     13          1           0       -1.203665   -0.558995   -2.158204
     14          1           0       -1.440886   -1.879211   -0.995432
     15          1           0       -2.203601    1.054960   -0.709481
     16          1           0       -3.014960   -0.346966   -0.026142
     17          1           0       -1.076207    1.447720    1.277611
     18          1           0       -1.884916    0.072579    2.032222
     19          1           0       -0.120978   -1.456676    1.526526
 ---------------------------------------------------------------------

 SCF Done:  E(RB3LYP) =  -423.096534282     A.U. after    1 cycles

 The electronic state is 1-A.
 Alpha  occ. eigenvalues --  -19.14990 -19.13367 -10.24313 -10.23827 -10.23508
 Alpha  occ. eigenvalues --  -10.18736 -10.18358 -10.17827 -10.17683  -1.05622
 Alpha  occ. eigenvalues --   -1.02476  -0.82599  -0.74712  -0.70930  -0.66042
 Alpha  occ. eigenvalues --   -0.62430  -0.57339  -0.53509  -0.51623  -0.48446
 Alpha  occ. eigenvalues --   -0.45407  -0.44560  -0.41945  -0.41055  -0.39256
 Alpha  occ. eigenvalues --   -0.36929  -0.34880  -0.33959  -0.32671  -0.32365
 Alpha  occ. eigenvalues --   -0.30818  -0.27765  -0.26959  -0.23556
 Alpha virt. eigenvalues --    0.05700   0.08394   0.10104   0.10688   0.13190
 Alpha virt. eigenvalues --    0.13462   0.14799   0.15654   0.16022   0.16536
 Alpha virt. eigenvalues --    0.17351   0.18689   0.20219   0.21751   0.22700

 Mulliken charges:
               1
     1  O   -0.428243
     2  C    0.083450
     3  C   -0.064002
     4  O   -0.367912
     5  C    0.406925
     6  C   -0.371398
     7  C   -0.195065
     8  C   -0.274847
     9  C    0.005546
    10  H    0.291597
    11  H    0.084145
    12  H    0.085466
    13  H    0.107460
    14  H    0.116819
    15  H    0.120223
    16  H    0.102393
    17  H    0.125439
    18  H    0.092669
    19  H    0.079334
 Sum of Mulliken charges =   0.00000

 Dipole moment (field-independent basis, Debye):
    X=             -0.0791    Y=              1.7399    Z=              0.1487  Tot=              1.7480
 Quadrupole moment (field-independent basis, Debye-Ang):
   XX=            -50.9286   YY=            -52.9507   ZZ=            -52.3207
   XY=              7.1968   XZ=              0.7844   YZ=             -1.1652

  Exact polarizability:  83.491   1.635  71.037   1.100  -1.118  69.946
 Approx polarizability: 117.670  -1.702 110.740   1.647  -0.659 104.849

                      1                      2                      3
                      A                      A                      A
 Frequencies --     93.3767               199.7733               215.4955
 Red. masses --      2.0004                 3.1778                 1.0992
 Frc consts  --      0.0103                 0.0747                 0.0301
 IR Inten    --      0.4005                 1.1429                95.6191

                      4                      5                      6
                      A                      A                      A
 Frequencies --    270.1301               328.3832               396.5320
 Red. masses --      3.4662                 3.2200                 2.6219
 Frc consts  --      0.1490                 0.2046                 0.2429
 IR Inten    --      2.6350                11.0536                 5.8604

                      7                      8                      9
                      A                      A                      A
 Frequencies --    435.0748               536.9639               607.5741
 Red. masses --      5.1317                 6.3665                 6.7352
 Frc consts  --      0.5723                 1.0815                 1.4649
 IR Inten    --      5.0503                 3.6186                 2.0820

                     10                     11                     12
                      A                      A                      A
 Frequencies --    687.2920               688.2671               709.1172
 Red. masses --      2.4951                 3.7574                 2.0886
 Frc consts  --      0.6944                 1.0487                 0.6188
 IR Inten    --      9.0795                11.2465                 6.9141

                     13                     14                     15
                      A                      A                      A
 Frequencies --    754.3931               818.8455               855.3958
 Red. masses --      2.1861                 2.6838                 2.8622
 Frc consts  --      0.7330                 1.0602                 1.2339
 IR Inten    --      4.6636                 0.8550                 1.6288

                     16                     17                     18
                      A                      A                      A
 Frequencies --    872.8744               894.0933               940.8669
 Red. masses --      2.4144                 2.6776                 2.2020
 Frc consts  --      1.0838                 1.2611                 1.1485
 IR Inten    --      4.5010                 5.7629                 8.1165

                     19                     20                     21
                      A                      A                      A
 Frequencies --    950.9024               966.4433              1007.3447
 Red. masses --      2.9627                 2.5318                 2.7801
 Frc consts  --      1.5784                 1.3932                 1.6621
 IR Inten    --      2.4705                 3.8242                16.5361

                     22                     23                     24
                      A                      A                      A
 Frequencies --   1060.0878              1079.0023              1115.0411
 Red. masses --      1.6704                 1.6785                 2.0527
 Frc consts  --      1.1060                 1.1514                 1.5037
 IR Inten    --      2.2500                 5.2599                 1.3076

                     25                     26                     27
                      A                      A                      A
 Frequencies --   1137.6792              1163.9809              1190.6224
 Red. masses --      3.9224                 1.3057                 1.4056
 Frc consts  --      2.9912                 1.0423                 1.1740
 IR Inten    --    109.2023                14.6483                23.9214

                     28                     29                     30
                      A                      A                      A
 Frequencies --   1194.5156              1214.9180              1237.7034
 Red. masses --      1.5884                 1.2968                 1.2714
 Frc consts  --      1.3353                 1.1277                 1.1475
 IR Inten    --     13.0855                 1.5332                 3.6808

                     31                     32                     33
                      A                      A                      A
 Frequencies --   1250.8192              1266.0401              1293.9998
 Red. masses --      1.5562                 1.3417                 1.3326
 Frc consts  --      1.4345                 1.2670                 1.3147
 IR Inten    --     49.9121                 4.2343                 4.0951

                     34                     35                     36
                      A                      A                      A
 Frequencies --   1305.0561              1314.1764              1352.8798
 Red. masses --      1.3850                 1.4776                 1.9143
 Frc consts  --      1.3898                 1.5035                 2.0643
 IR Inten    --      3.8677                 3.4300                10.6067

                     37                     38                     39
                      A                      A                      A
 Frequencies --   1372.0900              1451.1116              1478.5254
 Red. masses --      1.4132                 1.8111                 1.0847
 Frc consts  --      1.5676                 2.2469                 1.3971
 IR Inten    --      9.5686                 8.3851                 1.5748

                     40                     41                     42
                      A                      A                      A
 Frequencies --   1488.8596              1503.0371              3053.6548
 Red. masses --      1.1191                 1.1019                 1.0628
 Frc consts  --      1.4616                 1.4666                 5.8389
 IR Inten    --      2.7014                 3.1929                12.5273

                     43                     44                     45
                      A                      A                      A
 Frequencies --   3055.6059              3066.1159              3070.3984
 Red. masses --      1.0827                 1.0702                 1.0713
 Frc consts  --      5.9560                 5.9276                 5.9505
 IR Inten    --     52.4229                25.2582                29.1992

                     46                     47                     48
                      A                      A                      A
 Frequencies --   3081.1032              3100.5515              3103.5418
 Red. masses --      1.0735                 1.1040                 1.0929
 Frc consts  --      6.0045                 6.2528                 6.2021
 IR Inten    --     49.0948                12.6364                63.7301

                     49                     50                     51
                      A                      A                      A
 Frequencies --   3118.8613              3157.2674              3827.5736
 Red. masses --      1.1047                 1.0968                 1.0665
 Frc consts  --      6.3310                 6.4417                 9.2053
 IR Inten    --     25.9913                13.5233                34.7138

 - Thermochemistry -
 -------------------
 Temperature   298.150 Kelvin.  Pressure   1.00000 Atm.
 Atom     1 has atomic number  8 and mass  15.99491

 Molecular mass:   126.06808 amu.
 Principal axes and moments of inertia in atomic units:
                           1         2         3
     Eigenvalues --   738.71520 983.395081164.06505
           X            0.99795   0.06386   0.00471
           Y           -0.06386   0.99796   0.00000
           Z           -0.00470  -0.00030   0.99999
 This molecule is an asymmetric top.
 Rotational symmetry number  1.
 Warning -- assumption of classical behavior for rotation
           may cause significant error
 Rotational temperatures (Kelvin)      0.11725     0.08808     0.07441
 Rotational constants (GHZ):           2.44308     1.83521     1.55038
 Zero-point vibrational energy     420690.5 (Joules/Mol)
                                  100.54744 (Kcal/Mol)
 Warning -- explicit consideration of   9 degrees of freedom as
           vibrations may cause significant error
 Vibrational temperatures:    134.35   287.43   310.05   388.66   472.47
          (Kelvin)            570.52   625.97   772.57   874.16   988.86
                              990.26  1020.26  1085.40  1178.13  1230.72
                             1255.87  1286.40  1353.70  1368.13  1390.49
                             1449.34  1525.23  1552.44  1604.29  1636.86
                             1674.71  1713.04  1718.64  1747.99  1780.78
                             1799.65  1821.55  1861.77  1877.68  1890.80
                             1946.49  1974.13  2087.82  2127.27  2142.13
                             2162.53  4393.52  4396.33  4411.45  4417.61
                             4433.01  4461.00  4465.30  4487.34  4542.60
                             5507.02

 Zero-point correction=                           0.160233 (Hartree/Particle)
 Thermal correction to Energy=                    0.167840
 Thermal correction to Enthalpy=                  0.168784
 Thermal correction to Gibbs Free Energy=         0.128389
 Sum of electronic and zero-point Energies=           -422.936302
 Sum of electronic and thermal Energies=              -422.928695
 Sum of electronic and thermal Enthalpies=            -422.927750
 Sum of electronic and thermal Free Energies=         -422.968145

                     E (Thermal)             CV                S
                      KCal/Mol        Cal/Mol-Kelvin    Cal/Mol-Kelvin
 Total                  105.321             30.615             85.018
 Electronic               0.000              0.000              0.000
 Translational            0.889              2.981             40.409
 Rotational               0.889              2.981             28.227
 Vibrational            103.544             24.653             16.383
 Vibration     1          0.602              1.954              3.588
 Vibration     2          0.638              1.840              2.135
 Vibration     3          0.645              1.817              1.997
 Vibration     4          0.674              1.728              1.595
 Vibration     5          0.712              1.619              1.268
 Vibration     6          0.763              1.478              0.975
 Vibration     7          0.796              1.394              0.842
 Vibration     8          0.892              1.168              0.572
 Vibration     9          0.966              1.016              0.437

 Normal termination of Gaussian 09 at Mon Jan 27 23:58:37 2020.
