 Gaussian 09, Revision D.01,
 Gaussian 09:  ES64L-G09RevD.01 24-Apr-2013

 -----------------------------
 # b3lyp 6-31G(2df,p) opt Freq
 -----------------------------

 -----
 titel
 -----
 Symbolic Z-matrix:
 Charge =  0 Multiplicity = 1

 SCF Done:  E(RB3LYP) =  -423.260838953     A.U. after   14 cycles
 SCF Done:  E(RB3LYP) =  -423.260838891     A.U. after    8 cycles
 SCF Done:  E(RB3LYP) =  -423.260839883     A.U. after    8 cycles
 Optimization completed.
    -- Stationary point found.
 Normal termination of Gaussian 09 at Mon Jan 27 13:11:56 2020.

 ----------------------------------------------------------------------
 #N Geom=AllCheck Guess=TCheck SCRF=Check GenChk RB3LYP/6-31G(2df,p) Fr
 eq
 ----------------------------------------------------------------------

 Structure from the checkpoint file:  "/scratch/puck/g09_bb00ac67-e5ad-46ed-8b4c-31c1bac2aa06/Gau-46755.chk"
 -----
 titel
 -----
 Charge =  0 Multiplicity = 1

                         Standard orientation:
 ---------------------------------------------------------------------
 Center     Atomic      Atomic             Coordinates (Angstroms)
 Number     Number       Type             X           Y           Z
 ---------------------------------------------------------------------
      1          8           0        2.363696    0.336298   -0.638331
      2          6           0        1.323715   -0.036180   -0.179836
      3          8           0        0.641932   -1.111585   -0.680203
      4          6           0       -0.596845   -1.281346    0.060908
      5          6           0       -0.255734   -0.699658    1.439519
      6          6           0        0.503895    0.548050    0.973884
      7          6           0       -0.504671    1.575101    0.401618
      8          6           0       -1.275648    1.000679   -0.807101
      9          6           0       -1.711790   -0.466995   -0.608706
     10          1           0       -0.815642   -2.350383    0.065370
     11          1           0       -1.141631   -0.478894    2.039900
     12          1           0        0.389853   -1.380892    2.001815
     13          1           0        1.157836    1.002107    1.718258
     14          1           0       -1.197661    1.848633    1.206348
     15          1           0        0.018032    2.489195    0.103911
     16          1           0       -2.145392    1.625310   -1.031626
     17          1           0       -0.628904    1.050725   -1.689521
     18          1           0       -2.604015   -0.530928    0.026161
     19          1           0       -1.975036   -0.910491   -1.574067
 ---------------------------------------------------------------------

 SCF Done:  E(RB3LYP) =  -423.260839883     A.U. after    1 cycles

 The electronic state is 1-A.
 Alpha  occ. eigenvalues --  -19.17343 -19.11894 -10.29633 -10.25003 -10.20517
 Alpha  occ. eigenvalues --  -10.19885 -10.19803 -10.19447 -10.19288  -1.09278
 Alpha  occ. eigenvalues --   -1.01619  -0.84271  -0.77170  -0.75523  -0.65228
 Alpha  occ. eigenvalues --   -0.63288  -0.58303  -0.54850  -0.51532  -0.48365
 Alpha  occ. eigenvalues --   -0.46492  -0.44266  -0.42658  -0.41342  -0.40916
 Alpha  occ. eigenvalues --   -0.40209  -0.39401  -0.38330  -0.34498  -0.34302
 Alpha  occ. eigenvalues --   -0.32269  -0.32020  -0.28789  -0.25818
 Alpha virt. eigenvalues --    0.01590   0.06968   0.10438   0.11653   0.12569
 Alpha virt. eigenvalues --    0.13689   0.14331   0.15246   0.15345   0.15512
 Alpha virt. eigenvalues --    0.17752   0.18710   0.19904   0.20378   0.21373

 Mulliken charges:
               1
     1  O   -0.350710
     2  C    0.437426
     3  O   -0.238213
     4  C    0.102001
     5  C   -0.235800
     6  C   -0.149736
     7  C   -0.215037
     8  C   -0.209753
     9  C   -0.209205
    10  H    0.090749
    11  H    0.105101
    12  H    0.112432
    13  H    0.095677
    14  H    0.101762
    15  H    0.118594
    16  H    0.100449
    17  H    0.131092
    18  H    0.101602
    19  H    0.111568
 Sum of Mulliken charges =   0.00000

 Dipole moment (field-independent basis, Debye):
    X=             -3.7584    Y=             -0.0237    Z=              2.0989  Tot=              4.3049
 Quadrupole moment (field-independent basis, Debye-Ang):
   XX=            -59.7163   YY=            -51.5321   ZZ=            -52.6524
   XY=             -0.0884   XZ=              3.8858   YZ=             -0.9621

  Exact polarizability:  79.266   3.811  72.503  -0.203  -0.528  68.029
 Approx polarizability: 118.688   8.626 105.541  -6.291   0.500 101.374

                      1                      2                      3
                      A                      A                      A
 Frequencies --    137.5923               226.7130               256.7037
 Red. masses --      6.3025                 2.4558                 2.0553
 Frc consts  --      0.0703                 0.0744                 0.0798
 IR Inten    --      1.3681                 1.3581                 0.7408

                      4                      5                      6
                      A                      A                      A
 Frequencies --    354.3626               410.4561               456.0753
 Red. masses --      3.4488                 1.9833                 4.5519
 Frc consts  --      0.2552                 0.1969                 0.5579
 IR Inten    --      2.2248                 0.2287                 1.5942

                      7                      8                      9
                      A                      A                      A
 Frequencies --    496.9579               561.0767               677.2029
 Red. masses --      4.2733                 2.5593                 3.6265
 Frc consts  --      0.6218                 0.4747                 0.9799
 IR Inten    --      2.3804                 1.0717                 3.4253

                     10                     11                     12
                      A                      A                      A
 Frequencies --    730.6505               758.3968               808.3646
 Red. masses --      4.1622                 3.4730                 3.5997
 Frc consts  --      1.3092                 1.1769                 1.3859
 IR Inten    --      5.1601                 4.2296                 0.1512

                     13                     14                     15
                      A                      A                      A
 Frequencies --    821.4401               852.4234               888.4463
 Red. masses --      2.3923                 2.5482                 1.7604
 Frc consts  --      0.9511                 1.0909                 0.8187
 IR Inten    --      0.8095                 1.8880                 1.9829

                     16                     17                     18
                      A                      A                      A
 Frequencies --    895.7545               918.5145               985.9261
 Red. masses --      2.3361                 2.4918                 3.0591
 Frc consts  --      1.1044                 1.2386                 1.7520
 IR Inten    --      2.1123                31.0709                61.9307

                     19                     20                     21
                      A                      A                      A
 Frequencies --   1011.1938              1038.0411              1057.5451
 Red. masses --      1.6897                 2.6152                 1.8421
 Frc consts  --      1.0179                 1.6603                 1.2138
 IR Inten    --      5.1091                13.0392                 3.4013

                     22                     23                     24
                      A                      A                      A
 Frequencies --   1060.9761              1098.9380              1122.8174
 Red. masses --      1.8866                 1.9499                 1.0601
 Frc consts  --      1.2512                 1.3875                 0.7874
 IR Inten    --      4.4619                26.3659                 4.3832

                     25                     26                     27
                      A                      A                      A
 Frequencies --   1149.7070              1188.0572              1212.2143
 Red. masses --      2.4523                 1.3379                 1.6463
 Frc consts  --      1.9098                 1.1126                 1.4253
 IR Inten    --    105.4041                12.6490                 6.1171

                     28                     29                     30
                      A                      A                      A
 Frequencies --   1257.9200              1291.8213              1301.0221
 Red. masses --      1.2885                 1.6168                 1.5644
 Frc consts  --      1.2013                 1.5897                 1.5601
 IR Inten    --      3.4135                14.8827                 0.2836

                     31                     32                     33
                      A                      A                      A
 Frequencies --   1328.1107              1346.0049              1358.7377
 Red. masses --      1.4071                 1.4789                 1.4217
 Frc consts  --      1.4624                 1.5786                 1.5464
 IR Inten    --      0.7399                 3.0085                 7.4357

                     34                     35                     36
                      A                      A                      A
 Frequencies --   1375.8104              1384.4137              1394.5582
 Red. masses --      1.4861                 1.4318                 1.4076
 Frc consts  --      1.6574                 1.6169                 1.6129
 IR Inten    --     10.8567                 3.4142                 4.9915

                     37                     38                     39
                      A                      A                      A
 Frequencies --   1481.1616              1486.1816              1497.3558
 Red. masses --      1.0886                 1.0884                 1.0905
 Frc consts  --      1.4071                 1.4165                 1.4405
 IR Inten    --      1.8631                 1.7163                 7.5144

                     40                     41                     42
                      A                      A                      A
 Frequencies --   1507.2814              1884.8497              3033.2308
 Red. masses --      1.0981                12.6378                 1.0641
 Frc consts  --      1.4699                26.4529                 5.7681
 IR Inten    --      2.1195               354.8982                25.5548

                     43                     44                     45
                      A                      A                      A
 Frequencies --   3034.7056              3047.8338              3057.6181
 Red. masses --      1.0633                 1.0637                 1.0606
 Frc consts  --      5.7694                 5.8215                 5.8423
 IR Inten    --     21.5240                13.7386                17.4419

                     46                     47                     48
                      A                      A                      A
 Frequencies --   3079.1635              3083.0805              3094.2527
 Red. masses --      1.0956                 1.1005                 1.1048
 Frc consts  --      6.1201                 6.1631                 6.2322
 IR Inten    --     35.0693                10.6730                33.3479

                     49                     50                     51
                      A                      A                      A
 Frequencies --   3101.1431              3110.1197              3116.6031
 Red. masses --      1.0885                 1.1051                 1.0881
 Frc consts  --      6.1677                 6.2980                 6.2272
 IR Inten    --     42.6513                26.7423                15.9930

 - Thermochemistry -
 -------------------
 Temperature   298.150 Kelvin.  Pressure   1.00000 Atm.
 Atom     1 has atomic number  8 and mass  15.99491

 Molecular mass:   126.06808 amu.
 Principal axes and moments of inertia in atomic units:
                           1         2         3
     Eigenvalues --   721.731911023.972191148.75649
           X            0.99912   0.00028   0.04198
           Y            0.00171   0.99887  -0.04743
           Z           -0.04195   0.04746   0.99799
 This molecule is an asymmetric top.
 Rotational symmetry number  1.
 Warning -- assumption of classical behavior for rotation
           may cause significant error
 Rotational temperatures (Kelvin)      0.12001     0.08459     0.07540
 Rotational constants (GHZ):           2.50057     1.76249     1.57104
 Zero-point vibrational energy     429636.0 (Joules/Mol)
                                  102.68546 (Kcal/Mol)
 Warning -- explicit consideration of   8 degrees of freedom as
           vibrations may cause significant error
 Vibrational temperatures:    197.96   326.19   369.34   509.85   590.55
          (Kelvin)            656.19   715.01   807.26   974.34  1051.24
                             1091.16  1163.05  1181.87  1226.45  1278.27
                             1288.79  1321.54  1418.53  1454.88  1493.51
                             1521.57  1526.51  1581.12  1615.48  1654.17
                             1709.35  1744.10  1809.86  1858.64  1871.88
                             1910.85  1936.60  1954.92  1979.48  1991.86
                             2006.46  2131.06  2138.28  2154.36  2168.64
                             2711.87  4364.14  4366.26  4385.15  4399.22
                             4430.22  4435.86  4451.93  4461.85  4474.76
                             4484.09

 Zero-point correction=                           0.163640 (Hartree/Particle)
 Thermal correction to Energy=                    0.170523
 Thermal correction to Enthalpy=                  0.171467
 Thermal correction to Gibbs Free Energy=         0.132571
 Sum of electronic and zero-point Energies=           -423.097200
 Sum of electronic and thermal Energies=              -423.090317
 Sum of electronic and thermal Enthalpies=            -423.089373
 Sum of electronic and thermal Free Energies=         -423.128269

                     E (Thermal)             CV                S
                      KCal/Mol        Cal/Mol-Kelvin    Cal/Mol-Kelvin
 Total                  107.005             28.283             81.863
 Electronic               0.000              0.000              0.000
 Translational            0.889              2.981             40.409
 Rotational               0.889              2.981             28.231
 Vibrational            105.227             22.322             13.224
 Vibration     1          0.614              1.916              2.837
 Vibration     2          0.650              1.800              1.905
 Vibration     3          0.666              1.751              1.684
 Vibration     4          0.730              1.566              1.147
 Vibration     5          0.775              1.448              0.925
 Vibration     6          0.814              1.347              0.778
 Vibration     7          0.852              1.257              0.666
 Vibration     8          0.917              1.116              0.522

 Optimization completed.
    -- Stationary point found.
 Normal termination of Gaussian 09 at Mon Jan 27 13:58:45 2020.
