 Gaussian 09, Revision D.01,
 Gaussian 09:  ES64L-G09RevD.01 24-Apr-2013

 -----------------------------
 # b3lyp 6-31G(2df,p) opt Freq
 -----------------------------

 -----
 titel
 -----
 Symbolic Z-matrix:
 Charge =  0 Multiplicity = 1

 SCF Done:  E(RB3LYP) =  -423.185570663     A.U. after   14 cycles
 SCF Done:  E(RB3LYP) =  -423.185570858     A.U. after    7 cycles
 Optimization completed.
    -- Stationary point found.
 Normal termination of Gaussian 09 at Tue Jan 28 14:11:12 2020.

 ----------------------------------------------------------------------
 #N Geom=AllCheck Guess=TCheck SCRF=Check GenChk RB3LYP/6-31G(2df,p) Fr
 eq
 ----------------------------------------------------------------------

 Structure from the checkpoint file:  "/scratch/puck/g09_e77ce959-98cc-43a2-994e-aa276b6950ae/Gau-122788.chk"
 -----
 titel
 -----
 Charge =  0 Multiplicity = 1

                         Standard orientation:
 ---------------------------------------------------------------------
 Center     Atomic      Atomic             Coordinates (Angstroms)
 Number     Number       Type             X           Y           Z
 ---------------------------------------------------------------------
      1          8           0        2.856708   -0.948273   -0.201502
      2          6           0        2.148064    0.280644   -0.167438
      3          6           0        0.664677    0.092908   -0.460686
      4          6           0       -0.278204    1.328816   -0.298184
      5          6           0       -0.337746    0.996899    1.221450
      6          6           0       -0.229417   -0.478115    0.708464
      7          6           0       -1.556673   -0.594860   -0.030847
      8          8           0       -2.350506   -1.495328   -0.032741
      9          6           0       -1.620084    0.752540   -0.791266
     10          1           0        2.517066   -1.505549    0.506048
     11          1           0        2.316494    0.810124    0.781186
     12          1           0        2.590390    0.896107   -0.959095
     13          1           0        0.580393   -0.445525   -1.411519
     14          1           0        0.009909    2.316147   -0.659433
     15          1           0        0.542609    1.316563    1.778005
     16          1           0       -1.240472    1.276784    1.771844
     17          1           0        0.054117   -1.3   1           0       -1.670043    0.593106   -1.872653
     19          1           0       -2.493775    1.337902   -0.488358
 ---------------------------------------------------------------------

 SCF Done:  E(RB3LYP) =  -423.185570858     A.U. after    1 cycles

 The electronic state is 1-A.
 Alpha  occ. eigenvalues --  -19.14112 -19.13053 -10.26841 -10.23633 -10.20984
 Alpha  occ. eigenvalues --  -10.20656 -10.20600 -10.20389 -10.19459  -1.04208
 Alpha  occ. eigenvalues --   -1.02256  -0.90438  -0.74299  -0.71398  -0.68112
 Alpha  occ. eigenvalues --   -0.63717  -0.55826  -0.53659  -0.51631  -0.49802
 Alpha  occ. eigenvalues --   -0.47017  -0.45578  -0.43911  -0.40982  -0.39733
 Alpha  occ. eigenvalues --   -0.39402  -0.38606  -0.36756  -0.34391  -0.33088
 Alpha  occ. eigenvalues --   -0.32590  -0.31740  -0.27427  -0.23659
 Alpha virt. eigenvalues --   -0.00905   0.06528   0.08723   0.10359   0.11891
 Alpha virt. eigenvalues --    0.12231   0.13129   0.13775   0.14318   0.15878
 Alpha virt. eigenvalues --    0.18284   0.19281   0.19559   0.20851   0.22230

 Mulliken charges:
               1
     1  O   -0.415754
     2  C   -0.111727
     3  C    0.010920
     4  C   -0.046679
     5  C   -0.248645
     6  C   -0.145025
     7  C    0.436383
     8  O   -0.333964
     9  C   -0.337849
    10  H    0.285082
    11  H    0.090896
    12  H    0.115183
    13  H    0.084932
    14  H    0.072735
    15  H    0.113857
    16  H    0.106426
    17  H    0.072800
    18  H    0.126211
    19  H    0.124218
 Sum of Mulliken charges =   0.00000

 Dipole moment (field-independent basis, Debye):
    X=              0.9142    Y=              2.5167    Z=              0.9079  Tot=              2.8273
 Quadrupole moment (field-independent basis, Debye-Ang):
   XX=            -64.4556   YY=            -54.6361   ZZ=            -50.7791
   XY=             -4.4925   XZ=              2.7225   YZ=             -2.0494

  Exact polarizability:  84.498   1.917  73.888   1.324  -1.758  67.660
 Approx polarizability: 116.482   7.104 115.463   0.039  -2.126 103.889

                      1                      2                      3
                      A                      A                      A
 Frequencies --     94.0859               115.1559               178.0238
 Red. masses --      3.0183                 6.6944                 3.1939
 Frc consts  --      0.0157                 0.0523                 0.0596
 IR Inten    --      3.4287                 2.6860                 4.2264

                      4                      5                      6
                      A                      A                      A
 Frequencies --    268.1220               309.4622               379.4612
 Red. masses --      1.9209                 1.2727                 3.6008
 Frc consts  --      0.0814                 0.0718                 0.3055
 IR Inten    --     22.9024                84.4982                11.0875

                      7                      8                      9
                      A                      A                      A
 Frequencies --    434.7082               457.4923               527.3314
 Red. masses --      4.3338                 2.1921                 2.9514
 Frc consts  --      0.4825                 0.2703                 0.4835
 IR Inten    --      5.3382                 1.8323                 4.0642

                     10                     11                     12
                      A                      A                      A
 Frequencies --    591.9316               616.7423               765.8099
 Red. masses --      4.1782                 2.5448                 3.0071
 Frc consts  --      0.8625                 0.5703                 1.0391
 IR Inten    --      2.2390                 1.3453                 9.6084

                     13                     14                     15
                      A                      A                      A
 Frequencies --    782.6664               815.4788               852.5449
 Red. masses --      2.4261                 3.1403                 2.4424
 Frc consts  --      0.8756                 1.2304                 1.0459
 IR Inten    --      3.6870                10.8414                 2.2199

                     16                     17                     18
                      A                      A                      A
 Frequencies --    902.7309               941.9845               957.2016
 Red. masses --      1.9968                 2.2822                 2.0007
 Frc consts  --      0.9587                 1.1931                 1.0801
 IR Inten    --      1.0449                 2.8979                 2.3596

                     19                     20                     21
                      A                      A                      A
 Frequencies --    991.9374              1001.7430              1031.7155
 Red. masses --      1.6719                 1.8777                 2.5281
 Frc consts  --      0.9693                 1.1101                 1.5855
 IR Inten    --      2.6817                 1.4788                86.2129

                     22                     23                     24
                      A                      A                      A
 Frequencies --   1052.6774              1079.7709              1086.4612
 Red. masses --      2.4448                 1.6163                 1.9516
 Frc consts  --      1.5962                 1.1103                 1.3573
 IR Inten    --     11.8178                19.3572                41.1739

                     25                     26                     27
                      A                      A                      A
 Frequencies --   1103.3319              1155.1101              1164.1546
 Red. masses --      1.3012                 2.1259                 1.5707
 Frc consts  --      0.9333                 1.6713                 1.2542
 IR Inten    --      2.9918                12.5640                 0.3708

                     28                     29                     30
                      A                      A                      A
 Frequencies --   1185.7427              1215.7946              1233.0316
 Red. masses --      1.2052                 1.4926                 1.6032
 Frc consts  --      0.9984                 1.2999                 1.4361
 IR Inten    --      9.5562                 1.9220                 7.0819

                     31                     32                     33
                      A                      A                      A
 Frequencies --   1248.6630              1264.8611              1272.6057
 Red. masses --      1.6585                 1.6384                 1.6821
 Frc consts  --      1.5235                 1.5443                 1.6050
 IR Inten    --      6.0827                 1.1351                 7.0163

                     34                     35                     36
                      A                      A                      A
 Frequencies --   1302.8962              1356.3565              1402.6973
 Red. masses --      1.5492                 1.3502                 1.1875
 Frc consts  --      1.5494                 1.4635                 1.3767
 IR Inten    --      5.3611                 2.6770                28.3012

                     37                     38                     39
                      A                      A                      A
 Frequencies --   1425.8137              1460.6283              1498.0679
 Red. masses --      1.3514                 1.0971                 1.0898
 Frc consts  --      1.6187                 1.3790                 1.4409
 IR Inten    --     34.7807                 3.6332                 1.3824

                     40                     41                     42
                      A                      A                      A
 Frequencies --   1522.1835              1871.6310              3001.4456
 Red. masses --      1.1003                12.4295                 1.0662
 Frc consts  --      1.5021                25.6535                 5.6591
 IR Inten    --      2.5194               281.8886                34.6894

                     43                     44                     45
                      A                      A                      A
 Frequencies --   3042.3500              3056.1416              3065.4979
 Red. masses --      1.0834                 1.0593                 1.0763
 Frc consts  --      5.9081                 5.8291                 5.9593
 IR Inten    --     23.8588                17.1194                 6.3082

                     46                     47                     48
                      A                      A                      A
 Frequencies --   3067.0492              3103.6320              3112.3921
 Red. masses --      1.0832                 1.1047                 1.0905
 Frc consts  --      6.0036                 6.2697                 6.2239
 IR Inten    --     66.2976                13.6909                35.6972

                     49                     50                     51
                      A                      A                      A
 Frequencies --   3127.2772              3139.6641              3816.8973
 Red. masses --      1.0910                 1.1014                 1.0661
 Frc consts  --      6.2866                 6.3969                 9.1514
 IR Inten    --     23.9611                23.2767                13.1268

 - Thermochemistry -
 -------------------
 Temperature   298.150 Kelvin.  Pressure   1.00000 Atm.
 Atom     1 has atomic number  8 and mass  15.99491

 Molecular mass:   126.06808 amu.
 Principal axes and moments of inertia in atomic units:
                           1         2         3
     Eigenvalues --   595.175041518.217191740.55274
           X            0.99978  -0.01888   0.00941
           Y            0.01901   0.99973  -0.01318
           Z           -0.00916   0.01335   0.99987
 This molecule is an asymmetric top.
 Rotational symmetry number  1.
 Warning -- assumption of classical behavior for rotation
           may cause significant error
 Rotational temperatures (Kelvin)      0.14553     0.05705     0.04976
 Rotational constants (GHZ):           3.03229     1.18872     1.03688
 Zero-point vibrational energy     421391.5 (Joules/Mol)
                                  100.71498 (Kcal/Mol)
 Warning -- explicit consideration of  11 degrees of freedom as
           vibrations may cause significant error
 Vibrational temperatures:    135.37   165.68   256.14   385.77   445.25
          (Kelvin)            545.96   625.45   658.23   758.71   851.66
                              887.35  1101.83  1126.08  1173.29  1226.62
                             1298.83  1355.30  1377.20  1427.17  1441.28
                             1484.41  1514.57  1553.55  1563.17  1587.45
                             1661.94  1674.96  1706.02  1749.26  1774.06
                             1796.55  1819.85  1830.99  1874.57  1951.49
                             2018.17  2051.43  2101.52  2155.38  2190.08
                             2692.86  4318.41  4377.26  4397.10  4410.56
                             4412.79  4465.43  4478.03  4499.45  4517.27
                             5491.66

 Zero-point correction=                           0.160500 (Hartree/Particle)
 Thermal correction to Energy=                    0.168481
 Thermal correction to Enthalpy=                  0.169425
 Thermal correction to Gibbs Free Energy=         0.127789
 Sum of electronic and zero-point Energies=           -423.025071
 Sum of electronic and thermal Energies=              -423.017090
 Sum of electronic and thermal Enthalpies=            -423.016146
 Sum of electronic and thermal Free Energies=         -423.057782

                     E (Thermal)             CV                S
                      KCal/Mol        Cal/Mol-Kelvin    Cal/Mol-Kelvin
 Total                  105.723             31.126             87.631
 Electronic               0.000              0.000              0.000
 Translational            0.889              2.981             40.409
 Rotational               0.889              2.981             28.844
 Vibrational            103.946             25.165             18.379
 Vibration     1          0.603              1.953              3.573
 Vibration     2          0.608              1.937              3.180
 Vibration     3          0.628              1.869              2.349
 Vibration     4          0.673              1.732              1.608
 Vibration     5          0.699              1.656              1.365
 Vibration     6          0.749              1.514              1.041
 Vibration     7          0.795              1.395              0.843
 Vibration     8          0.816              1.344              0.773
 Vibration     9          0.882              1.190              0.593
 Vibration    10          0.949              1.049              0.464
 Vibration    11          0.976              0.996              0.422

 Normal termination of Gaussian 09 at Tue Jan 28 15:07:21 2020.
