 Gaussian 09, Revision D.01,
 Gaussian 09:  ES64L-G09RevD.01 24-Apr-2013

 -----------------------------
 # b3lyp 6-31G(2df,p) opt Freq
 -----------------------------

 -----
 titel
 -----
 Symbolic Z-matrix:
 Charge =  0 Multiplicity = 1

 SCF Done:  E(RB3LYP) =  -423.155820793     A.U. after   13 cycles
 Optimization completed.
    -- Stationary point found.
 Normal termination of Gaussian 09 at Mon Jan 27 12:04:26 2020.

 ----------------------------------------------------------------------
 #N Geom=AllCheck Guess=TCheck SCRF=Check GenChk RB3LYP/6-31G(2df,p) Fr
 eq
 ----------------------------------------------------------------------

 Structure from the checkpoint file:  "/scratch/puck/g09_1a255667-e73c-4e03-869f-d29478d48893/Gau-48309.chk"
 -----
 titel
 -----
 Charge =  0 Multiplicity = 1

                         Standard orientation:
 ---------------------------------------------------------------------
 Center     Atomic      Atomic             Coordinates (Angstroms)
 Number     Number       Type             X           Y           Z
 ---------------------------------------------------------------------
      1          6           0        2.239918    0.117342    0.680930
      2          6           0        2.102035   -0.789952   -0.532425
      3          6           0        0.913994   -0.052338   -0.018850
      4          8           0        0.436180    1.011496   -0.813070
      5          6           0       -0.623647    1.617712   -0.074348
      6          6           0       -1.344563    0.465304    0.621256
      7          8           0       -2.193209   -0.288987   -0.265651
      8          6           0       -1.280780   -1.407718   -0.271724
      9          6           0       -0.287778   -0.673877    0.656890
     10          1           0        2.384881   -0.338508    1.655013
     11          1           0        2.752910    1.060966    0.533281
     12          1           0        2.527224   -0.440269   -1.466300
     13          1           0        2.147290   -1.863982   -0.386699
     14          1           0       -0.227893    2.321498    0.675365
     15          1           0       -1.265731    2.155283   -0.775810
     16          1           0       -1.864062    0.758803    1.539009
     17          1           0       -1.741622   -2.306940    0.154943
     18          1           0       -0.906994   -1.630878   -1.277695
     19          1           0       -0.064850   -1.154887    1.608286
 ---------------------------------------------------------------------

 SCF Done:  E(RB3LYP) =  -423.155820793     A.U. after    1 cycles

 The electronic state is 1-A.
 Alpha  occ. eigenvalues --  -19.14336 -19.13111 -10.24059 -10.23568 -10.22880
 Alpha  occ. eigenvalues --  -10.22595 -10.19715 -10.18822 -10.18571  -1.05566
 Alpha  occ. eigenvalues --   -1.02522  -0.85316  -0.75949  -0.72728  -0.65263
 Alpha  occ. eigenvalues --   -0.60849  -0.56837  -0.55538  -0.51838  -0.48818
 Alpha  occ. eigenvalues --   -0.48683  -0.46562  -0.43578  -0.42209  -0.41730
 Alpha  occ. eigenvalues --   -0.38944  -0.36976  -0.35668  -0.33102  -0.31848
 Alpha  occ. eigenvalues --   -0.30188  -0.28873  -0.24915  -0.24026
 Alpha virt. eigenvalues --    0.07871   0.08330   0.10381   0.11225   0.12204
 Alpha virt. eigenvalues --    0.12870   0.14208   0.15160   0.16470   0.16661
 Alpha virt. eigenvalues --    0.18088   0.19048   0.19352   0.20849   0.22037

 Mulliken charges:
               1
     1  C   -0.343659
     2  C   -0.340946
     3  C    0.468355
     4  O   -0.288949
     5  C   -0.121016
     6  C    0.120361
     7  O   -0.291128
     8  C   -0.079230
     9  C   -0.180392
    10  H    0.110327
    11  H    0.122813
    12  H    0.129409
    13  H    0.115485
    14  H    0.088883
    15  H    0.120967
    16  H    0.077664
    17  H    0.097255
    18  H    0.110201
    19  H    0.083599
 Sum of Mulliken charges =   0.00000

 Dipole moment (field-independent basis, Debye):
    X=              1.0247    Y=             -0.6096    Z=              1.7466  Tot=              2.1147
 Quadrupole moment (field-independent basis, Debye-Ang):
   XX=            -57.6121   YY=            -49.4907   ZZ=            -52.8036
   XY=             -1.4588   XZ=             -1.3210   YZ=              1.0130

  Exact polarizability:  80.604  -1.831  77.387  -0.147   3.131  66.210
 Approx polarizability: 107.455  -3.335 109.386   1.221   3.891 102.800

                      1                      2                      3
                      A                      A                      A
 Frequencies --    100.0429               173.6567               207.8623
 Red. masses --      3.8237                 3.1336                 2.3322
 Frc consts  --      0.0225                 0.0557                 0.0594
 IR Inten    --      2.2099                 2.4296                 0.7084

                      4                      5                      6
                      A                      A                      A
 Frequencies --    290.4252               335.2969               381.5275
 Red. masses --      2.8515                 2.8749                 2.1515
 Frc consts  --      0.1417                 0.1904                 0.1845
 IR Inten    --      0.5528                 1.7745                 5.8695

                      7                      8                      9
                      A                      A                      A
 Frequencies --    472.5427               564.5135               695.0690
 Red. masses --      4.1691                 3.3349                 4.9565
 Frc consts  --      0.5485                 0.6262                 1.4109
 IR Inten    --      5.1666                 1.0028                 5.7243

                     10                     11                     12
                      A                      A                      A
 Frequencies --    750.7746               768.2977               840.7834
 Red. masses --      2.8326                 1.0679                 2.6130
 Frc consts  --      0.9407                 0.3714                 1.0883
 IR Inten    --      4.8428                 1.9894                 4.5802

                     13                     14                     15
                      A                      A                      A
 Frequencies --    861.4662               871.0586               887.8889
 Red. masses --      1.8511                 2.1462                 1.7397
 Frc consts  --      0.8094                 0.9594                 0.8080
 IR Inten    --     15.7041                13.0319                 2.3031

                     16                     17                     18
                      A                      A                      A
 Frequencies --    912.0888               955.4872               965.8478
 Red. masses --      3.1696                 2.5266                 2.4853
 Frc consts  --      1.5536                 1.3590                 1.3660
 IR Inten    --      9.9532                15.6921                24.7133

                     19                     20                     21
                      A                      A                      A
 Frequencies --    989.4107              1018.6418              1032.9474
 Red. masses --      2.2309                 3.8345                 2.2563
 Frc consts  --      1.2867                 2.3443                 1.4184
 IR Inten    --      2.0741                33.4165                17.9114

                     22                     23                     24
                      A                      A                      A
 Frequencies --   1045.7199              1066.7782              1073.0918
 Red. masses --      1.4533                 2.8379                 2.3195
 Frc consts  --      0.9363                 1.9028                 1.5737
 IR Inten    --      5.1677                30.9362                35.3696

                     25                     26                     27
                      A                      A                      A
 Frequencies --   1080.3880              1101.5275              1163.5180
 Red. masses --      1.7105                 3.0848                 1.1798
 Frc consts  --      1.1764                 2.2053                 0.9411
 IR Inten    --     22.0793                23.2594                 4.1382

                     28                     29                     30
                      A                      A                      A
 Frequencies --   1187.0298              1189.3036              1233.7908
 Red. masses --      1.7107                 1.3752                 1.2430
 Frc consts  --      1.4202                 1.1460                 1.1148
 IR Inten    --      5.2018                 1.7078                 2.7613

                     31                     32                     33
                      A                      A                      A
 Frequencies --   1241.9045              1278.2636              1280.9034
 Red. masses --      1.7687                 1.3918                 1.8519
 Frc consts  --      1.6072                 1.3399                 1.7902
 IR Inten    --     18.8530                 4.9661                33.3652

                     34                     35                     36
                      A                      A                      A
 Frequencies --   1327.2480              1365.6469              1378.9256
 Red. masses --      1.4347                 1.4076                 1.5323
 Frc consts  --      1.4891                 1.5467                 1.7166
 IR Inten    --      6.4091                 8.3992                 2.2846

                     37                     38                     39
                      A                      A                      A
 Frequencies --   1394.3793              1451.6569              1485.2077
 Red. masses --      2.0235                 1.0917                 1.1276
 Frc consts  --      2.3181                 1.3555                 1.4654
 IR Inten    --      4.9504                 1.7171                 3.8679

                     40                     41                     42
                      A                      A                      A
 Frequencies --   1501.8466              1519.5175              2979.4704
 Red. masses --      1.5831                 1.1015                 1.0697
 Frc consts  --      2.1038                 1.4985                 5.5948
 IR Inten    --     10.2568                 0.7020                53.0717

                     43                     44                     45
                      A                      A                      A
 Frequencies --   3017.2225              3060.0381              3065.8260
 Red. masses --      1.0559                 1.0882                 1.1098
 Frc consts  --      5.6637                 6.0034                 6.1459
 IR Inten    --     73.1007                54.4116                29.1917

                     46                     47                     48
                      A                      A                      A
 Frequencies --   3109.5702              3123.4078              3128.7706
 Red. masses --      1.0936                 1.0877                 1.0538
 Frc consts  --      6.2303                 6.2520                 6.0777
 IR Inten    --     19.6762                14.5912                17.2045

                     49                     50                     51
                      A                      A                      A
 Frequencies --   3135.7248              3215.9619              3229.8389
 Red. masses --      1.0567                 1.1180                 1.1155
 Frc consts  --      6.1217                 6.8129                 6.8561
 IR Inten    --      7.6911                 0.5225                 9.8947

 - Thermochemistry -
 -------------------
 Temperature   298.150 Kelvin.  Pressure   1.00000 Atm.
 Atom     1 has atomic number  6 and mass  12.00000

 Molecular mass:   126.06808 amu.
 Principal axes and moments of inertia in atomic units:
                           1         2         3
     Eigenvalues --   564.562021171.742461419.08636
           X            0.99992  -0.01241  -0.00157
           Y            0.01246   0.99939   0.03264
           Z            0.00117  -0.03266   0.99947
 This molecule is an asymmetric top.
 Rotational symmetry number  1.
 Warning -- assumption of classical behavior for rotation
           may cause significant error
 Rotational temperatures (Kelvin)      0.15342     0.07392     0.06103
 Rotational constants (GHZ):           3.19671     1.54022     1.27176
 Zero-point vibrational energy     421732.1 (Joules/Mol)
                                  100.79640 (Kcal/Mol)
 Warning -- explicit consideration of   8 degrees of freedom as
           vibrations may cause significant error
 Vibrational temperatures:    143.94   249.85   299.07   417.86   482.42
          (Kelvin)            548.93   679.88   812.21  1000.05  1080.20
                             1105.41  1209.70  1239.46  1253.26  1277.47
                             1312.29  1374.73  1389.64  1423.54  1465.60
                             1486.18  1504.56  1534.85  1543.94  1554.44
                             1584.85  1674.04  1707.87  1711.14  1775.15
                             1786.82  1839.13  1842.93  1909.61  1964.86
                             1983.96  2006.20  2088.61  2136.88  2160.82
                             2186.24  4286.79  4341.10  4402.71  4411.03
                             4473.97  4493.88  4501.60  4511.60  4627.05
                             4647.01

 Zero-point correction=                           0.160629 (Hartree/Particle)
 Thermal correction to Energy=                    0.167999
 Thermal correction to Enthalpy=                  0.168943
 Thermal correction to Gibbs Free Energy=         0.128823
 Sum of electronic and zero-point Energies=           -422.995192
 Sum of electronic and thermal Energies=              -422.987822
 Sum of electronic and thermal Enthalpies=            -422.986878
 Sum of electronic and thermal Free Energies=         -423.026998

                     E (Thermal)             CV                S
                      KCal/Mol        Cal/Mol-Kelvin    Cal/Mol-Kelvin
 Total                  105.421             29.376             84.440
 Electronic               0.000              0.000              0.000
 Translational            0.889              2.981             40.409
 Rotational               0.889              2.981             28.331
 Vibrational            103.643             23.414             15.701
 Vibration     1          0.604              1.949              3.453
 Vibration     2          0.627              1.875              2.396
 Vibration     3          0.641              1.829              2.062
 Vibration     4          0.686              1.692              1.471
 Vibration     5          0.716              1.605              1.234
 Vibration     6          0.751              1.510              1.033
 Vibration     7          0.829              1.311              0.730
 Vibration     8          0.920              1.108              0.515

 Optimization completed.
    -- Stationary point found.
 Normal termination of Gaussian 09 at Mon Jan 27 12:46:43 2020.
