 Gaussian 09, Revision D.01,
 Gaussian 09:  ES64L-G09RevD.01 24-Apr-2013

 -----------------------------
 # b3lyp 6-31G(2df,p) opt Freq
 -----------------------------

 -----
 titel
 -----
 Symbolic Z-matrix:
 Charge =  0 Multiplicity = 1

 SCF Done:  E(RB3LYP) =  -423.173217330     A.U. after   14 cycles
 Optimization completed.
    -- Stationary point found.
 Normal termination of Gaussian 09 at Mon Jan 27 17:25:02 2020.

 ----------------------------------------------------------------------
 #N Geom=AllCheck Guess=TCheck SCRF=Check GenChk RB3LYP/6-31G(2df,p) Fr
 eq
 ----------------------------------------------------------------------

 Structure from the checkpoint file:  "/scratch/puck/g09_4ff8533e-a9bf-4927-a5b9-a013e549e25d/Gau-147230.chk"
 -----
 titel
 -----
 Charge =  0 Multiplicity = 1

                         Standard orientation:
 ---------------------------------------------------------------------
 Center     Atomic      Atomic             Coordinates (Angstroms)
 Number     Number       Type             X           Y           Z
 ---------------------------------------------------------------------
      1          6           0        2.295417    0.436179   -0.517110
      2          6           0        0.990273   -0.113649   -0.040589
      3          8           0        0.997931   -1.126826    0.962992
      4          6           0        0.351863   -1.435715   -0.296984
      5          6           0       -1.018572   -0.785951   -0.186563
      6          8           0       -2.140217   -1.140183   -0.401532
      7          6           0       -0.379068    0.615315    0.106637
      8          6           0       -0.704584    1.559800   -1.054973
      9          6           0       -0.671969    1.240291    1.466850
     10          1           0        3.024525   -0.368506   -0.641040
     11          1           0        2.175461    0.955010   -1.472511
     12          1           0        2.699328    1.152144    0.207199
     13          1           0        0.695592   -2.313273   -0.832972
     14          1           0       -0.140394    2.494227   -0.963650
     15          1           0       -0.468182    1.112493   -2.026534
     16          1           0       -1.771001    1.802803   -1.052464
     17          1           0       -0.152685    2.198946    1.579613
     18          1           0       -1.745279    1.428766    1.571960
     19          1           0       -0.359236    0.575834    2.275114
 ---------------------------------------------------------------------

 SCF Done:  E(RB3LYP) =  -423.173217330     A.U. after    1 cycles

 The electronic state is 1-A.
 Alpha  occ. eigenvalues --  -19.16934 -19.14292 -10.27328 -10.25756 -10.24584
 Alpha  occ. eigenvalues --  -10.20930 -10.20008 -10.18975 -10.17996  -1.09475
 Alpha  occ. eigenvalues --   -1.04931  -0.82879  -0.75350  -0.72837  -0.69574
 Alpha  occ. eigenvalues --   -0.62689  -0.57486  -0.51522  -0.49570  -0.48243
 Alpha  occ. eigenvalues --   -0.45596  -0.44329  -0.43217  -0.41972  -0.41745
 Alpha  occ. eigenvalues --   -0.39945  -0.38997  -0.38258  -0.37138  -0.34754
 Alpha  occ. eigenvalues --   -0.34426  -0.31624  -0.27844  -0.23507
 Alpha virt. eigenvalues --   -0.02473   0.07331   0.09006   0.11728   0.12318
 Alpha virt. eigenvalues --    0.13057   0.13297   0.14208   0.14450   0.15103
 Alpha virt. eigenvalues --    0.17436   0.18782   0.19245   0.20222   0.21330

 Mulliken charges:
               1
     1  C   -0.512571
     2  C    0.420661
     3  O   -0.282053
     4  C   -0.218991
     5  C    0.426503
     6  O   -0.316641
     7  C    0.087645
     8  C   -0.444641
     9  C   -0.452832
    10  H    0.140834
    11  H    0.134696
    12  H    0.138242
    13  H    0.118501
    14  H    0.119601
    15  H    0.118371
    16  H    0.139869
    17  H    0.113323
    18  H    0.130943
    19  H    0.138539
 Sum of Mulliken charges =   0.00000

 Dipole moment (field-independent basis, Debye):
    X=              2.3455    Y=              1.8113    Z=             -1.1650  Tot=              3.1842
 Quadrupole moment (field-independent basis, Debye-Ang):
   XX=            -57.5277   YY=            -52.5200   ZZ=            -53.6186
   XY=             -2.5521   XZ=             -3.2240   YZ=              1.6918

  Exact polarizability:  82.595   1.439  79.030   0.231   2.676  65.242
 Approx polarizability: 124.026   7.456 115.964   6.774   2.638  99.908

                      1                      2                      3
                      A                      A                      A
 Frequencies --     98.8823               172.0543               189.2550
 Red. masses --      4.8935                 2.5749                 1.1399
 Frc consts  --      0.0282                 0.0449                 0.0241
 IR Inten    --      2.6315                 1.0745                 0.3603

                      4                      5                      6
                      A                      A                      A
 Frequencies --    203.4045               218.0053               228.3498
 Red. masses --      1.1313                 2.3438                 1.5238
 Frc consts  --      0.0276                 0.0656                 0.0468
 IR Inten    --      0.5830                 0.8878                 0.3311

                      7                      8                      9
                      A                      A                      A
 Frequencies --    261.3507               276.4592               343.1023
 Red. masses --      1.9909                 2.0522                 2.6064
 Frc consts  --      0.0801                 0.0924                 0.1808
 IR Inten    --      1.5439                 1.7738                 0.5588

                     10                     11                     12
                      A                      A                      A
 Frequencies --    392.8350               501.6818               532.1674
 Red. masses --      3.8687                 4.0293                 3.3318
 Frc consts  --      0.3518                 0.5975                 0.5559
 IR Inten    --      5.8767                 8.5673                 5.7666

                     13                     14                     15
                      A                      A                      A
 Frequencies --    593.1836               675.5957               699.6870
 Red. masses --      5.6848                 3.8272                 3.5531
 Frc consts  --      1.1785                 1.0292                 1.0249
 IR Inten    --      3.0257                 2.0197                 4.1247

                     16                     17                     18
                      A                      A                      A
 Frequencies --    756.9431               812.3320               829.0775
 Red. masses --      3.7197                 4.8010                 2.9742
 Frc consts  --      1.2557                 1.8666                 1.2045
 IR Inten    --      1.6293                 7.0764                25.7917

                     19                     20                     21
                      A                      A                      A
 Frequencies --    959.5078               961.7922               988.0259
 Red. masses --      1.5189                 1.7151                 1.6446
 Frc consts  --      0.8239                 0.9348                 0.9459
 IR Inten    --      2.4106                 2.0603                 5.0821

                     22                     23                     24
                      A                      A                      A
 Frequencies --   1010.9905              1030.4220              1040.5612
 Red. masses --      1.6225                 1.8184                 2.8272
 Frc consts  --      0.9770                 1.1376                 1.8036
 IR Inten    --     10.3691                 9.7704                 8.0958

                     25                     26                     27
                      A                      A                      A
 Frequencies --   1090.1926              1166.4477              1198.9350
 Red. masses --      1.6209                 2.1749                 3.2898
 Frc consts  --      1.1351                 1.7435                 2.7862
 IR Inten    --     12.9656                22.4071                 2.2312

                     28                     29                     30
                      A                      A                      A
 Frequencies --   1208.1534              1226.1746              1294.7027
 Red. masses --      2.8850                 1.6819                 3.6118
 Frc consts  --      2.4811                 1.4899                 3.5671
 IR Inten    --      7.1068                 2.4635                 5.7576

                     31                     32                     33
                      A                      A                      A
 Frequencies --   1390.8822              1396.6539              1413.0719
 Red. masses --      1.3329                 1.3946                 1.2344
 Frc consts  --      1.5192                 1.6027                 1.4523
 IR Inten    --      7.7571                 5.3970                 4.5512

                     34                     35                     36
                      A                      A                      A
 Frequencies --   1439.3438              1479.1407              1484.4556
 Red. masses --      2.8339                 1.0683                 1.0492
 Frc consts  --      3.4591                 1.3771                 1.3622
 IR Inten    --     22.9221                10.3803                 0.4963

                     37                     38                     39
                      A                      A                      A
 Frequencies --   1487.1577              1491.7481              1502.5034
 Red. masses --      1.0498                 1.0707                 1.0663
 Frc consts  --      1.3679                 1.4038                 1.4183
 IR Inten    --      1.8280                 3.4619                 2.1766

                     40                     41                     42
                      A                      A                      A
 Frequencies --   1509.8717              1892.4612              3028.8432
 Red. masses --      1.0623                12.4197                 1.0356
 Frc consts  --      1.4269                26.2069                 5.5974
 IR Inten    --     11.4716               264.6754                17.0921

                     43                     44                     45
                      A                      A                      A
 Frequencies --   3032.4654              3040.1246              3095.0505
 Red. masses --      1.0376                 1.0367                 1.1003
 Frc consts  --      5.6216                 5.6453                 6.2102
 IR Inten    --     23.5822                18.4156                10.4288

                     46                     47                     48
                      A                      A                      A
 Frequencies --   3096.5959              3104.5346              3113.0212
 Red. masses --      1.1007                 1.0987                 1.1006
 Frc consts  --      6.2186                 6.2391                 6.2842
 IR Inten    --     23.4456                13.3920                16.7843

                     49                     50                     51
                      A                      A                      A
 Frequencies --   3127.3726              3129.7929              3186.3674
 Red. masses --      1.1018                 1.1000                 1.0955
 Frc consts  --      6.3492                 6.3488                 6.5532
 IR Inten    --      7.8863                12.0115                11.3370

 - Thermochemistry -
 -------------------
 Temperature   298.150 Kelvin.  Pressure   1.00000 Atm.
 Atom     1 has atomic number  6 and mass  12.00000

 Molecular mass:   126.06808 amu.
 Principal axes and moments of inertia in atomic units:
                           1         2         3
     Eigenvalues --   834.683491074.724431331.78122
           X            0.99709  -0.06238  -0.04390
           Y            0.06336   0.99776   0.02143
           Z            0.04246  -0.02415   0.99881
 This molecule is an asymmetric top.
 Rotational symmetry number  1.
 Warning -- assumption of classical behavior for rotation
           may cause significant error
 Rotational temperatures (Kelvin)      0.10377     0.08059     0.06504
 Rotational constants (GHZ):           2.16219     1.67926     1.35513
 Zero-point vibrational energy     409133.2 (Joules/Mol)
                                   97.78518 (Kcal/Mol)
 Warning -- explicit consideration of  13 degrees of freedom as
           vibrations may cause significant error
 Vibrational temperatures:    142.27   247.55   272.30   292.65   313.66
          (Kelvin)            328.54   376.02   397.76   493.65   565.20
                              721.81   765.67   853.46   972.03  1006.69
                             1089.07  1168.76  1192.86  1380.52  1383.80
                             1421.55  1454.59  1482.55  1497.13  1568.54
                             1678.26  1725.00  1738.26  1764.19  1862.79
                             2001.17  2009.47  2033.09  2070.89  2128.15
                             2135.80  2139.69  2146.29  2161.76  2172.37
                             2722.83  4357.82  4363.04  4374.06  4453.08
                             4455.31  4466.73  4478.94  4499.59  4503.07
                             4584.47

 Zero-point correction=                           0.155831 (Hartree/Particle)
 Thermal correction to Energy=                    0.165245
 Thermal correction to Enthalpy=                  0.166190
 Thermal correction to Gibbs Free Energy=         0.122283
 Sum of electronic and zero-point Energies=           -423.017387
 Sum of electronic and thermal Energies=              -423.007972
 Sum of electronic and thermal Enthalpies=            -423.007028
 Sum of electronic and thermal Free Energies=         -423.050934

                     E (Thermal)             CV                S
                      KCal/Mol        Cal/Mol-Kelvin    Cal/Mol-Kelvin
 Total                  103.693             35.194             92.409
 Electronic               0.000              0.000              0.000
 Translational            0.889              2.981             40.409
 Rotational               0.889              2.981             28.570
 Vibrational            101.916             29.232             23.430
 Vibration     1          0.604              1.950              3.476
 Vibration     2          0.626              1.877              2.413
 Vibration     3          0.633              1.855              2.235
 Vibration     4          0.639              1.835              2.102
 Vibration     5          0.646              1.814              1.976
 Vibration     6          0.651              1.798              1.892
 Vibration     7          0.669              1.743              1.653
 Vibration     8          0.678              1.717              1.555
 Vibration     9          0.722              1.589              1.198
 Vibration    10          0.760              1.485              0.989
 Vibration    11          0.857              1.246              0.654
 Vibration    12          0.887              1.179              0.582
 Vibration    13          0.951              1.046              0.462

 Normal termination of Gaussian 09 at Mon Jan 27 18:10:30 2020.
