 Gaussian 09, Revision D.01,
 Gaussian 09:  ES64L-G09RevD.01 24-Apr-2013

 -----------------------------
 # b3lyp 6-31G(2df,p) opt Freq
 -----------------------------

 -----
 titel
 -----
 Symbolic Z-matrix:
 Charge =  0 Multiplicity = 1

 SCF Done:  E(RB3LYP) =  -423.157711793     A.U. after   14 cycles
 Optimization completed.
    -- Stationary point found.
 Normal termination of Gaussian 09 at Mon Jan 27 11:18:33 2020.

 ----------------------------------------------------------------------
 #N Geom=AllCheck Guess=TCheck SCRF=Check GenChk RB3LYP/6-31G(2df,p) Fr
 eq
 ----------------------------------------------------------------------

 Structure from the checkpoint file:  "/scratch/puck/g09_d0c1fa0b-54a3-4fad-9bf5-ec28a5a8c2f2/Gau-164584.chk"
 -----
 titel
 -----
 Charge =  0 Multiplicity = 1

                         Standard orientation:
 ---------------------------------------------------------------------
 Center     Atomic      Atomic             Coordinates (Angstroms)
 Number     Number       Type             X           Y           Z
 ---------------------------------------------------------------------
      1          6           0        1.912656    0.000129   -0.831670
      2          8           0        2.503454   -0.000117    0.480406
      3          6           0        1.205481   -0.000102    1.111908
      4          6           0        0.480525    0.000058   -0.255980
      5          6           0       -0.418727    1.223007   -0.540711
      6          6           0       -1.811218    0.734192   -0.199968
      7          8           0       -1.868067   -0.000142    1.033721
      8          6           0       -1.811188   -0.734185   -0.200140
      9          6           0       -0.418677   -1.222861   -0.541002
     10          1           0        2.188314    0.893040   -1.409442
     11          1           0        2.188289   -0.892578   -1.409766
     12          1           0        1.046626   -0.891920    1.730006
     13          1           0        1.046713    0.891647    1.730132
     14          1           0       -0.114981    2.105210    0.031425
     15          1           0       -0.386021    1.493371   -1.604912
     16          1           0       -2.692178    1.327397   -0.430201
     17          1           0       -2.692123   -1.327372   -0.430513
     18          1           0       -0.114892   -2.105193    0.030913
     19          1           0       -0.385963   -1.492959   -1.605271
 ---------------------------------------------------------------------

 SCF Done:  E(RB3LYP) =  -423.157711793     A.U. after    1 cycles

 The electronic state is 1-A.
 Alpha  occ. eigenvalues --  -19.15221 -19.12602 -10.23872 -10.23839 -10.22748
 Alpha  occ. eigenvalues --  -10.22192 -10.20227 -10.19296 -10.19295  -1.07366
 Alpha  occ. eigenvalues --   -1.03217  -0.82049  -0.73061  -0.70184  -0.68791
 Alpha  occ. eigenvalues --   -0.61442  -0.58259  -0.54562  -0.52307  -0.47975
 Alpha  occ. eigenvalues --   -0.47643  -0.44732  -0.43465  -0.43259  -0.41039
 Alpha  occ. eigenvalues --   -0.39791  -0.37651  -0.36213  -0.33961  -0.31943
 Alpha  occ. eigenvalues --   -0.30182  -0.29340  -0.26416  -0.24321
 Alpha virt. eigenvalues --    0.07454   0.09193   0.10295   0.11345   0.11563
 Alpha virt. eigenvalues --    0.12058   0.14322   0.14388   0.14665   0.16427
 Alpha virt. eigenvalues --    0.16596   0.16667   0.19070   0.20695   0.21020

 Mulliken charges:
               1
     1  C   -0.142790
     2  O   -0.274293
     3  C   -0.103968
     4  C    0.308556
     5  C   -0.325759
     6  C    0.051313
     7  O   -0.257329
     8  C    0.051311
     9  C   -0.325751
    10  H    0.094162
    11  H    0.094165
    12  H    0.100717
    13  H    0.100710
    14  H    0.114447
    15  H    0.103989
    16  H    0.096041
    17  H    0.096040
    18  H    0.114449
    19  H    0.103988
 Sum of Mulliken charges =   0.00000

 Dipole moment (field-independent basis, Debye):
    X=             -1.5573    Y=              0.0004    Z=             -2.3651  Tot=              2.8317
 Quadrupole moment (field-independent basis, Debye-Ang):
   XX=            -59.7783   YY=            -50.0334   ZZ=            -53.5250
   XY=              0.0002   XZ=              1.2153   YZ=              0.0005

  Exact polarizability:  77.984   0.000  73.396  -1.508   0.001  68.931
 Approx polarizability: 102.593   0.000 110.210  -2.705   0.000 109.538

                      1                      2                      3
                      A                      A                      A
 Frequencies --     60.7911               106.5870               243.5513
 Red. masses --      3.5881                 4.1547                 2.6382
 Frc consts  --      0.0078                 0.0278                 0.0922
 IR Inten    --      3.4892                 2.0066                 0.8327

                      4                      5                      6
                      A                      A                      A
 Frequencies --    324.8720               371.4256               392.9554
 Red. masses --      2.0600                 2.6008                 3.2506
 Frc consts  --      0.1281                 0.2114                 0.2957
 IR Inten    --      1.2914                 2.9047                 5.8219

                      7                      8                      9
                      A                      A                      A
 Frequencies --    420.0928               500.9897               666.2112
 Red. masses --      1.8186                 3.9070                 5.2749
 Frc consts  --      0.1891                 0.5778                 1.3794
 IR Inten    --      0.2789                 5.3578                 2.8231

                     10                     11                     12
                      A                      A                      A
 Frequencies --    776.1071               812.4172               860.2954
 Red. masses --      4.1076                 3.7939                 3.9269
 Frc consts  --      1.4577                 1.4754                 1.7123
 IR Inten    --      0.4113                 0.8587                14.9334

                     13                     14                     15
                      A                      A                      A
 Frequencies --    861.1583               881.2288               907.7368
 Red. masses --      2.3698                 2.1838                 1.8221
 Frc consts  --      1.0354                 0.9992                 0.8846
 IR Inten    --     28.5623                 2.8614                 2.1948

                     16                     17                     18
                      A                      A                      A
 Frequencies --    933.2865               956.7945               983.9826
 Red. masses --      1.6980                 2.8526                 1.7322
 Frc consts  --      0.8714                 1.5386                 0.9882
 IR Inten    --      5.8662                 8.8756                 4.0110

                     19                     20                     21
                      A                      A                      A
 Frequencies --    989.4453              1005.5776              1032.2523
 Red. masses --      3.8257                 1.5532                 1.3666
 Frc consts  --      2.2067                 0.9254                 0.8580
 IR Inten    --     16.9744                 1.0120                11.5508

                     22                     23                     24
                      A                      A                      A
 Frequencies --   1040.7310              1097.0144              1130.8654
 Red. masses --      9.5502                 1.1881                 2.8991
 Frc consts  --      6.0945                 0.8424                 2.1844
 IR Inten    --     79.8079                 0.1199                 3.9616

                     25                     26                     27
                      A                      A                      A
 Frequencies --   1152.3475              1160.6911              1162.3667
 Red. masses --      1.2817                 1.0773                 2.6751
 Frc consts  --      1.0027                 0.8551                 2.1295
 IR Inten    --      0.5042                 0.0003                 6.9519

                     28                     29                     30
                      A                      A                      A
 Frequencies --   1179.0335              1243.9871              1254.6829
 Red. masses --      1.3130                 2.0396                 1.4987
 Frc consts  --      1.0754                 1.8596                 1.3900
 IR Inten    --      0.0805                 0.0978                 3.3203

                     31                     32                     33
                      A                      A                      A
 Frequencies --   1282.2341              1298.8363              1313.5000
 Red. masses --      1.4515                 1.5315                 1.2788
 Frc consts  --      1.4060                 1.5222                 1.2999
 IR Inten    --      4.4411                 2.7983                 1.0617

                     34                     35                     36
                      A                      A                      A
 Frequencies --   1335.7711              1339.1775              1389.1409
 Red. masses --      1.5131                 2.2302                 1.6351
 Frc consts  --      1.5906                 2.3565                 1.8590
 IR Inten    --      0.0620                10.5662                 3.9770

                     37                     38                     39
                      A                      A                      A
 Frequencies --   1439.1741              1473.7760              1483.3486
 Red. masses --      2.9370                 1.0930                 1.1027
 Frc consts  --      3.5841                 1.3987                 1.4295
 IR Inten    --     12.6652                 4.1301                 0.3347

                     40                     41                     42
                      A                      A                      A
 Frequencies --   1514.6283              1538.3313              2992.4834
 Red. masses --      1.0812                 1.1117                 1.0537
 Frc consts  --      1.4615                 1.5500                 5.5595
 IR Inten    --      1.0162                 0.7518                89.5425

                     43                     44                     45
                      A                      A                      A
 Frequencies --   3018.5054              3020.2530              3025.8310
 Red. masses --      1.0569                 1.0661                 1.0649
 Frc consts  --      5.6739                 5.7295                 5.7447
 IR Inten    --     44.7260                12.6412                13.7944

                     46                     47                     48
                      A                      A                      A
 Frequencies --   3034.6074              3060.9123              3080.4436
 Red. masses --      1.1087                 1.1107                 1.0981
 Frc consts  --      6.0157                 6.1315                 6.1391
 IR Inten    --     55.0312                27.3817                29.3328

                     49                     50                     51
                      A                      A                      A
 Frequencies --   3080.6086              3145.8371              3158.2501
 Red. masses --      1.0986                 1.0870                 1.0959
 Frc consts  --      6.1428                 6.3382                 6.4404
 IR Inten    --     23.4157                17.7518                42.1989

 - Thermochemistry -
 -------------------
 Temperature   298.150 Kelvin.  Pressure   1.00000 Atm.
 Atom     1 has atomic number  6 and mass  12.00000

 Molecular mass:   126.06808 amu.
 Principal axes and moments of inertia in atomic units:
                           1         2         3
     Eigenvalues --   490.021751421.674681424.59308
           X            0.99999   0.00000   0.00377
           Y            0.00000   1.00000   0.00075
           Z           -0.00377  -0.00075   0.99999
 This molecule is an asymmetric top.
 Rotational symmetry number  1.
 Warning -- assumption of classical behavior for rotation
           may cause significant error
 Rotational temperatures (Kelvin)      0.17676     0.06092     0.06080
 Rotational constants (GHZ):           3.68298     1.26945     1.26685
 Zero-point vibrational energy     421893.8 (Joules/Mol)
                                  100.83503 (Kcal/Mol)
 Warning -- explicit consideration of   8 degrees of freedom as
           vibrations may cause significant error
 Vibrational temperatures:     87.46   153.35   350.42   467.42   534.40
          (Kelvin)            565.37   604.42   720.81   958.53  1116.64
                             1168.89  1237.77  1239.01  1267.89  1306.03
                             1342.79  1376.61  1415.73  1423.59  1446.80
                             1485.18  1497.38  1578.36  1627.06  1657.97
                             1669.97  1672.38  1696.36  1789.82  1805.21
                             1844.85  1868.73  1889.83  1921.87  1926.78
                             1998.66  2070.65  2120.43  2134.21  2179.21
                             2213.31  4305.51  4342.95  4345.46  4353.49
                             4366.12  4403.96  4432.07  4432.30  4526.15
                             4544.01

 Zero-point correction=                           0.160691 (Hartree/Particle)
 Thermal correction to Energy=                    0.168143
 Thermal correction to Enthalpy=                  0.169087
 Thermal correction to Gibbs Free Energy=         0.128279
 Sum of electronic and zero-point Energies=           -422.997021
 Sum of electronic and thermal Energies=              -422.989569
 Sum of electronic and thermal Enthalpies=            -422.988625
 Sum of electronic and thermal Free Energies=         -423.029433

                     E (Thermal)             CV                S
                      KCal/Mol        Cal/Mol-Kelvin    Cal/Mol-Kelvin
 Total                  105.511             29.046             85.887
 Electronic               0.000              0.000              0.000
 Translational            0.889              2.981             40.409
 Rotational               0.889              2.981             28.386
 Vibrational            103.734             23.084             17.092
 Vibration     1          0.597              1.973              4.431
 Vibration     2          0.605              1.944              3.330
 Vibration     3          0.659              1.773              1.777
 Vibration     4          0.709              1.626              1.285
 Vibration     5          0.743              1.531              1.074
 Vibration     6          0.760              1.485              0.989
 Vibration     7          0.783              1.427              0.892
 Vibration     8          0.856              1.248              0.656

 Optimization completed.
    -- Stationary point found.
 Normal termination of Gaussian 09 at Mon Jan 27 12:05:17 2020.
