 Gaussian 09, Revision D.01,
 Gaussian 09:  ES64L-G09RevD.01 24-Apr-2013

 -----------------------------
 # b3lyp 6-31G(2df,p) opt Freq
 -----------------------------

 -----
 titel
 -----
 Symbolic Z-matrix:
 Charge =  0 Multiplicity = 1

 SCF Done:  E(RB3LYP) =  -423.131575050     A.U. after   13 cycles
 Optimization completed.
    -- Stationary point found.
 Normal termination of Gaussian 09 at Tue Jan 28 14:04:51 2020.

 ----------------------------------------------------------------------
 #N Geom=AllCheck Guess=TCheck SCRF=Check GenChk RB3LYP/6-31G(2df,p) Fr
 eq
 ----------------------------------------------------------------------

 Structure from the checkpoint file:  "/scratch/puck/g09_c4a14cea-0f8c-4fa5-8ffa-d1d8c197fba7/Gau-146600.chk"
 -----
 titel
 -----
 Charge =  0 Multiplicity = 1

                         Standard orientation:
 ---------------------------------------------------------------------
 Center     Atomic      Atomic             Coordinates (Angstroms)
 Number     Number       Type             X           Y           Z
 ---------------------------------------------------------------------
      1          8           0        2.977149   -0.530315   -0.329470
      2          6           0        2.069292    0.196463    0.489248
      3          6           0        0.770989    0.529092   -0.232296
      4          6           0       -0.446708    0.919243    0.651220
      5          8           0       -1.437978    1.223525   -0.341203
      6          6           0       -1.555595   -0.104497   -0.887009
      7          6           0       -2.140262   -0.889704    0.305696
      8          6           0       -0.751120   -0.620362    0.900477
      9          6           0       -0.118584   -0.686108   -0.541524
     10          1           0        3.183293    0.017598   -1.093837
     11          1           0        1.885518   -0.445545    1.356436
     12          1           0        2.530446    1.123887    0.865434
     13          1           0        0.958867    1.234148   -1.051907
     14          1           0       -0.420898    1.681593    1.429166
     15          1           0       -1.992214   -0.079649   -1.883934
     16          1           0       -3.033209   -0.475348    0.780335
     17          1           0       -2.268333   -1.953931    0.089381
     18          1           0       -0.349279   -1.113845    1.781882
     19          1           0        0.224369   -1.599359   -1.022456
 ---------------------------------------------------------------------

 SCF Done:  E(RB3LYP) =  -423.131575050     A.U. after    1 cycles

 The electronic state is 1-A.
 Alpha  occ. eigenvalues --  -19.13597 -19.13499 -10.23600 -10.23484 -10.22845
 Alpha  occ. eigenvalues --  -10.19481 -10.19259 -10.18625 -10.18215  -1.05241
 Alpha  occ. eigenvalues --   -1.01514  -0.84959  -0.77515  -0.69013  -0.66841
 Alpha  occ. eigenvalues --   -0.60093  -0.56054  -0.54783  -0.52391  -0.50045
 Alpha  occ. eigenvalues --   -0.47168  -0.46253  -0.43213  -0.40598  -0.39693
 Alpha  occ. eigenvalues --   -0.37424  -0.35316  -0.34407  -0.33584  -0.31559
 Alpha  occ. eigenvalues --   -0.30161  -0.28171  -0.26897  -0.24006
 Alpha virt. eigenvalues --    0.07435   0.09531   0.10312   0.10997   0.11915
 Alpha virt. eigenvalues --    0.13215   0.15149   0.15804   0.16311   0.16863
 Alpha virt. eigenvalues --    0.17577   0.18537   0.19346   0.20455   0.21696

 Mulliken charges:
               1
     1  O   -0.416400
     2  C   -0.091765
     3  C   -0.030952
     4  C    0.053809
     5  O   -0.270910
     6  C    0.063204
     7  C   -0.243866
     8  C   -0.073649
     9  C   -0.052812
    10  H    0.281446
    11  H    0.109507
    12  H    0.087970
    13  H    0.063854
    14  H    0.077667
    15  H    0.078581
    16  H    0.101178
    17  H    0.101327
    18  H    0.079406
    19  H    0.082405
 Sum of Mulliken charges =   0.00000

 Dipole moment (field-independent basis, Debye):
    X=              0.1332    Y=             -0.0907    Z=             -0.0868  Tot=              0.1830
 Quadrupole moment (field-independent basis, Debye-Ang):
   XX=            -56.5847   YY=            -54.9994   ZZ=            -49.4793
   XY=              7.1422   XZ=             -1.9186   YZ=              0.7915

  Exact polarizability:  85.242   4.758  68.850  -0.220   1.000  69.322
 Approx polarizability: 111.639   1.569 108.577  -0.358   0.649 108.537

                      1                      2                      3
                      A                      A                      A
 Frequencies --     91.7301               161.2053               229.4013
 Red. masses --      3.5623                 4.1242                 1.9577
 Frc consts  --      0.0177                 0.0631                 0.0607
 IR Inten    --      3.4989                 1.2571                24.7185

                      4                      5                      6
                      A                      A                      A
 Frequencies --    303.6839               375.7993               432.7837
 Red. masses --      1.2612                 3.8858                 2.4372
 Frc consts  --      0.0685                 0.3233                 0.2690
 IR Inten    --     90.5042                 9.0025                 1.4268

                      7                      8                      9
                      A                      A                      A
 Frequencies --    503.0043               563.9579               664.2498
 Red. masses --      2.9212                 3.9150                 4.9492
 Frc consts  --      0.4355                 0.7336                 1.2866
 IR Inten    --      7.1456                14.3465                 0.3341

                     10                     11                     12
                      A                      A                      A
 Frequencies --    727.6366               794.8108               826.1620
 Red. masses --      3.3334                 2.2658                 1.7865
 Frc consts  --      1.0399                 0.8433                 0.7184
 IR Inten    --      2.3813                 2.2719                 1.6727

                     13                     14                     15
                      A                      A                      A
 Frequencies --    843.9750               871.2580               915.5855
 Red. masses --      2.2566                 2.5210                 2.6032
 Frc consts  --      0.9470                 1.1275                 1.2858
 IR Inten    --      0.9612                 4.0730                21.9252

                     16                     17                     18
                      A                      A                      A
 Frequencies --    925.4368               948.6768               971.0020
 Red. masses --      2.1130                 3.6370                 2.2928
 Frc consts  --      1.0662                 1.9285                 1.2736
 IR Inten    --     11.6564                22.5551                18.8478

                     19                     20                     21
                      A                      A                      A
 Frequencies --    993.5225              1009.9032              1031.3518
 Red. masses --      1.8686                 2.2188                 2.1559
 Frc consts  --      1.0868                 1.3333                 1.3511
 IR Inten    --      3.4701                40.3071                10.1951

                     22                     23                     24
                      A                      A                      A
 Frequencies --   1050.6808              1064.0282              1079.1149
 Red. masses --      2.8864                 2.4112                 1.7901
 Frc consts  --      1.8774                 1.6084                 1.2282
 IR Inten    --     66.5302                11.5743                 0.2259

                     25                     26                     27
                      A                      A                      A
 Frequencies --   1096.4767              1110.8442              1166.8427
 Red. masses --      1.8307                 1.6954                 1.6806
 Frc consts  --      1.2967                 1.2326                 1.3482
 IR Inten    --     13.3260                 4.4571                11.9150

                     28                     29                     30
                      A                      A                      A
 Frequencies --   1173.6961              1194.4934              1209.7903
 Red. masses --      1.4139                 1.4788                 1.3467
 Frc consts  --      1.1476                 1.2432                 1.1613
 IR Inten    --     10.3722                 4.0271                 7.8525

                     31                     32                     33
                      A                      A                      A
 Frequencies --   1227.7760              1243.7491              1258.6124
 Red. masses --      1.4746                 1.4664                 1.6401
 Frc consts  --      1.3097                 1.3365                 1.5308
 IR Inten    --      3.7714                 3.9174                10.1091

                     34                     35                     36
                      A                      A                      A
 Frequencies --   1264.0757              1284.9858              1325.7302
 Red. masses --      1.4832                 1.8306                 1.4360
 Frc consts  --      1.3964                 1.7809                 1.4871
 IR Inten    --     12.2692                 3.9262                13.1186

                     37                     38                     39
                      A                      A                      A
 Frequencies --   1372.5910              1388.9989              1426.5969
 Red. masses --      1.3727                 1.4296                 1.2571
 Frc consts  --      1.5237                 1.6251                 1.5074
 IR Inten    --      3.8067                 5.2179                43.1773

                     40                     41                     42
                      A                      A                      A
 Frequencies --   1481.1672              1507.2985              2974.3981
 Red. masses --      1.1279                 1.0894                 1.0719
 Frc consts  --      1.4579                 1.4582                 5.5873
 IR Inten    --      1.4157                 1.0522                64.3201

                     43                     44                     45
                      A                      A                      A
 Frequencies --   3027.9173              3058.1460              3080.6997
 Red. masses --      1.0833                 1.0558                 1.0908
 Frc consts  --      5.8517                 5.8179                 6.0996
 IR Inten    --     36.8737                34.4280                28.9356

                     46                     47                     48
                      A                      A                      A
 Frequencies --   3120.4512              3125.3145              3135.9217
 Red. masses --      1.1094                 1.0904                 1.0912
 Frc consts  --      6.3645                 6.2752                 6.3226
 IR Inten    --     24.2280                37.7767                31.6401

                     49                     50                     51
                      A                      A                      A
 Frequencies --   3145.3662              3153.2664              3811.0060
 Red. masses --      1.0885                 1.0939                 1.0661
 Frc consts  --      6.3451                 6.4086                 9.1229
 IR Inten    --     45.8617                12.2031                17.7281

 - Thermochemistry -
 -------------------
 Temperature   298.150 Kelvin.  Pressure   1.00000 Atm.
 Atom     1 has atomic number  8 and mass  15.99491

 Molecular mass:   126.06808 amu.
 Principal axes and moments of inertia in atomic units:
                           1         2         3
     Eigenvalues --   454.419121493.990891581.09830
           X            0.99957   0.02922   0.00073
           Y           -0.02923   0.99918   0.02813
           Z            0.00009  -0.02814   0.99960
 This molecule is an asymmetric top.
 Rotational symmetry number  1.
 Warning -- assumption of classical behavior for rotation
           may cause significant error
 Rotational temperatures (Kelvin)      0.19060     0.05797     0.05478
 Rotational constants (GHZ):           3.97153     1.20800     1.14145
 Zero-point vibrational energy     423150.1 (Joules/Mol)
                                  101.13530 (Kcal/Mol)
 Warning -- explicit consideration of   8 degrees of freedom as
           vibrations may cause significant error
 Vibrational temperatures:    131.98   231.94   330.06   436.93   540.69
          (Kelvin)            622.68   723.71   811.41   955.71  1046.91
                             1143.55  1188.66  1214.29  1253.54  1317.32
                             1331.50  1364.93  1397.05  1429.46  1453.02
                             1483.88  1511.69  1530.90  1552.60  1577.58
                             1598.26  1678.82  1688.68  1718.61  1740.62
                             1766.49  1789.48  1810.86  1818.72  1848.81
                             1907.43  1974.85  1998.46  2052.55  2131.07
                             2168.66  4279.49  4356.49  4399.98  4432.43
                             4489.63  4496.62  4511.89  4525.47  4536.84
                             5483.18

 Zero-point correction=                           0.161169 (Hartree/Particle)
 Thermal correction to Energy=                    0.168439
 Thermal correction to Enthalpy=                  0.169384
 Thermal correction to Gibbs Free Energy=         0.129345
 Sum of electronic and zero-point Energies=           -422.970406
 Sum of electronic and thermal Energies=              -422.963136
 Sum of electronic and thermal Enthalpies=            -422.962191
 Sum of electronic and thermal Free Energies=         -423.002230

                     E (Thermal)             CV                S
                      KCal/Mol        Cal/Mol-Kelvin    Cal/Mol-Kelvin
 Total                  105.697             29.312             84.268
 Electronic               0.000              0.000              0.000
 Translational            0.889              2.981             40.409
 Rotational               0.889              2.981             28.464
 Vibrational            103.920             23.351             15.396
 Vibration     1          0.602              1.955              3.623
 Vibration     2          0.622              1.890              2.536
 Vibration     3          0.652              1.796              1.884
 Vibration     4          0.695              1.667              1.397
 Vibration     5          0.747              1.522              1.056
 Vibration     6          0.794              1.399              0.850
 Vibration     7          0.858              1.243              0.651
 Vibration     8          0.920              1.109              0.516

 Optimization completed.
    -- Stationary point found.
 Normal termination of Gaussian 09 at Tue Jan 28 14:49:13 2020.
