 Gaussian 09, Revision D.01,
 Gaussian 09:  ES64L-G09RevD.01 24-Apr-2013

 -----------------------------
 # b3lyp 6-31G(2df,p) opt Freq
 -----------------------------

 -----
 titel
 -----
 Symbolic Z-matrix:
 Charge =  0 Multiplicity = 1

 SCF Done:  E(RB3LYP) =  -423.129400010     A.U. after   14 cycles
 Optimization completed.
    -- Stationary point found.
 Normal termination of Gaussian 09 at Tue Jan 28 14:28:25 2020.

 ----------------------------------------------------------------------
 #N Geom=AllCheck Guess=TCheck SCRF=Check GenChk RB3LYP/6-31G(2df,p) Fr
 eq
 ----------------------------------------------------------------------

 Structure from the checkpoint file:  "/scratch/puck/g09_b360a0a7-9131-40cf-99b6-928d3e1a489c/Gau-112163.chk"
 -----
 titel
 -----
 Charge =  0 Multiplicity = 1

                         Standard orientation:
 ---------------------------------------------------------------------
 Center     Atomic      Atomic             Coordinates (Angstroms)
 Number     Number       Type             X           Y           Z
 ---------------------------------------------------------------------
      1          8           0        1.773429   -1.397379    0.315258
      2          6           0        2.263599   -0.403327   -0.589104
      3          6           0        1.567076    0.920938   -0.285118
      4          6           0        0.091794    0.911828   -0.629723
      5          6           0       -0.901521    1.758975    0.125783
      6          6           0       -0.902508    0.259392    0.328241
      7          8           0       -0.418110   -0.176513    1.563245
      8          6           0       -1.972752   -0.527153   -0.235870
      9          6           0       -2.853739   -1.198025   -0.706660
     10          1           0        1.985383   -2.269681   -0.027116
     11          1           0        3.350990   -0.291173   -0.470195
     12          1           0        2.068165   -0.701132   -1.629381
     13          1           0        1.704018    1.150364    0.776156
     14          1           0        2.072779    1.712738   -0.851634
     15          1           0       -0.125613    0.758199   -1.683620
     16          1           0       -0.535222    2.328684    0.972890
     17          1           0       -1.725614    2.206651   -0.416649
     18          1           0        0.250643   -0.852782    1.366390
     19          1           0       -3.639770   -1.786512   -1.110157
 ---------------------------------------------------------------------

 SCF Done:  E(RB3LYP) =  -423.129400010     A.U. after    1 cycles

 The electronic state is 1-A.
 Alpha  occ. eigenvalues --  -19.15809 -19.12454 -10.24925 -10.24128 -10.19380
 Alpha  occ. eigenvalues --  -10.19104 -10.18417 -10.17158 -10.16398  -1.03648
 Alpha  occ. eigenvalues --   -1.01544  -0.85336  -0.76636  -0.73247  -0.64579
 Alpha  occ. eigenvalues --   -0.61295  -0.57562  -0.53782  -0.53569  -0.49532
 Alpha  occ. eigenvalues --   -0.49110  -0.45983  -0.42748  -0.41737  -0.39719
 Alpha  occ. eigenvalues --   -0.38311  -0.35585  -0.34967  -0.32894  -0.30172
 Alpha  occ. eigenvalues --   -0.28852  -0.26384  -0.25881  -0.23232
 Alpha virt. eigenvalues --    0.04835   0.05817   0.06248   0.10203   0.11752
 Alpha virt. eigenvalues --    0.12912   0.13456   0.14683   0.16113   0.16589
 Alpha virt. eigenvalues --    0.17689   0.18636   0.19879   0.20764   0.21778

 Mulliken charges:
               1
     1  O   -0.410578
     2  C   -0.078493
     3  C   -0.229668
     4  C   -0.057487
     5  C   -0.346321
     6  C    0.216118
     7  O   -0.461519
     8  C    0.307246
     9  C   -0.479191
    10  H    0.297106
    11  H    0.096513
    12  H    0.097763
    13  H    0.124301
    14  H    0.102378
    15  H    0.093302
    16  H    0.124880
    17  H    0.121590
    18  H    0.293275
    19  H    0.188785
 Sum of Mulliken charges =   0.00000

 Dipole moment (field-independent basis, Debye):
    X=              2.4284    Y=             -0.6962    Z=             -2.4418  Tot=              3.5134
 Quadrupole moment (field-independent basis, Debye-Ang):
   XX=            -48.5977   YY=            -46.9452   ZZ=            -55.9325
   XY=             -1.7094   XZ=              0.8098   YZ=              1.8620

  Exact polarizability:  93.408  10.476  78.781   4.493   4.529  64.040
 Approx polarizability: 125.599  20.921 115.919  10.500   9.098 102.139

                      1                      2                      3
                      A                      A                      A
 Frequencies --     75.7295               103.3665               168.2614
 Red. masses --      5.0995                 2.9087                 3.0539
 Frc consts  --      0.0172                 0.0183                 0.0509
 IR Inten    --      0.4207                 4.2793                10.6745

                      4                      5                      6
                      A                      A                      A
 Frequencies --    189.5159               192.8606               249.1233
 Red. masses --      4.2634                 1.2872                 2.9028
 Frc consts  --      0.0902                 0.0282                 0.1061
 IR Inten    --      7.6193                73.5452                 3.1471

                      7                      8                      9
                      A                      A                      A
 Frequencies --    262.8227               343.8075               403.2529
 Red. masses --      3.6386                 2.9966                 3.5003
 Frc consts  --      0.1481                 0.2087                 0.3354
 IR Inten    --      3.2409                 2.9683                 4.2416

                     10                     11                     12
                      A                      A                      A
 Frequencies --    452.5208               510.2758               548.7128
 Red. masses --      2.7515                 2.2732                 5.4791
 Frc consts  --      0.3320                 0.3487                 0.9720
 IR Inten    --      8.6675                 4.5523                 6.3547

                     13                     14                     15
                      A                      A                      A
 Frequencies --    560.0686               578.4107               644.7240
 Red. masses --      2.2392                 1.3368                 1.2949
 Frc consts  --      0.4138                 0.2635                 0.3171
 IR Inten    --     44.1667                28.5361               100.8594

                     16                     17                     18
                      A                      A                      A
 Frequencies --    664.0354               691.3224               778.3208
 Red. masses --      1.2740                 4.3597                 2.0230
 Frc consts  --      0.3310                 1.2276                 0.7220
 IR Inten    --     38.2848                 0.9416                 1.2337

                     19                     20                     21
                      A                      A                      A
 Frequencies --    884.3959               885.8066               928.3447
 Red. masses --      2.5907                 2.7313                 1.5928
 Frc consts  --      1.1939                 1.2627                 0.8088
 IR Inten    --     19.4705                 5.6155                 3.9412

                     22                     23                     24
                      A                      A                      A
 Frequencies --    939.4755               987.2358              1049.2566
 Red. masses --      1.5233                 1.9312                 2.2664
 Frc consts  --      0.7921                 1.1090                 1.4701
 IR Inten    --      0.7916                 0.9883                34.5172

                     25                     26                     27
                      A                      A                      A
 Frequencies --   1065.7292              1085.2320              1098.0494
 Red. masses --      1.4693                 2.9288                 2.0132
 Frc consts  --      0.9832                 2.0323                 1.4301
 IR Inten    --     32.3531                26.6140                11.0362

                     28                     29                     30
                      A                      A                      A
 Frequencies --   1147.0643              1212.7023              1254.8192
 Red. masses --      1.4621                 1.4601                 1.7345
 Frc consts  --      1.1334                 1.2651                 1.6091
 IR Inten    --      8.6294                10.6989                38.1505

                     31                     32                     33
                      A                      A                      A
 Frequencies --   1267.6791              1273.4698              1313.4192
 Red. masses --      1.5702                 1.7708                 1.2634
 Frc consts  --      1.4867                 1.6920                 1.2841
 IR Inten    --     38.6206                28.3549                41.7623

                     34                     35                     36
                      A                      A                      A
 Frequencies --   1352.7748              1416.6176              1422.8372
 Red. masses --      1.3730                 1.3058                 1.5336
 Frc consts  --      1.4804                 1.5440                 1.8292
 IR Inten    --      5.4923                39.8131                 3.5910

                     37                     38                     39
                      A                      A                      A
 Frequencies --   1449.1827              1467.6502              1473.7547
 Red. masses --      1.3937                 1.1346                 1.3595
 Frc consts  --      1.7245                 1.4399                 1.7397
 IR Inten    --     11.0528                 2.1563                 6.6161

                     40                     41                     42
                      A                      A                      A
 Frequencies --   1517.5867              2229.0274              2989.4872
 Red. masses --      1.0903                 6.0152                 1.0557
 Frc consts  --      1.4795                17.6089                 5.5586
 IR Inten    --      3.4290                 7.3176                57.3462

                     43                     44                     45
                      A                      A                      A
 Frequencies --   3023.2920              3038.9195              3090.2643
 Red. masses --      1.1004                 1.0714                 1.0971
 Frc consts  --      5.9261                 5.8294                 6.1729
 IR Inten    --     30.0643                53.3606                10.4466

                     46                     47                     48
                      A                      A                      A
 Frequencies --   3138.3839              3141.9983              3233.4481
 Red. masses --      1.0544                 1.0880                 1.1178
 Frc consts  --      6.1190                 6.3282                 6.8858
 IR Inten    --      9.7604                11.5319                 4.6802

                     49                     50                     51
                      A                      A                      A
 Frequencies --   3503.9570              3671.5569              3847.6299
 Red. masses --      1.1599                 1.0657                 1.0667
 Frc consts  --      8.3902                 8.4642                 9.3038
 IR Inten    --     73.4641               223.5691                34.1417

 - Thermochemistry -
 -------------------
 Temperature   298.150 Kelvin.  Pressure   1.00000 Atm.
 Atom     1 has atomic number  8 and mass  15.99491

 Molecular mass:   126.06808 amu.
 Principal axes and moments of inertia in atomic units:
                           1         2         3
     Eigenvalues --   740.086711504.897661745.37811
           X            1.00000  -0.00084  -0.00276
           Y            0.00090   0.99972   0.02366
           Z            0.00274  -0.02366   0.99972
 This molecule is an asymmetric top.
 Rotational symmetry number  1.
 Warning -- assumption of classical behavior for rotation
           may cause significant error
 Rotational temperatures (Kelvin)      0.11703     0.05755     0.04962
 Rotational constants (GHZ):           2.43855     1.19925     1.03401
 Zero-point vibrational energy     411624.1 (Joules/Mol)
                                   98.38053 (Kcal/Mol)
 Warning -- explicit consideration of  14 degrees of freedom as
           vibrations may cause significant error
 Vibrational temperatures:    108.96   148.72   242.09   272.67   277.48
          (Kelvin)            358.43   378.14   494.66   580.19   651.08
                              734.17   789.47   805.81   832.20   927.61
                              955.40   994.66  1119.83  1272.45  1274.48
                             1335.68  1351.69  1420.41  1509.64  1533.34
                             1561.40  1579.85  1650.37  1744.81  1805.40
                             1823.91  1832.24  1889.71  1946.34  2038.19
                             2047.14  2085.05  2111.62  2120.40  2183.47
                             3207.07  4301.20  4349.84  4372.32  4446.20
                             4515.43  4520.63  4652.20  5041.41  5282.54
                             5535.87

 Zero-point correction=                           0.156779 (Hartree/Particle)
 Thermal correction to Energy=                    0.166494
 Thermal correction to Enthalpy=                  0.167438
 Thermal correction to Gibbs Free Energy=         0.122419
 Sum of electronic and zero-point Energies=           -422.972621
 Sum of electronic and thermal Energies=              -422.962906
 Sum of electronic and thermal Enthalpies=            -422.961962
 Sum of electronic and thermal Free Energies=         -423.006981

                     E (Thermal)             CV                S
                      KCal/Mol        Cal/Mol-Kelvin    Cal/Mol-Kelvin
 Total                  104.477             36.594             94.751
 Electronic               0.000              0.000              0.000
 Translational            0.889              2.981             40.409
 Rotational               0.889              2.981             29.054
 Vibrational            102.699             30.633             25.289
 Vibration     1          0.599              1.965              3.999
 Vibration     2          0.605              1.947              3.390
 Vibration     3          0.625              1.882              2.455
 Vibration     4          0.633              1.854              2.233
 Vibration     5          0.635              1.850              2.200
 Vibration     6          0.662              1.764              1.737
 Vibration     7          0.670              1.741              1.643
 Vibration     8          0.723              1.588              1.194
 Vibration     9          0.769              1.463              0.951
 Vibration    10          0.811              1.355              0.788
 Vibration    11          0.865              1.227              0.633
 Vibration    12          0.904              1.143              0.547
 Vibration    13          0.916              1.118              0.524
 Vibration    14          0.935              1.078              0.488

 Optimization completed.
    -- Stationary point found.
 Normal termination of Gaussian 09 at Tue Jan 28 15:05:23 2020.
