 Gaussian 09, Revision D.01,
 Gaussian 09:  ES64L-G09RevD.01 24-Apr-2013

 -----------------------------
 # b3lyp 6-31G(2df,p) opt Freq
 -----------------------------

 -----
 titel
 -----
 Symbolic Z-matrix:
 Charge =  0 Multiplicity = 1

 SCF Done:  E(RB3LYP) =  -423.137538785     A.U. after   14 cycles
 Optimization completed.
    -- Stationary point found.
 Normal termination of Gaussian 09 at Mon Jan 27 12:11:16 2020.

 ----------------------------------------------------------------------
 #N Geom=AllCheck Guess=TCheck SCRF=Check GenChk RB3LYP/6-31G(2df,p) Fr
 eq
 ----------------------------------------------------------------------

 Structure from the checkpoint file:  "/scratch/puck/g09_68cdb6e6-bf4a-42d2-a7bc-ae9f139bcc96/Gau-44903.chk"
 -----
 titel
 -----
 Charge =  0 Multiplicity = 1

                         Standard orientation:
 ---------------------------------------------------------------------
 Center     Atomic      Atomic             Coordinates (Angstroms)
 Number     Number       Type             X           Y           Z
 ---------------------------------------------------------------------
      1          6           0        2.506088   -0.450798   -0.270964
      2          8           0        1.969048    0.874406   -0.342271
      3          6           0        1.520920    0.020473    0.709306
      4          6           0        0.089036   -0.467047    0.706546
      5          8           0       -0.287925   -1.068637   -0.549045
      6          6           0       -1.488235   -0.337279   -0.885131
      7          6           0       -1.091969    1.134242   -0.628779
      8          6           0       -1.025132    0.591952    0.837757
      9          6           0       -2.257844   -0.290431    0.456596
     10          1           0        2.172470   -1.121862   -1.057777
     11          1           0        3.557227   -0.511974    0.006000
     12          1           0        1.878194    0.311613    1.699564
     13          1           0        0.011818   -1.217599    1.508494
     14          1           0       -1.892793   -0.718857   -1.820814
     15          1           0       -0.174660    1.492569   -1.091364
     16          1           0       -1.921042    1.829866   -0.769447
     17          1           0       -1.004820    1.238218    1.714400
     18          1           0       -2.406711   -1.236006    0.984410
     19          1           0       -3.185862    0.281217    0.405077
 ---------------------------------------------------------------------

 SCF Done:  E(RB3LYP) =  -423.137538785     A.U. after    1 cycles

 The electronic state is 1-A.
 Alpha  occ. eigenvalues --  -19.14875 -19.13557 -10.23569 -10.23439 -10.23406
 Alpha  occ. eigenvalues --  -10.22807 -10.19926 -10.18556 -10.17778  -1.07016
 Alpha  occ. eigenvalues --   -1.03794  -0.83370  -0.74964  -0.66472  -0.66357
 Alpha  occ. eigenvalues --   -0.62649  -0.56837  -0.55216  -0.52027  -0.50594
 Alpha  occ. eigenvalues --   -0.47581  -0.46635  -0.42882  -0.40475  -0.37774
 Alpha  occ. eigenvalues --   -0.37541  -0.36285  -0.35739  -0.34320  -0.32210
 Alpha  occ. eigenvalues --   -0.31394  -0.28918  -0.26636  -0.24201
 Alpha virt. eigenvalues --    0.09043   0.09738   0.11171   0.12303   0.12758
 Alpha virt. eigenvalues --    0.12992   0.14817   0.14876   0.15641   0.16216
 Alpha virt. eigenvalues --    0.17720   0.18255   0.19963   0.20294   0.21017

 Mulliken charges:
               1
     1  C   -0.173993
     2  O   -0.228674
     3  C    0.051454
     4  C    0.098369
     5  O   -0.294219
     6  C    0.110857
     7  C   -0.240355
     8  C   -0.080124
     9  C   -0.237717
    10  H    0.133975
    11  H    0.110675
    12  H    0.090299
    13  H    0.075603
    14  H    0.079634
    15  H    0.135192
    16  H    0.096407
    17  H    0.073130
    18  H    0.097288
    19  H    0.102199
 Sum of Mulliken charges =   0.00000

 Dipole moment (field-independent basis, Debye):
    X=             -0.8106    Y=             -0.3082    Z=              1.3364  Tot=              1.5931
 Quadrupole moment (field-independent basis, Debye-Ang):
   XX=            -49.3511   YY=            -55.8368   ZZ=            -51.1969
   XY=             -3.5868   XZ=              2.0490   YZ=              0.1913

  Exact polarizability:  88.438  -2.959  65.580   0.007   0.153  70.023
 Approx polarizability: 113.115  -3.753 104.792  -1.607   0.105 109.087

                      1                      2                      3
                      A                      A                      A
 Frequencies --     86.8727               172.1796               201.1369
 Red. masses --      3.6849                 4.5947                 3.1537
 Frc consts  --      0.0164                 0.0803                 0.0752
 IR Inten    --      2.6688                 2.1815                 5.3082

                      4                      5                      6
                      A                      A                      A
 Frequencies --    298.5578               406.1906               482.5798
 Red. masses --      5.6266                 3.1645                 2.5450
 Frc consts  --      0.2955                 0.3076                 0.3492
 IR Inten    --      0.7885                 3.4144                 1.1693

                      7                      8                      9
                      A                      A                      A
 Frequencies --    532.5849               595.8778               714.7772
 Red. masses --      1.8879                 3.3549                 3.4159
 Frc consts  --      0.3155                 0.7018                 1.0282
 IR Inten    --      0.9974                 4.0544                14.9458

                     10                     11                     12
                      A                      A                      A
 Frequencies --    782.0884               831.6697               841.8793
 Red. masses --      4.1954                 2.8210                 2.0702
 Frc consts  --      1.5119                 1.1496                 0.8645
 IR Inten    --     13.2448                 5.8233                 4.8764

                     13                     14                     15
                      A                      A                      A
 Frequencies --    865.9706               875.4839               902.1699
 Red. masses --      4.4361                 2.2474                 2.3877
 Frc consts  --      1.9600                 1.0149                 1.1450
 IR Inten    --      3.7545                 7.1967                15.0053

                     16                     17                     18
                      A                      A                      A
 Frequencies --    911.0638               935.4656               966.8455
 Red. masses --      2.8841                 3.2719                 2.7960
 Frc consts  --      1.4105                 1.6870                 1.5400
 IR Inten    --      7.0694                58.2272                38.6038

                     19                     20                     21
                      A                      A                      A
 Frequencies --    989.8590              1013.8038              1037.9216
 Red. masses --      1.8796                 1.7222                 1.6884
 Frc consts  --      1.0851                 1.0429                 1.0717
 IR Inten    --      4.7064                10.1026                 3.4084

                     22                     23                     24
                      A                      A                      A
 Frequencies --   1058.3320              1065.8337              1090.8719
 Red. masses --      1.4851                 1.4283                 1.2824
 Frc consts  --      0.9800                 0.9560                 0.8991
 IR Inten    --      5.7114                 7.5685                 2.9457

                     25                     26                     27
                      A                      A                      A
 Frequencies --   1110.8184              1128.5679              1144.5050
 Red. masses --      1.4257                 2.4182                 1.4154
 Frc consts  --      1.0365                 1.8147                 1.0924
 IR Inten    --      1.3731                22.0064                 3.1950

                     28                     29                     30
                      A                      A                      A
 Frequencies --   1166.4757              1173.8779              1214.5260
 Red. masses --      1.3803                 1.3465                 1.3924
 Frc consts  --      1.1065                 1.0932                 1.2101
 IR Inten    --      1.3991                 1.3231                 0.5799

                     31                     32                     33
                      A                      A                      A
 Frequencies --   1245.7204              1253.1484              1283.1519
 Red. masses --      1.5270                 1.6579                 1.5039
 Frc consts  --      1.3962                 1.5339                 1.4589
 IR Inten    --      1.1366                10.5335                 3.1041

                     34                     35                     36
                      A                      A                      A
 Frequencies --   1289.2103              1293.3215              1333.6659
 Red. masses --      1.5414                 1.4771                 1.4874
 Frc consts  --      1.5094                 1.4557                 1.5587
 IR Inten    --      4.9136                 9.3654                 5.3496

                     37                     38                     39
                      A                      A                      A
 Frequencies --   1392.7667              1431.4146              1472.5468
 Red. masses --      1.4479                 1.7941                 1.1009
 Frc consts  --      1.6548                 2.1659                 1.4065
 IR Inten    --      8.6389                 4.6099                 3.9846

                     40                     41                     42
                      A                      A                      A
 Frequencies --   1506.8695              1517.6891              2982.7407
 Red. masses --      1.1457                 1.4061                 1.0834
 Frc consts  --      1.5328                 1.9083                 5.6792
 IR Inten    --      6.6821                 3.7775                45.6925

                     43                     44                     45
                      A                      A                      A
 Frequencies --   3064.3842              3086.9345              3088.1955
 Red. masses --      1.0573                 1.0794                 1.0604
 Frc consts  --      5.8495                 6.0599                 5.9582
 IR Inten    --     34.7979                25.9936                20.4708

                     46                     47                     48
                      A                      A                      A
 Frequencies --   3097.9338              3125.8693              3133.9204
 Red. masses --      1.0594                 1.0907                 1.1069
 Frc consts  --      5.9902                 6.2790                 6.4054
 IR Inten    --     35.7708                41.2316                28.5279

                     49                     50                     51
                      A                      A                      A
 Frequencies --   3141.7000              3173.2813              3197.1491
 Red. masses --      1.0926                 1.1072                 1.1180
 Frc consts  --      6.3541                 6.5687                 6.7331
 IR Inten    --     38.8117                 6.4534                13.8154

 - Thermochemistry -
 -------------------
 Temperature   298.150 Kelvin.  Pressure   1.00000 Atm.
 Atom     1 has atomic number  6 and mass  12.00000

 Molecular mass:   126.06808 amu.
 Principal axes and moments of inertia in atomic units:
                           1         2         3
     Eigenvalues --   464.693561381.781011416.82525
           X            0.99979  -0.02007   0.00399
           Y            0.02034   0.99617  -0.08501
           Z           -0.00227   0.08507   0.99637
 This molecule is an asymmetric top.
 Rotational symmetry number  1.
 Warning -- assumption of classical behavior for rotation
           may cause significant error
 Rotational temperatures (Kelvin)      0.18639     0.06268     0.06113
 Rotational constants (GHZ):           3.88372     1.30610     1.27379
 Zero-point vibrational energy     422942.1 (Joules/Mol)
                                  101.08559 (Kcal/Mol)
 Warning -- explicit consideration of   8 degrees of freedom as
           vibrations may cause significant error
 Vibrational temperatures:    124.99   247.73   289.39   429.56   584.42
          (Kelvin)            694.32   766.27   857.33  1028.40  1125.25
                             1196.59  1211.28  1245.94  1259.62  1298.02
                             1310.82  1345.92  1391.07  1424.18  1458.64
                             1493.34  1522.70  1533.50  1569.52  1598.22
                             1623.76  1646.69  1678.30  1688.95  1747.43
                             1792.31  1803.00  1846.17  1854.88  1860.80
                             1918.85  2003.88  2059.48  2118.66  2168.05
                             2183.61  4291.49  4408.96  4441.40  4443.22
                             4457.23  4497.42  4509.01  4520.20  4565.64
                             4599.98

 Zero-point correction=                           0.161090 (Hartree/Particle)
 Thermal correction to Energy=                    0.168227
 Thermal correction to Enthalpy=                  0.169171
 Thermal correction to Gibbs Free Energy=         0.129362
 Sum of electronic and zero-point Energies=           -422.976449
 Sum of electronic and thermal Energies=              -422.969312
 Sum of electronic and thermal Enthalpies=            -422.968368
 Sum of electronic and thermal Free Energies=         -423.008177

                     E (Thermal)             CV                S
                      KCal/Mol        Cal/Mol-Kelvin    Cal/Mol-Kelvin
 Total                  105.564             28.670             83.785
 Electronic               0.000              0.000              0.000
 Translational            0.889              2.981             40.409
 Rotational               0.889              2.981             28.300
 Vibrational            103.786             22.708             15.077
 Vibration     1          0.601              1.958              3.729
 Vibration     2          0.626              1.877              2.412
 Vibration     3          0.638              1.838              2.123
 Vibration     4          0.692              1.676              1.425
 Vibration     5          0.771              1.457              0.940
 Vibration     6          0.839              1.289              0.703
 Vibration     7          0.888              1.178              0.581
 Vibration     8          0.954              1.041              0.457

 Optimization completed.
    -- Stationary point found.
 Normal termination of Gaussian 09 at Mon Jan 27 12:55:34 2020.
