 Gaussian 09, Revision D.01,
 Gaussian 09:  ES64L-G09RevD.01 24-Apr-2013

 -----------------------------
 # b3lyp 6-31G(2df,p) opt Freq
 -----------------------------

 -----
 titel
 -----
 Symbolic Z-matrix:
 Charge =  0 Multiplicity = 1

 SCF Done:  E(RB3LYP) =  -423.231391725     A.U. after   14 cycles
 Optimization completed.
    -- Stationary point found.
 Normal termination of Gaussian 09 at Mon Jan 27 22:03:16 2020.

 ----------------------------------------------------------------------
 #N Geom=AllCheck Guess=TCheck SCRF=Check GenChk RB3LYP/6-31G(2df,p) Fr
 eq
 ----------------------------------------------------------------------

 Structure from the checkpoint file:  "/scratch/puck/g09_d39f3bd1-8742-4f4e-80b6-da4ad72683d9/Gau-78537.chk"
 -----
 titel
 -----
 Charge =  0 Multiplicity = 1

                         Standard orientation:
 ---------------------------------------------------------------------
 Center     Atomic      Atomic             Coordinates (Angstroms)
 Number     Number       Type             X           Y           Z
 ---------------------------------------------------------------------
      1          6           0        2.412906   -1.332443    0.033243
      2          6           0        1.100384   -0.622351   -0.017515
      3          6           0       -0.141356   -1.120031   -0.047864
      4          6           0       -1.235191   -0.071796   -0.045140
      5          6           0       -2.056413   -0.130893    1.251764
      6          8           0       -2.074964   -0.353566   -1.166626
      7          6           0       -0.446319    1.253398   -0.192766
      8          6           0        1.027048    0.865870   -0.029130
      9          8           0        1.963944    1.623274    0.074443
     10          1           0        3.012601   -1.095438   -0.852419
     11          1           0        2.995771   -0.993902    0.896523
     12          1           0        2.288269   -2.416211    0.091705
     13          1           0       -0.403210   -2.173576   -0.058204
     14          1           0       -2.846160    0.630368    1.236981
     15          1           0       -2.527150   -1.112238    1.360711
     16          1           0       -1.428816    0.056031    2.128119
     17          1           0       -2.852109    0.212125   -1.102996
     18          1           0       -0.593878    1.652260   -1.201072
     19          1           0       -0.723506    2.032384    0.522560
 ---------------------------------------------------------------------

 SCF Done:  E(RB3LYP) =  -423.231391725     A.U. after    1 cycles

 The electronic state is 1-A.
 Alpha  occ. eigenvalues --  -19.14208 -19.12213 -10.26062 -10.25276 -10.20049
 Alpha  occ. eigenvalues --  -10.19826 -10.18910 -10.18636 -10.18542  -1.03254
 Alpha  occ. eigenvalues --   -1.02581  -0.84949  -0.76723  -0.72190  -0.69410
 Alpha  occ. eigenvalues --   -0.63219  -0.57157  -0.51403  -0.50049  -0.47150
 Alpha  occ. eigenvalues --   -0.44668  -0.44225  -0.42786  -0.41836  -0.41554
 Alpha  occ. eigenvalues --   -0.39211  -0.38259  -0.37663  -0.36907  -0.34686
 Alpha  occ. eigenvalues --   -0.32812  -0.28485  -0.26612  -0.23689
 Alpha virt. eigenvalues --   -0.04294   0.05418   0.06936   0.10932   0.12066
 Alpha virt. eigenvalues --    0.13500   0.14559   0.15062   0.15371   0.16473
 Alpha virt. eigenvalues --    0.17566   0.18564   0.20225   0.20642   0.21943

 Mulliken charges:
               1
     1  C   -0.493352
     2  C    0.195141
     3  C   -0.168943
     4  C    0.342955
     5  C   -0.439921
     6  O   -0.471620
     7  C   -0.395357
     8  C    0.332995
     9  O   -0.325792
    10  H    0.144518
    11  H    0.145014
    12  H    0.122793
    13  H    0.112035
    14  H    0.111815
    15  H    0.126134
    16  H    0.126945
    17  H    0.278972
    18  H    0.136904
    19  H    0.118764
 Sum of Mulliken charges =   0.00000

 Dipole moment (field-independent basis, Debye):
    X=             -2.4478    Y=             -1.2508    Z=              0.8259  Tot=              2.8703
 Quadrupole moment (field-independent basis, Debye-Ang):
   XX=            -52.4010   YY=            -54.6615   ZZ=            -54.1061
   XY=             -8.6001   XZ=             -1.4929   YZ=             -1.8721

  Exact polarizability: 100.430   2.529  78.833  -0.270  -0.386  58.350
 Approx polarizability: 147.180  20.381 122.968   3.626   1.887  88.530

                      1                      2                      3
                      A                      A                      A
 Frequencies --     62.4173                97.5342               133.4962
 Red. masses --      3.8632                 1.1440                 2.4884
 Frc consts  --      0.0089                 0.0064                 0.0261
 IR Inten    --      3.3302                 1.0249                 2.1173

                      4                      5                      6
                      A                      A                      A
 Frequencies --    242.7526               268.7210               269.7363
 Red. masses --      2.6081                 1.1018                 1.0558
 Frc consts  --      0.0906                 0.0469                 0.0453
 IR Inten    --      1.8517                 0.4645                87.7140

                      7                      8                      9
                      A                      A                      A
 Frequencies --    322.0167               335.7272               350.9538
 Red. masses --      2.4400                 2.8810                 3.1976
 Frc consts  --      0.1491                 0.1913                 0.2320
 IR Inten    --      0.5597                 2.9374                 9.8395

                     10                     11                     12
                      A                      A                      A
 Frequencies --    361.0867               462.0215               537.3662
 Red. masses --      5.5768                 2.3992                 3.2848
 Frc consts  --      0.4284                 0.3017                 0.5589
 IR Inten    --     10.7117                 7.8074                 3.4397

                     13                     14                     15
                      A                      A                      A
 Frequencies --    577.0583               607.5234               642.0143
 Red. masses --      3.8193                 4.5291                 2.8702
 Frc consts  --      0.7493                 0.9849                 0.6970
 IR Inten    --      0.9787                 1.9687                 3.3057

                     16                     17                     18
                      A                      A                      A
 Frequencies --    757.6328               826.9330               899.8302
 Red. masses --      3.9220                 3.5958                 1.6483
 Frc consts  --      1.3264                 1.4487                 0.7863
 IR Inten    --      2.1549                 2.8290                 2.8600

                     19                     20                     21
                      A                      A                      A
 Frequencies --    904.7466               950.1966               967.3248
 Red. masses --      1.6885                 2.1162                 1.7700
 Frc consts  --      0.8143                 1.1257                 0.9758
 IR Inten    --      4.0946                32.1564                 0.4543

                     22                     23                     24
                      A                      A                      A
 Frequencies --    999.6938              1055.0847              1072.1498
 Red. masses --      1.9167                 1.6401                 2.4586
 Frc consts  --      1.1286                 1.0757                 1.6651
 IR Inten    --     23.3876                10.4650                16.9276

                     25                     26                     27
                      A                      A                      A
 Frequencies --   1084.1386              1107.9216              1189.6178
 Red. masses --      1.9256                 1.6508                 2.2353
 Frc consts  --      1.3335                 1.1939                 1.8638
 IR Inten    --      8.0007                91.2984                34.4766

                     28                     29                     30
                      A                      A                      A
 Frequencies --   1220.5187              1223.6197              1269.4906
 Red. masses --      1.6291                 1.7258                 2.1584
 Frc consts  --      1.4298                 1.5224                 2.0494
 IR Inten    --     12.4860                22.3814                26.9715

                     31                     32                     33
                      A                      A                      A
 Frequencies --   1339.0631              1383.7556              1402.6053
 Red. masses --      2.7381                 1.8551                 1.2333
 Frc consts  --      2.8927                 2.0928                 1.4296
 IR Inten    --     34.9718                30.2200                 1.7286

                     34                     35                     36
                      A                      A                      A
 Frequencies --   1413.1808              1448.9637              1472.9037
 Red. masses --      1.2867                 1.0970                 1.0434
 Frc consts  --      1.5140                 1.3569                 1.3336
 IR Inten    --      1.4327                 4.6839                 6.2025

                     37                     38                     39
                      A                      A                      A
 Frequencies --   1482.8635              1489.7123              1495.4299
 Red. masses --      1.0611                 1.0526                 1.0776
 Frc consts  --      1.3748                 1.3764                 1.4198
 IR Inten    --      9.9782                 0.7654                 4.5561

                     40                     41                     42
                      A                      A                      A
 Frequencies --   1707.0160              1812.2233              3024.5837
 Red. masses --      7.8279                12.6815                 1.0380
 Frc consts  --     13.4392                24.5383                 5.5949
 IR Inten    --      8.6499               257.4094                21.6901

                     43                     44                     45
                      A                      A                      A
 Frequencies --   3038.3644              3060.8257              3092.5692
 Red. masses --      1.0361                 1.0596                 1.0984
 Frc consts  --      5.6354                 5.8487                 6.1893
 IR Inten    --     15.6039                 6.1197                 8.1806

                     46                     47                     48
                      A                      A                      A
 Frequencies --   3095.4355              3109.5897              3119.6845
 Red. masses --      1.0971                 1.1039                 1.1027
 Frc consts  --      6.1937                 6.2893                 6.3229
 IR Inten    --     21.8747                 6.0261                19.2201

                     49                     50                     51
                      A                      A                      A
 Frequencies --   3125.4740              3185.2828              3804.1156
 Red. masses --      1.1023                 1.0941                 1.0660
 Frc consts  --      6.3441                 6.5402                 9.0891
 IR Inten    --     12.9857                 8.1172                14.7918

 - Thermochemistry -
 -------------------
 Temperature   298.150 Kelvin.  Pressure   1.00000 Atm.
 Atom     1 has atomic number  6 and mass  12.00000

 Molecular mass:   126.06808 amu.
 Principal axes and moments of inertia in atomic units:
                           1         2         3
     Eigenvalues --   669.015261438.899141726.27364
           X            0.99798  -0.06028  -0.02006
           Y            0.05988   0.99801  -0.01999
           Z            0.02122   0.01874   0.99960
 This molecule is an asymmetric top.
 Rotational symmetry number  1.
 Warning -- assumption of classical behavior for rotation
           may cause significant error
 Rotational temperatures (Kelvin)      0.12946     0.06019     0.05017
 Rotational constants (GHZ):           2.69761     1.25425     1.04545
 Zero-point vibrational energy     412131.3 (Joules/Mol)
                                   98.50174 (Kcal/Mol)
 Warning -- explicit consideration of  14 degrees of freedom as
           vibrations may cause significant error
 Vibrational temperatures:     89.80   140.33   192.07   349.27   386.63
          (Kelvin)            388.09   463.31   483.04   504.94   519.52
                              664.75   773.15   830.26   874.09   923.71
                             1090.06  1189.77  1294.65  1301.73  1367.12
                             1391.76  1438.33  1518.03  1542.58  1559.83
                             1594.05  1711.59  1756.05  1760.51  1826.51
                             1926.61  1990.91  2018.03  2033.25  2084.73
                             2119.18  2133.51  2143.36  2151.59  2456.01
                             2607.38  4351.70  4371.52  4403.84  4449.51
                             4453.64  4474.00  4488.52  4496.85  4582.91
                             5473.27

 Zero-point correction=                           0.156973 (Hartree/Particle)
 Thermal correction to Energy=                    0.166466
 Thermal correction to Enthalpy=                  0.167410
 Thermal correction to Gibbs Free Energy=         0.122693
 Sum of electronic and zero-point Energies=           -423.074419
 Sum of electronic and thermal Energies=              -423.064926
 Sum of electronic and thermal Enthalpies=            -423.063981
 Sum of electronic and thermal Free Energies=         -423.108699

                     E (Thermal)             CV                S
                      KCal/Mol        Cal/Mol-Kelvin    Cal/Mol-Kelvin
 Total                  104.459             35.358             94.116
 Electronic               0.000              0.000              0.000
 Translational            0.889              2.981             40.409
 Rotational               0.889              2.981             28.898
 Vibrational            102.682             29.396             24.809
 Vibration     1          0.597              1.972              4.379
 Vibration     2          0.603              1.951              3.503
 Vibration     3          0.613              1.920              2.895
 Vibration     4          0.659              1.775              1.783
 Vibration     5          0.673              1.731              1.604
 Vibration     6          0.674              1.729              1.598
 Vibration     7          0.707              1.631              1.300
 Vibration     8          0.717              1.604              1.232
 Vibration     9          0.728              1.573              1.162
 Vibration    10          0.735              1.552              1.117
 Vibration    11          0.820              1.334              0.760
 Vibration    12          0.892              1.167              0.571
 Vibration    13          0.934              1.081              0.491
 Vibration    14          0.966              1.016              0.437

 Normal termination of Gaussian 09 at Mon Jan 27 22:47:59 2020.
