 Gaussian 09, Revision D.01,
 Gaussian 09:  ES64L-G09RevD.01 24-Apr-2013

 -----------------------------
 # b3lyp 6-31G(2df,p) opt Freq
 -----------------------------

 -----
 titel
 -----
 Symbolic Z-matrix:
 Charge =  0 Multiplicity = 1

 SCF Done:  E(RB3LYP) =  -423.198430388     A.U. after   13 cycles
 Optimization completed.
    -- Stationary point found.
 Normal termination of Gaussian 09 at Mon Jan 27 12:20:14 2020.

 ----------------------------------------------------------------------
 #N Geom=AllCheck Guess=TCheck SCRF=Check GenChk RB3LYP/6-31G(2df,p) Fr
 eq
 ----------------------------------------------------------------------

 Structure from the checkpoint file:  "/scratch/puck/g09_f3133fad-48d3-44fc-8f18-aae3fba3cb9c/Gau-97878.chk"
 -----
 titel
 -----
 Charge =  0 Multiplicity = 1

                         Standard orientation:
 ---------------------------------------------------------------------
 Center     Atomic      Atomic             Coordinates (Angstroms)
 Number     Number       Type             X           Y           Z
 ---------------------------------------------------------------------
      1          6           0       -1.994422   -0.144168    0.334398
      2          8           0       -1.567442   -0.112809   -1.041638
      3          6           0       -0.163239   -0.333342   -1.035153
      4          6           0        0.659523    0.912890   -0.617707
      5          6           0       -0.025560    1.295932    0.720764
      6          6           0       -0.678183   -0.065996    1.110016
      7          6           0        0.177096   -1.068831    0.279057
      8          6           0        1.684102   -0.847723    0.414010
      9          8           0        1.943432    0.361559   -0.329108
     10          1           0       -2.656783    0.707528    0.523627
     11          1           0       -2.551657   -1.071707    0.530628
     12          1           0        0.143524   -0.789424   -1.976414
     13          1           0        0.780576    1.712872   -1.347300
     14          1           0        0.730538    1.634673    1.432776
     15          1           0       -0.772542    2.086771    0.610556
     16          1           0       -0.764322   -0.260997    2.179666
     17          1           0       -0.144882   -2.108390    0.352385
     18          1           0        2.006562   -0.729851    1.457836
     19          1           0        2.265161   -1.664040   -0.030101
 ---------------------------------------------------------------------

 SCF Done:  E(RB3LYP) =  -423.198430388     A.U. after    1 cycles

 The electronic state is 1-A.
 Alpha  occ. eigenvalues --  -19.13715 -19.13458 -10.22853 -10.22799 -10.22727
 Alpha  occ. eigenvalues --  -10.22647 -10.19651 -10.19282 -10.18144  -1.04694
 Alpha  occ. eigenvalues --   -1.02369  -0.82371  -0.74849  -0.74435  -0.66168
 Alpha  occ. eigenvalues --   -0.60856  -0.57533  -0.54234  -0.53481  -0.49691
 Alpha  occ. eigenvalues --   -0.47624  -0.44196  -0.42805  -0.41534  -0.39223
 Alpha  occ. eigenvalues --   -0.37603  -0.37241  -0.36764  -0.34819  -0.33076
 Alpha  occ. eigenvalues --   -0.31920  -0.29990  -0.25841  -0.22977
 Alpha virt. eigenvalues --    0.08701   0.09422   0.11804   0.12328   0.13581
 Alpha virt. eigenvalues --    0.13726   0.14760   0.15153   0.16255   0.16971
 Alpha virt. eigenvalues --    0.17695   0.18515   0.19936   0.20513   0.21002

 Mulliken charges:
               1
     1  C   -0.078493
     2  O   -0.288936
     3  C    0.118934
     4  C    0.080453
     5  C   -0.234093
     6  C   -0.063142
     7  C   -0.067819
     8  C   -0.110530
     9  O   -0.273174
    10  H    0.103453
    11  H    0.091186
    12  H    0.083355
    13  H    0.078010
    14  H    0.108218
    15  H    0.102890
    16  H    0.069735
    17  H    0.074947
    18  H    0.098036
    19  H    0.106971
 Sum of Mulliken charges =   0.00000

 Dipole moment (field-independent basis, Debye):
    X=             -0.4907    Y=             -0.7218    Z=              1.6133  Tot=              1.8342
 Quadrupole moment (field-independent basis, Debye-Ang):
   XX=            -57.8387   YY=            -50.5558   ZZ=            -52.8388
   XY=             -2.0897   XZ=             -2.1614   YZ=             -0.2981

  Exact polarizability:  77.816  -2.585  71.397  -2.027  -0.453  68.083
 Approx polarizability: 109.791  -2.800 105.470  -1.559  -1.998 104.769

                      1                      2                      3
                      A                      A                      A
 Frequencies --    230.5560               261.3432               353.7929
 Red. masses --      2.5648                 2.7508                 2.9289
 Frc consts  --      0.0803                 0.1107                 0.2160
 IR Inten    --      4.1909                 0.9283                 2.0358

                      4                      5                      6
                      A                      A                      A
 Frequencies --    377.5878               459.8535               521.3841
 Red. masses --      3.6646                 2.0585                 5.4950
 Frc consts  --      0.3078                 0.2565                 0.8801
 IR Inten    --      4.7353                 2.8406                 0.1999

                      7                      8                      9
                      A                      A                      A
 Frequencies --    648.4258               723.7824               749.3696
 Red. masses --      5.1673                 3.2747                 3.7616
 Frc consts  --      1.2801                 1.0108                 1.2446
 IR Inten    --      4.4540                 4.6390                 1.5691

                     10                     11                     12
                      A                      A                      A
 Frequencies --    804.3501               850.6985               876.2378
 Red. masses --      3.8243                 2.4575                 2.9864
 Frc consts  --      1.4578                 1.0479                 1.3510
 IR Inten    --      0.3531                 2.3313                 7.0847

                     13                     14                     15
                      A                      A                      A
 Frequencies --    893.7951               925.7781               945.9392
 Red. masses --      3.3715                 2.5734                 2.5954
 Frc consts  --      1.5869                 1.2995                 1.3683
 IR Inten    --      5.8727                16.1504                11.4449

                     16                     17                     18
                      A                      A                      A
 Frequencies --    960.0319               971.8278               980.9486
 Red. masses --      2.3364                 2.0431                 1.8958
 Frc consts  --      1.2688                 1.1369                 1.0748
 IR Inten    --      9.4572                 2.9635                21.0515

                     19                     20                     21
                      A                      A                      A
 Frequencies --   1002.1427              1021.0151              1052.5940
 Red. masses --      1.7164                 1.8105                 2.4676
 Frc consts  --      1.0156                 1.1121                 1.6108
 IR Inten    --     11.5418                 1.6130                34.0908

                     22                     23                     24
                      A                      A                      A
 Frequencies --   1079.8736              1089.2659              1097.5312
 Red. masses --      1.6897                 3.6988                 2.0239
 Frc consts  --      1.1609                 2.5857                 1.4364
 IR Inten    --      6.5897                67.6082                47.1442

                     25                     26                     27
                      A                      A                      A
 Frequencies --   1147.8500              1175.8537              1193.4310
 Red. masses --      1.9812                 1.3593                 1.2195
 Frc consts  --      1.5380                 1.1074                 1.0233
 IR Inten    --      7.6084                 8.3979                 2.0788

                     28                     29                     30
                      A                      A                      A
 Frequencies --   1206.9701              1233.2241              1257.3180
 Red. masses --      1.6476                 1.4791                 1.3749
 Frc consts  --      1.4142                 1.3254                 1.2806
 IR Inten    --      4.3941                 0.6736                 3.0988

                     31                     32                     33
                      A                      A                      A
 Frequencies --   1271.8311              1283.1461              1302.3493
 Red. masses --      1.4715                 1.2781                 1.3077
 Frc consts  --      1.4024                 1.2398                 1.3068
 IR Inten    --      2.6247                 1.2554                 0.1747

                     34                     35                     36
                      A                      A                      A
 Frequencies --   1324.1000              1329.4654              1345.4166
 Red. masses --      1.7651                 1.5927                 1.5325
 Frc consts  --      1.8234                 1.6586                 1.6344
 IR Inten    --      6.6105                 9.0822                 0.6727

                     37                     38                     39
                      A                      A                      A
 Frequencies --   1379.6269              1398.0391              1487.4113
 Red. masses --      1.4020                 1.4395                 1.0947
 Frc consts  --      1.5723                 1.6577                 1.4270
 IR Inten    --      6.5105                 2.2461                 3.8310

                     40                     41                     42
                      A                      A                      A
 Frequencies --   1527.5751              1528.0407              2996.7669
 Red. masses --      1.0967                 1.0900                 1.0665
 Frc consts  --      1.5078                 1.4995                 5.6429
 IR Inten    --      0.3992                 0.7677                76.9620

                     43                     44                     45
                      A                      A                      A
 Frequencies --   3004.5740              3052.1023              3060.0532
 Red. masses --      1.0643                 1.1009                 1.0701
 Frc consts  --      5.6608                 6.0423                 5.9037
 IR Inten    --     67.4720                36.8123                 4.5758

                     46                     47                     48
                      A                      A                      A
 Frequencies --   3064.3994              3104.7432              3110.4467
 Red. masses --      1.0882                 1.0902                 1.0949
 Frc consts  --      6.0206                 6.1918                 6.2412
 IR Inten    --     57.9379                16.4389                28.6452

                     49                     50                     51
                      A                      A                      A
 Frequencies --   3114.3343              3121.8529              3132.4037
 Red. masses --      1.0948                 1.0900                 1.0925
 Frc consts  --      6.2565                 6.2589                 6.3157
 IR Inten    --     31.7375                30.2182                25.6894

 - Thermochemistry -
 -------------------
 Temperature   298.150 Kelvin.  Pressure   1.00000 Atm.
 Atom     1 has atomic number  6 and mass  12.00000

 Molecular mass:   126.06808 amu.
 Principal axes and moments of inertia in atomic units:
                           1         2         3
     Eigenvalues --   550.336501052.506941056.99289
           X            0.99963  -0.00911  -0.02561
           Y            0.02138  -0.31821   0.94778
           Z            0.01679   0.94798   0.31790
 This molecule is an asymmetric top.
 Rotational symmetry number  1.
 Warning -- assumption of classical behavior for rotation
           may cause significant error
 Rotational temperatures (Kelvin)      0.15738     0.08229     0.08194
 Rotational constants (GHZ):           3.27934     1.71471     1.70743
 Zero-point vibrational energy     430843.7 (Joules/Mol)
                                  102.97413 (Kcal/Mol)
 Warning -- explicit consideration of   6 degrees of freedom as
           vibrations may cause significant error
 Vibrational temperatures:    331.72   376.01   509.03   543.26   661.63
          (Kelvin)            750.15   932.94  1041.36  1078.17  1157.28
                             1223.96  1260.71  1285.97  1331.99  1360.99
                             1381.27  1398.24  1411.36  1441.86  1469.01
                             1514.45  1553.70  1567.21  1579.10  1651.50
                             1691.79  1717.08  1736.56  1774.33  1809.00
                             1829.88  1846.16  1873.79  1905.08  1912.80
                             1935.75  1984.97  2011.46  2140.05  2197.84
                             2198.51  4311.67  4322.91  4391.29  4402.73
                             4408.98  4467.03  4475.23  4480.83  4491.64
                             4506.82

 Zero-point correction=                           0.164100 (Hartree/Particle)
 Thermal correction to Energy=                    0.170252
 Thermal correction to Enthalpy=                  0.171196
 Thermal correction to Gibbs Free Energy=         0.133910
 Sum of electronic and zero-point Energies=           -423.034331
 Sum of electronic and thermal Energies=              -423.028178
 Sum of electronic and thermal Enthalpies=            -423.027234
 Sum of electronic and thermal Free Energies=         -423.064520

                     E (Thermal)             CV                S
                      KCal/Mol        Cal/Mol-Kelvin    Cal/Mol-Kelvin
 Total                  106.835             26.421             78.475
 Electronic               0.000              0.000              0.000
 Translational            0.889              2.981             40.409
 Rotational               0.889              2.981             27.906
 Vibrational            105.057             20.459             10.160
 Vibration     1          0.652              1.794              1.875
 Vibration     2          0.669              1.744              1.653
 Vibration     3          0.730              1.567              1.149
 Vibration     4          0.748              1.518              1.049
 Vibration     5          0.818              1.339              0.767
 Vibration     6          0.876              1.203              0.607

 Optimization completed.
    -- Stationary point found.
 Normal termination of Gaussian 09 at Mon Jan 27 13:08:22 2020.
