 Gaussian 09, Revision D.01,
 Gaussian 09:  ES64L-G09RevD.01 24-Apr-2013

 -----------------------------
 # b3lyp 6-31G(2df,p) opt Freq
 -----------------------------

 -----
 titel
 -----
 Symbolic Z-matrix:
 Charge =  0 Multiplicity = 1

 SCF Done:  E(RB3LYP) =  -423.132564296     A.U. after   12 cycles
 Optimization completed.
    -- Stationary point found.
 Normal termination of Gaussian 09 at Tue Jan 28 10:03:08 2020.

 ----------------------------------------------------------------------
 #N Geom=AllCheck Guess=TCheck SCRF=Check GenChk RB3LYP/6-31G(2df,p) Fr
 eq
 ----------------------------------------------------------------------

 Structure from the checkpoint file:  "/scratch/puck/g09_258bd143-f136-4f10-9bfc-1a855e855c1d/Gau-133027.chk"
 -----
 titel
 -----
 Charge =  0 Multiplicity = 1

                         Standard orientation:
 ---------------------------------------------------------------------
 Center     Atomic      Atomic             Coordinates (Angstroms)
 Number     Number       Type             X           Y           Z
 ---------------------------------------------------------------------
      1          6           0       -2.588950   -0.601879    0.223805
      2          8           0       -1.488283   -0.551238   -0.666347
      3          6           0       -0.442668    0.223821   -0.225185
      4          6           0       -0.369469    1.757415   -0.000096
      5          6           0        1.063065    1.237878    0.262688
      6          6           0        0.932761    0.256257   -0.952846
      7          6           0        1.654797   -1.027984   -0.566381
      8          8           0        1.306356   -1.127847    0.827774
      9          6           0        0.487678    0.006896    1.018706
     10          1           0       -3.027122    0.393401    0.382420
     11          1           0       -3.338797   -1.250746   -0.233222
     12          1           0       -2.301053   -1.019250    1.198373
     13          1           0       -0.501908    2.380747   -0.887302
     14          1           0       -0.906076    2.170607    0.858819
     15          1           0        1.941959    1.815336    0.537840
     16          1           0        0.999088    0.631586   -1.973808
     17          1           0        1.287492   -1.907034   -1.109134
     18          1           0        2.744359   -0.968613   -0.676471
     19          1           0        0.134194    0.072224    2.046910
 ---------------------------------------------------------------------

 SCF Done:  E(RB3LYP) =  -423.132564296     A.U. after    1 cycles

 The electronic state is 1-A.
 Alpha  occ. eigenvalues --  -19.14943 -19.13302 -10.24250 -10.23242 -10.22784
 Alpha  occ. eigenvalues --  -10.22172 -10.19894 -10.19609 -10.18808  -1.05331
 Alpha  occ. eigenvalues --   -1.03249  -0.89480  -0.73135  -0.70402  -0.66323
 Alpha  occ. eigenvalues --   -0.60794  -0.59287  -0.55018  -0.52045  -0.48679
 Alpha  occ. eigenvalues --   -0.46674  -0.45338  -0.44012  -0.42697  -0.39589
 Alpha  occ. eigenvalues --   -0.38011  -0.36292  -0.34145  -0.33790  -0.32311
 Alpha  occ. eigenvalues --   -0.31669  -0.29771  -0.26847  -0.22516
 Alpha virt. eigenvalues --    0.09624   0.10754   0.11704   0.12646   0.13484
 Alpha virt. eigenvalues --    0.14143   0.14772   0.15166   0.16357   0.16568
 Alpha virt. eigenvalues --    0.17226   0.17801   0.18839   0.19492   0.20811

 Mulliken charges:
               1
     1  C   -0.264859
     2  O   -0.295510
     3  C    0.421697
     4  C   -0.324591
     5  C   -0.104089
     6  C   -0.118720
     7  C   -0.112777
     8  O   -0.283165
     9  C    0.069226
    10  H    0.113265
    11  H    0.130576
    12  H    0.117360
    13  H    0.100675
    14  H    0.092812
    15  H    0.083981
    16  H    0.077500
    17  H    0.111523
    18  H    0.100833
    19  H    0.084263
 Sum of Mulliken charges =   0.00000

 Dipole moment (field-independent basis, Debye):
    X=             -0.6529    Y=              1.3448    Z=             -0.0694  Tot=              1.4965
 Quadrupole moment (field-independent basis, Debye-Ang):
   XX=            -50.0688   YY=            -54.4924   ZZ=            -52.9962
   XY=              1.6440   XZ=             -4.3973   YZ=              1.3988

  Exact polarizability:  82.578  -1.373  74.489  -4.037   1.937  67.701
 Approx polarizability: 111.121  -1.493 108.806  -3.055   2.130 107.280

                      1                      2                      3
                      A                      A                      A
 Frequencies --     67.9399               164.8565               190.6900
 Red. masses --      2.7437                 1.1531                 2.6565
 Frc consts  --      0.0075                 0.0185                 0.0569
 IR Inten    --      2.9889                 0.0142                 3.7793

                      4                      5                      6
                      A                      A                      A
 Frequencies --    264.9351               296.2223               383.0394
 Red. masses --      3.9591                 2.9443                 2.3256
 Frc consts  --      0.1637                 0.1522                 0.2010
 IR Inten    --      3.9877                 1.8393                 1.5159

                      7                      8                      9
                      A                      A                      A
 Frequencies --    472.5622               489.8794               650.2833
 Red. masses --      2.9327                 3.1695                 4.1399
 Frc consts  --      0.3859                 0.4481                 1.0314
 IR Inten    --      0.4163                 0.9738                13.5898

                     10                     11                     12
                      A                      A                      A
 Frequencies --    701.2239               737.0074               782.9912
 Red. masses --      4.8305                 3.7734                 4.5473
 Frc consts  --      1.3995                 1.2076                 1.6425
 IR Inten    --      2.4170                 1.8726                14.2853

                     13                     14                     15
                      A                      A                      A
 Frequencies --    834.0652               908.3040               924.8450
 Red. masses --      2.7793                 2.0341                 2.2203
 Frc consts  --      1.1392                 0.9888                 1.1189
 IR Inten    --      2.0727                 2.2173                 2.2119

                     16                     17                     18
                      A                      A                      A
 Frequencies --    950.2110               958.3205               991.5594
 Red. masses --      2.4301                 1.6611                 1.5239
 Frc consts  --      1.2928                 0.8988                 0.8828
 IR Inten    --     17.5108                10.5289                 7.1476

                     19                     20                     21
                      A                      A                      A
 Frequencies --   1004.6660              1029.9086              1044.8030
 Red. masses --      2.7648                 1.9788                 1.8471
 Frc consts  --      1.6442                 1.2367                 1.1880
 IR Inten    --      7.6648                 1.0596                18.1957

                     22                     23                     24
                      A                      A                      A
 Frequencies --   1076.6849              1086.4624              1098.9966
 Red. masses --      4.3673                 1.9702                 2.9374
 Frc consts  --      2.9829                 1.3702                 2.0903
 IR Inten    --     88.5937                35.5404                21.7008

                     25                     26                     27
                      A                      A                      A
 Frequencies --   1123.3849              1149.0468              1181.1372
 Red. masses --      1.5948                 1.5563                 1.2844
 Frc consts  --      1.1858                 1.2106                 1.0557
 IR Inten    --      2.0426                 1.5577                 2.0500

                     28                     29                     30
                      A                      A                      A
 Frequencies --   1184.5231              1198.3571              1214.8799
 Red. masses --      1.3744                 1.6321                 1.7690
 Frc consts  --      1.1362                 1.3809                 1.5383
 IR Inten    --      5.1238                 6.5063                14.7876

                     31                     32                     33
                      A                      A                      A
 Frequencies --   1222.1640              1243.3098              1278.3322
 Red. masses --      1.6397                 1.6884                 1.6217
 Frc consts  --      1.4430                 1.5378                 1.5614
 IR Inten    --      4.4561                 0.8783                 9.5516

                     34                     35                     36
                      A                      A                      A
 Frequencies --   1294.3249              1339.4998              1395.3367
 Red. masses --      2.2457                 1.9938                 1.6713
 Frc consts  --      2.2166                 2.1078                 1.9172
 IR Inten    --    138.1045                96.6789                44.8916

                     37                     38                     39
                      A                      A                      A
 Frequencies --   1485.8347              1489.2068              1505.0286
 Red. masses --      1.1834                 1.0501                 1.0505
 Frc consts  --      1.5393                 1.3721                 1.4020
 IR Inten    --      3.0325                 4.9588                12.6683

                     40                     41                     42
                      A                      A                      A
 Frequencies --   1519.4332              1522.1610              2995.4546
 Red. masses --      1.1057                 1.1987                 1.0351
 Frc consts  --      1.5041                 1.6364                 5.4720
 IR Inten    --      0.9681                10.7843                46.5050

                     43                     44                     45
                      A                      A                      A
 Frequencies --   3023.3629              3049.4823              3054.7513
 Red. masses --      1.0561                 1.0954                 1.0633
 Frc consts  --      5.6878                 6.0014                 5.8460
 IR Inten    --     66.5241                17.0142                66.9666

                     46                     47                     48
                      A                      A                      A
 Frequencies --   3063.5360              3117.4652              3125.1164
 Red. masses --      1.1097                 1.1097                 1.0974
 Frc consts  --      6.1360                 6.3542                 6.3146
 IR Inten    --     32.5038                19.8490                23.3150

                     49                     50                     51
                      A                      A                      A
 Frequencies --   3126.1673              3136.0449              3153.3951
 Red. masses --      1.0894                 1.0888                 1.0951
 Frc consts  --      6.2726                 6.3091                 6.4158
 IR Inten    --     42.4895                27.1005                24.6736

 - Thermochemistry -
 -------------------
 Temperature   298.150 Kelvin.  Pressure   1.00000 Atm.
 Atom     1 has atomic number  6 and mass  12.00000

 Molecular mass:   126.06808 amu.
 Principal axes and moments of inertia in atomic units:
                           1         2         3
     Eigenvalues --   646.141841101.184441316.67799
           X            0.99919   0.01055  -0.03896
           Y           -0.00955   0.99962   0.02588
           Z            0.03922  -0.02548   0.99891
 This molecule is an asymmetric top.
 Rotational symmetry number  1.
 Warning -- assumption of classical behavior for rotation
           may cause significant error
 Rotational temperatures (Kelvin)      0.13405     0.07866     0.06578
 Rotational constants (GHZ):           2.79310     1.63891     1.37068
 Zero-point vibrational energy     420494.5 (Joules/Mol)
                                  100.50060 (Kcal/Mol)
 Warning -- explicit consideration of   8 degrees of freedom as
           vibrations may cause significant error
 Vibrational temperatures:     97.75   237.19   274.36   381.18   426.20
          (Kelvin)            551.11   679.91   704.83   935.61  1008.90
                             1060.39  1126.55  1200.03  1306.85  1330.64
                             1367.14  1378.81  1426.63  1445.49  1481.81
                             1503.24  1549.11  1563.18  1581.21  1616.30
                             1653.22  1699.39  1704.26  1724.17  1747.94
                             1758.42  1788.84  1839.23  1862.24  1927.24
                             2007.58  2137.78  2142.63  2165.40  2186.12
                             2190.05  4309.79  4349.94  4387.52  4395.10
                             4407.74  4485.33  4496.34  4497.85  4512.06
                             4537.03

 Zero-point correction=                           0.160158 (Hartree/Particle)
 Thermal correction to Energy=                    0.167786
 Thermal correction to Enthalpy=                  0.168730
 Thermal correction to Gibbs Free Energy=         0.127842
 Sum of electronic and zero-point Energies=           -422.972406
 Sum of electronic and thermal Energies=              -422.964779
 Sum of electronic and thermal Enthalpies=            -422.963835
 Sum of electronic and thermal Free Energies=         -423.004722

                     E (Thermal)             CV                S
                      KCal/Mol        Cal/Mol-Kelvin    Cal/Mol-Kelvin
 Total                  105.287             29.713             86.056
 Electronic               0.000              0.000              0.000
 Translational            0.889              2.981             40.409
 Rotational               0.889              2.981             28.329
 Vibrational            103.510             23.752             17.318
 Vibration     1          0.598              1.970              4.212
 Vibration     2          0.623              1.886              2.493
 Vibration     3          0.634              1.853              2.221
 Vibration     4          0.671              1.737              1.629
 Vibration     5          0.690              1.681              1.438
 Vibration     6          0.752              1.506              1.027
 Vibration     7          0.829              1.311              0.730
 Vibration     8          0.846              1.272              0.684

 Normal termination of Gaussian 09 at Tue Jan 28 10:47:43 2020.
