 Gaussian 09, Revision D.01,
 Gaussian 09:  ES64L-G09RevD.01 24-Apr-2013

 -----------------------------
 # b3lyp 6-31G(2df,p) opt Freq
 -----------------------------

 -----
 titel
 -----
 Symbolic Z-matrix:
 Charge =  0 Multiplicity = 1

 SCF Done:  E(RB3LYP) =  -423.115855751     A.U. after   13 cycles
 Optimization completed.
    -- Stationary point found.
 Normal termination of Gaussian 09 at Tue Jan 28 12:07:17 2020.

 ----------------------------------------------------------------------
 #N Geom=AllCheck Guess=TCheck SCRF=Check GenChk RB3LYP/6-31G(2df,p) Fr
 eq
 ----------------------------------------------------------------------

 Structure from the checkpoint file:  "/scratch/puck/g09_2a11f971-42f3-42b4-800a-25854453af8d/Gau-1140.chk"
 -----
 titel
 -----
 Charge =  0 Multiplicity = 1

                         Standard orientation:
 ---------------------------------------------------------------------
 Center     Atomic      Atomic             Coordinates (Angstroms)
 Number     Number       Type             X           Y           Z
 ---------------------------------------------------------------------
      1          6           0       -4.180131   -0.231917   -0.218876
      2          8           0       -2.787579   -0.348887   -0.399024
      3          6           0       -2.067376    0.480182    0.492249
      4          6           0       -0.635218    0.325204    0.279999
      5          6           0        0.552709    0.199600    0.129569
      6          6           0        1.978340    0.087221   -0.071640
      7          6           0        2.706254    1.373352   -0.403546
      8          6           0        2.533173   -1.214838   -0.499514
      9          8           0        2.668036   -0.783791    0.849568
     10          1           0       -4.488061   -0.525490    0.797414
     11          1           0       -4.532030    0.796474   -0.399681
     12          1           0       -4.655816   -0.900336   -0.939690
     13          1           0       -2.352605    1.537616    0.350160
     14          1           0       -2.314607    0.228240    1.538671
     15          1           0        3.774398    1.178776   -0.526894
     16          1           0        2.312437    1.810231   -1.326089
     17          1           0        2.575054    2.102758    0.401074
     18          1           0        1.860312   -2.054732   -0.661257
     19          1           0        3.450758   -1.224937   -1.087507
 ---------------------------------------------------------------------

 SCF Done:  E(RB3LYP) =  -423.115855751     A.U. after    1 cycles

 The electronic state is 1-A.
 Alpha  occ. eigenvalues --  -19.15307 -19.14695 -10.26383 -10.25527 -10.23704
 Alpha  occ. eigenvalues --  -10.22908 -10.18718 -10.18300 -10.17974  -1.07412
 Alpha  occ. eigenvalues --   -1.04063  -0.78818  -0.75859  -0.71068  -0.66554
 Alpha  occ. eigenvalues --   -0.65616  -0.61554  -0.52319  -0.49789  -0.49093
 Alpha  occ. eigenvalues --   -0.48468  -0.47768  -0.43476  -0.41191  -0.40745
 Alpha  occ. eigenvalues --   -0.40715  -0.39114  -0.37965  -0.33169  -0.32576
 Alpha  occ. eigenvalues --   -0.27791  -0.27203  -0.25862  -0.25234
 Alpha virt. eigenvalues --    0.01981   0.04123   0.09244   0.10597   0.11516
 Alpha virt. eigenvalues --    0.13553   0.14111   0.14719   0.15572   0.15647
 Alpha virt. eigenvalues --    0.16437   0.16729   0.18270   0.18953   0.20595

 Mulliken charges:
               1
     1  C   -0.219109
     2  O   -0.228005
     3  C   -0.206833
     4  C    0.043270
     5  C    0.117065
     6  C    0.211664
     7  C   -0.467339
     8  C   -0.207797
     9  O   -0.257797
    10  H    0.106319
    11  H    0.105154
    12  H    0.132187
    13  H    0.115570
    14  H    0.119781
    15  H    0.128333
    16  H    0.132388
    17  H    0.136120
    18  H    0.124585
    19  H    0.114442
 Sum of Mulliken charges =   0.00000

 Dipole moment (field-independent basis, Debye):
    X=             -1.1842    Y=              1.1249    Z=             -0.8700  Tot=              1.8505
 Quadrupole moment (field-independent basis, Debye-Ang):
   XX=            -44.1389   YY=            -51.6514   ZZ=            -54.6553
   XY=             -0.2386   XZ=             -7.1108   YZ=              1.8127

  Exact polarizability: 120.469  -4.386  71.067  -5.612   2.893  60.127
 Approx polarizability: 156.857 -11.882 100.300  -6.441   4.222  92.957

                      1                      2                      3
                      A                      A                      A
 Frequencies --     25.9730                67.1199                73.4746
 Red. masses --      2.7675                 3.0813                 3.1620
 Frc consts  --      0.0011                 0.0082                 0.0101
 IR Inten    --      2.2730                 3.2847                 4.3871

                      4                      5                      6
                      A                      A                      A
 Frequencies --    122.1570               184.1093               212.3924
 Red. masses --      3.6613                 1.9495                 1.5299
 Frc consts  --      0.0322                 0.0389                 0.0407
 IR Inten    --      1.2776                 0.2766                 0.5867

                      7                      8                      9
                      A                      A                      A
 Frequencies --    232.9111               294.9267               314.6225
 Red. masses --      1.1671                 3.0654                 3.9574
 Frc consts  --      0.0373                 0.1571                 0.2308
 IR Inten    --      3.0082                 0.9094                 3.2904

                     10                     11                     12
                      A                      A                      A
 Frequencies --    356.0220               386.7612               462.3785
 Red. masses --      2.5848                 3.2354                 4.4401
 Frc consts  --      0.1930                 0.2851                 0.5593
 IR Inten    --      2.0761                 3.0904                 1.0310

                     13                     14                     15
                      A                      A                      A
 Frequencies --    553.3845               559.4312               663.5139
 Red. masses --      6.9444                 5.4030                 4.7586
 Frc consts  --      1.2530                 0.9963                 1.2343
 IR Inten    --      8.1351                 4.6401                 2.0520

                     16                     17                     18
                      A                      A                      A
 Frequencies --    796.4388               871.3386               925.5752
 Red. masses --      4.1524                 2.5424                 1.6144
 Frc consts  --      1.5519                 1.1373                 0.8148
 IR Inten    --     19.4305                22.1023                 2.9057

                     19                     20                     21
                      A                      A                      A
 Frequencies --    976.3296              1023.1082              1030.3439
 Red. masses --      4.4903                 1.7389                 1.9531
 Frc consts  --      2.5219                 1.0724                 1.2216
 IR Inten    --     35.8455                 3.2820                 5.1213

                     22                     23                     24
                      A                      A                      A
 Frequencies --   1068.7958              1097.9321              1137.2796
 Red. masses --      2.4494                 1.6924                 1.3296
 Frc consts  --      1.6485                 1.2020                 1.0132
 IR Inten    --     15.7209                13.7114                 2.0344

                     25                     26                     27
                      A                      A                      A
 Frequencies --   1150.0083              1166.9979              1182.6989
 Red. masses --      6.1300                 1.3304                 1.2790
 Frc consts  --      4.7765                 1.0675                 1.0540
 IR Inten    --    176.3958                 1.0406                 3.0874

                     28                     29                     30
                      A                      A                      A
 Frequencies --   1219.8201              1254.1185              1289.4387
 Red. masses --      1.5686                 1.0818                 3.7001
 Frc consts  --      1.3752                 1.0025                 3.6246
 IR Inten    --     42.2182                 4.5757                44.4502

                     31                     32                     33
                      A                      A                      A
 Frequencies --   1368.0056              1409.0051              1411.6059
 Red. masses --      3.1717                 1.3482                 1.3528
 Frc consts  --      3.4971                 1.5770                 1.5883
 IR Inten    --     22.4069                60.5090                77.4237

                     34                     35                     36
                      A                      A                      A
 Frequencies --   1476.9167              1478.4700              1484.8570
 Red. masses --      1.1569                 1.0469                 1.0466
 Frc consts  --      1.4869                 1.3482                 1.3596
 IR Inten    --      0.4098                 3.9276                 5.3847

                     37                     38                     39
                      A                      A                      A
 Frequencies --   1494.0407              1494.4543              1515.8952
 Red. masses --      1.0715                 1.0604                 1.0758
 Frc consts  --      1.4092                 1.3954                 1.4565
 IR Inten    --      3.6004                 0.4748                 3.6116

                     40                     41                     42
                      A                      A                      A
 Frequencies --   1520.4676              2368.3799              2943.6865
 Red. masses --      1.2492                11.9427                 1.0533
 Frc consts  --      1.7015                39.4690                 5.3776
 IR Inten    --      1.9516                 1.2884                28.4378

                     43                     44                     45
                      A                      A                      A
 Frequencies --   2961.5844              2969.3667              3012.2222
 Red. masses --      1.1024                 1.0382                 1.1031
 Frc consts  --      5.6970                 5.3934                 5.8972
 IR Inten    --     42.4557                78.2684                57.2832

                     46                     47                     48
                      A                      A                      A
 Frequencies --   3044.5726              3080.6661              3115.9546
 Red. masses --      1.0344                 1.0507                 1.1015
 Frc consts  --      5.6494                 5.8752                 6.3010
 IR Inten    --     14.0200                26.5446                13.4150

                     49                     50                     51
                      A                      A                      A
 Frequencies --   3121.9740              3129.5516              3174.7393
 Red. masses --      1.0956                 1.1027                 1.1193
 Frc consts  --      6.2914                 6.3634                 6.6469
 IR Inten    --     24.7367                16.6346                20.6498

 - Thermochemistry -
 -------------------
 Temperature   298.150 Kelvin.  Pressure   1.00000 Atm.
 Atom     1 has atomic number  6 and mass  12.00000

 Molecular mass:   126.06808 amu.
 Principal axes and moments of inertia in atomic units:
                           1         2         3
     Eigenvalues --   385.581763095.428393255.57688
           X            0.99989   0.00656  -0.01303
           Y           -0.00615   0.99950   0.03106
           Z            0.01322  -0.03097   0.99943
 This molecule is an asymmetric top.
 Rotational symmetry number  1.
 Rotational temperatures (Kelvin)      0.22463     0.02798     0.02660
 Rotational constants (GHZ):           4.68057     0.58303     0.55435
 Zero-point vibrational energy     408380.1 (Joules/Mol)
                                   97.60518 (Kcal/Mol)
 Warning -- explicit consideration of  14 degrees of freedom as
           vibrations may cause significant error
 Vibrational temperatures:     37.37    96.57   105.71   175.76   264.89
          (Kelvin)            305.58   335.11   424.33   452.67   512.24
                              556.46   665.26   796.20   804.90   954.65
                             1145.90  1253.66  1331.69  1404.72  1472.02
                             1482.43  1537.76  1579.68  1636.29  1654.60
                             1679.05  1701.64  1755.05  1804.39  1855.21
                             1968.25  2027.24  2030.98  2124.95  2127.19
                             2136.38  2149.59  2150.18  2181.03  2187.61
                             3407.57  4235.30  4261.05  4272.25  4333.91
                             4380.46  4432.39  4483.16  4491.82  4502.72
                             4567.74

 Zero-point correction=                           0.155544 (Hartree/Particle)
 Thermal correction to Energy=                    0.165966
 Thermal correction to Enthalpy=                  0.166910
 Thermal correction to Gibbs Free Energy=         0.118335
 Sum of electronic and zero-point Energies=           -422.960312
 Sum of electronic and thermal Energies=              -422.949890
 Sum of electronic and thermal Enthalpies=            -422.948946
 Sum of electronic and thermal Free Energies=         -422.997521

                     E (Thermal)             CV                S
                      KCal/Mol        Cal/Mol-Kelvin    Cal/Mol-Kelvin
 Total                  104.145             35.830            102.234
 Electronic               0.000              0.000              0.000
 Translational            0.889              2.981             40.409
 Rotational               0.889              2.981             29.742
 Vibrational            102.368             29.868             32.083
 Vibration     1          0.593              1.985              6.115
 Vibration     2          0.598              1.970              4.236
 Vibration     3          0.599              1.967              4.058
 Vibration     4          0.610              1.931              3.066
 Vibration     5          0.631              1.861              2.286
 Vibration     6          0.643              1.822              2.023
 Vibration     7          0.654              1.791              1.856
 Vibration     8          0.689              1.683              1.446
 Vibration     9          0.702              1.646              1.338
 Vibration    10          0.732              1.563              1.139
 Vibration    11          0.755              1.498              1.013
 Vibration    12          0.820              1.334              0.759
 Vibration    13          0.909              1.132              0.537
 Vibration    14          0.915              1.119              0.525

 Optimization completed.
    -- Stationary point found.
 Normal termination of Gaussian 09 at Tue Jan 28 12:44:16 2020.
