 Gaussian 09, Revision D.01,
 Gaussian 09:  ES64L-G09RevD.01 24-Apr-2013

 -----------------------------
 # b3lyp 6-31G(2df,p) opt Freq
 -----------------------------

 -----
 titel
 -----
 Symbolic Z-matrix:
 Charge =  0 Multiplicity = 1

 SCF Done:  E(RB3LYP) =  -423.133555823     A.U. after   14 cycles
 Optimization completed.
    -- Stationary point found.
 Normal termination of Gaussian 09 at Mon Jan 27 14:27:58 2020.

 ----------------------------------------------------------------------
 #N Geom=AllCheck Guess=TCheck SCRF=Check GenChk RB3LYP/6-31G(2df,p) Fr
 eq
 ----------------------------------------------------------------------

 Structure from the checkpoint file:  "/scratch/puck/g09_585bfe79-e83e-4477-bc52-eb61ddc87f0d/Gau-41415.chk"
 -----
 titel
 -----
 Charge =  0 Multiplicity = 1

                         Standard orientation:
 ---------------------------------------------------------------------
 Center     Atomic      Atomic             Coordinates (Angstroms)
 Number     Number       Type             X           Y           Z
 ---------------------------------------------------------------------
      1          6           0       -2.977170    1.349492    0.217997
      2          6           0       -2.549104    0.035941   -0.452932
      3          8           0       -3.300940   -1.072995    0.034128
      4          6           0       -1.105249   -0.185828   -0.321776
      5          6           0        0.075360   -0.370745   -0.161270
      6          6           0        1.480218   -0.622060    0.006719
      7          8           0        2.116357   -0.100397    1.190406
      8          6           0        2.488145    0.458631   -0.066645
      9          6           0        3.895809    0.209052   -0.539576
     10          1           0       -2.730371    1.332633    1.284326
     11          1           0       -2.466544    2.203940   -0.235519
     12          1           0       -4.057126    1.476352    0.107399
     13          1           0       -2.801970    0.087805   -1.519133
     14          1           0       -3.000135   -1.252144    0.932169
     15          1           0        1.809401   -1.627241   -0.256668
     16          1           0        2.104094    1.467011   -0.226917
     17          1           0        4.185163   -0.831344   -0.369071
     18          1           0        3.987566    0.430767   -1.607992
     19          1           0        4.598528    0.852460    0.000033
 ---------------------------------------------------------------------

 SCF Done:  E(RB3LYP) =  -423.133555823     A.U. after    1 cycles

 The electronic state is 1-A.
 Alpha  occ. eigenvalues --  -19.15552 -19.14014 -10.25842 -10.25829 -10.24742
 Alpha  occ. eigenvalues --  -10.18978 -10.18440 -10.18289 -10.18190  -1.07615
 Alpha  occ. eigenvalues --   -1.02358  -0.78712  -0.75169  -0.74735  -0.68091
 Alpha  occ. eigenvalues --   -0.63411  -0.60564  -0.54581  -0.51927  -0.48051
 Alpha  occ. eigenvalues --   -0.46756  -0.44207  -0.43695  -0.41400  -0.39972
 Alpha  occ. eigenvalues --   -0.39045  -0.38070  -0.37858  -0.34739  -0.33303
 Alpha  occ. eigenvalues --   -0.28454  -0.27779  -0.26654  -0.25233
 Alpha virt. eigenvalues --    0.01561   0.03604   0.08917   0.10707   0.11890
 Alpha virt. eigenvalues --    0.12537   0.12939   0.14407   0.15851   0.16337
 Alpha virt. eigenvalues --    0.16677   0.17025   0.17534   0.18702   0.21894

 Mulliken charges:
               1
     1  C   -0.384641
     2  C   -0.023043
     3  O   -0.412518
     4  C    0.162610
     5  C    0.014127
     6  C   -0.171261
     7  O   -0.241925
     8  C    0.094191
     9  C   -0.419732
    10  H    0.121686
    11  H    0.125016
    12  H    0.126599
    13  H    0.119788
    14  H    0.284227
    15  H    0.113599
    16  H    0.099953
    17  H    0.129941
    18  H    0.127655
    19  H    0.133726
 Sum of Mulliken charges =   0.00000

 Dipole moment (field-independent basis, Debye):
    X=              1.0064    Y=              0.9925    Z=             -0.9094  Tot=              1.6808
 Quadrupole moment (field-independent basis, Debye-Ang):
   XX=            -51.5002   YY=            -52.0481   ZZ=            -53.9048
   XY=             -3.1411   XZ=             -6.0633   YZ=             -1.8208

  Exact polarizability: 123.876  -0.172  67.602   0.764  -1.478  60.634
 Approx polarizability: 162.579   1.410  97.524   8.781  -3.362  95.854

                      1                      2                      3
                      A                      A                      A
 Frequencies --     25.2183                70.5010                80.4233
 Red. masses --      3.7302                 3.9698                 4.0991
 Frc consts  --      0.0014                 0.0116                 0.0156
 IR Inten    --      2.6276                 0.1458                 2.6113

                      4                      5                      6
                      A                      A                      A
 Frequencies --    166.9680               192.5587               206.1495
 Red. masses --      2.7895                 2.4981                 1.2836
 Frc consts  --      0.0458                 0.0546                 0.0321
 IR Inten    --      1.6362                 0.8688                 0.4651

                      7                      8                      9
                      A                      A                      A
 Frequencies --    251.6600               294.2360               320.8229
 Red. masses --      1.1213                 1.1517                 3.4550
 Frc consts  --      0.0418                 0.0587                 0.2095
 IR Inten    --      0.8227                99.1928                 0.5571

                     10                     11                     12
                      A                      A                      A
 Frequencies --    346.1864               397.6938               464.3413
 Red. masses --      3.7351                 3.2560                 4.1715
 Frc consts  --      0.2637                 0.3034                 0.5299
 IR Inten    --     11.2261                 3.3161                21.8452

                     13                     14                     15
                      A                      A                      A
 Frequencies --    517.7366               557.2300               603.2383
 Red. masses --      4.6365                 5.8056                 4.9575
 Frc consts  --      0.7322                 1.0621                 1.0629
 IR Inten    --      8.7127                 9.3282                 8.1018

                     16                     17                     18
                      A                      A                      A
 Frequencies --    749.4103               784.9410               862.5305
 Red. masses --      3.3239                 4.1751                 2.6625
 Frc consts  --      1.0998                 1.5156                 1.1670
 IR Inten    --      3.1432                14.0824                26.0612

                     19                     20                     21
                      A                      A                      A
 Frequencies --    903.4683               954.3980              1019.4501
 Red. masses --      2.5868                 2.3465                 1.8336
 Frc consts  --      1.2440                 1.2593                 1.1228
 IR Inten    --     15.1618                13.8015                52.0007

                     22                     23                     24
                      A                      A                      A
 Frequencies --   1039.5950              1064.5773              1078.0568
 Red. masses --      1.5548                 1.4675                 1.9134
 Frc consts  --      0.9901                 0.9799                 1.3102
 IR Inten    --     18.8312                 4.4251                 6.3253

                     25                     26                     27
                      A                      A                      A
 Frequencies --   1102.3564              1161.1554              1169.6088
 Red. masses --      2.8064                 1.7820                 1.5331
 Frc consts  --      2.0093                 1.4156                 1.2357
 IR Inten    --     56.3174                 8.8295                 4.6200

                     28                     29                     30
                      A                      A                      A
 Frequencies --   1184.9711              1275.8959              1282.9525
 Red. masses --      2.6987                 1.4498                 1.3772
 Frc consts  --      2.2327                 1.3905                 1.3356
 IR Inten    --     56.0537                 4.7327                 7.5407

                     31                     32                     33
                      A                      A                      A
 Frequencies --   1336.2325              1353.4523              1399.1376
 Red. masses --      1.3772                 1.2156                 1.2350
 Frc consts  --      1.4488                 1.3120                 1.4244
 IR Inten    --     24.8840                40.2901                 5.2382

                     34                     35                     36
                      A                      A                      A
 Frequencies --   1410.2105              1417.2208              1458.8398
 Red. masses --      1.2552                 1.1922                 1.8993
 Frc consts  --      1.4708                 1.4108                 2.3815
 IR Inten    --      4.0194                91.4775                13.4503

                     37                     38                     39
                      A                      A                      A
 Frequencies --   1484.5326              1487.7410              1491.7537
 Red. masses --      1.0928                 1.0509                 1.0579
 Frc consts  --      1.4189                 1.3704                 1.3870
 IR Inten    --      7.1530                 6.7885                 1.1055

                     40                     41                     42
                      A                      A                      A
 Frequencies --   1499.5988              2354.1277              3036.2198
 Red. masses --      1.2118                11.9035                 1.0769
 Frc consts  --      1.6056                38.8675                 5.8494
 IR Inten    --      3.1272                 1.6204                13.3434

                     43                     44                     45
                      A                      A                      A
 Frequencies --   3038.1799              3041.0704              3100.4795
 Red. masses --      1.0355                 1.0397                 1.0892
 Frc consts  --      5.6313                 5.6650                 6.1692
 IR Inten    --     19.0498                15.6173                 3.9238

                     46                     47                     48
                      A                      A                      A
 Frequencies --   3104.5830              3109.1421              3116.1957
 Red. masses --      1.1006                 1.0864                 1.1017
 Frc consts  --      6.2502                 6.1877                 6.3031
 IR Inten    --     14.2900                20.9949                23.0472

                     49                     50                     51
                      A                      A                      A
 Frequencies --   3126.7473              3128.3855              3803.1622
 Red. masses --      1.0996                 1.1032                 1.0661
 Frc consts  --      6.3338                 6.3612                 9.0854
 IR Inten    --     33.3106                21.9262                19.7401

 - Thermochemistry -
 -------------------
 Temperature   298.150 Kelvin.  Pressure   1.00000 Atm.
 Atom     1 has atomic number  6 and mass  12.00000

 Molecular mass:   126.06808 amu.
 Principal axes and moments of inertia in atomic units:
                           1         2         3
     Eigenvalues --   376.116163129.461483231.04417
           X            0.99984  -0.01191  -0.01335
           Y            0.01182   0.99991  -0.00661
           Z            0.01342   0.00645   0.99989
 This molecule is an asymmetric top.
 Rotational symmetry number  1.
 Rotational temperatures (Kelvin)      0.23028     0.02768     0.02681
 Rotational constants (GHZ):           4.79836     0.57669     0.55856
 Zero-point vibrational energy     409274.4 (Joules/Mol)
                                   97.81894 (Kcal/Mol)
 Warning -- explicit consideration of  15 degrees of freedom as
           vibrations may cause significant error
 Vibrational temperatures:     36.28   101.44   115.71   240.23   277.05
          (Kelvin)            296.60   362.08   423.34   461.59   498.08
                              572.19   668.08   744.91   801.73   867.92
                             1078.23  1129.35  1240.99  1299.89  1373.16
                             1466.76  1495.74  1531.69  1551.08  1586.04
                             1670.64  1682.80  1704.91  1835.73  1845.88
                             1922.54  1947.31  2013.04  2028.98  2039.06
                             2098.94  2135.91  2140.52  2146.30  2157.59
                             3387.06  4368.44  4371.26  4375.42  4460.89
                             4466.80  4473.36  4483.50  4498.69  4501.04
                             5471.90

 Zero-point correction=                           0.155884 (Hartree/Particle)
 Thermal correction to Energy=                    0.166328
 Thermal correction to Enthalpy=                  0.167272
 Thermal correction to Gibbs Free Energy=         0.118972
 Sum of electronic and zero-point Energies=           -422.977671
 Sum of electronic and thermal Energies=              -422.967228
 Sum of electronic and thermal Enthalpies=            -422.966283
 Sum of electronic and thermal Free Energies=         -423.014584

                     E (Thermal)             CV                S
                      KCal/Mol        Cal/Mol-Kelvin    Cal/Mol-Kelvin
 Total                  104.373             36.692            101.657
 Electronic               0.000              0.000              0.000
 Translational            0.889              2.981             40.409
 Rotational               0.889              2.981             29.721
 Vibrational            102.595             30.730             31.527
 Vibration     1          0.593              1.985              6.174
 Vibration     2          0.598              1.968              4.139
 Vibration     3          0.600              1.962              3.881
 Vibration     4          0.624              1.883              2.469
 Vibration     5          0.635              1.850              2.203
 Vibration     6          0.641              1.831              2.078
 Vibration     7          0.664              1.760              1.719
 Vibration     8          0.689              1.684              1.449
 Vibration     9          0.706              1.634              1.306
 Vibration    10          0.724              1.583              1.183
 Vibration    11          0.764              1.475              0.971
 Vibration    12          0.822              1.329              0.754
 Vibration    13          0.873              1.211              0.615
 Vibration    14          0.913              1.124              0.529
 Vibration    15          0.962              1.025              0.444

 Normal termination of Gaussian 09 at Mon Jan 27 14:59:03 2020.
