 Gaussian 09, Revision D.01,
 Gaussian 09:  ES64L-G09RevD.01 24-Apr-2013

 -----------------------------
 # b3lyp 6-31G(2df,p) opt Freq
 -----------------------------

 -----
 titel
 -----
 Symbolic Z-matrix:
 Charge =  0 Multiplicity = 1

 SCF Done:  E(RB3LYP) =  -423.116364349     A.U. after   13 cycles
 Optimization completed.
    -- Stationary point found.
 Normal termination of Gaussian 09 at Mon Jan 27 18:42:57 2020.

 ----------------------------------------------------------------------
 #N Geom=AllCheck Guess=TCheck SCRF=Check GenChk RB3LYP/6-31G(2df,p) Fr
 eq
 ----------------------------------------------------------------------

 Structure from the checkpoint file:  "/scratch/puck/g09_f796d514-ccec-4db5-8671-f4d47e3b545e/Gau-43817.chk"
 -----
 titel
 -----
 Charge =  0 Multiplicity = 1

                         Standard orientation:
 ---------------------------------------------------------------------
 Center     Atomic      Atomic             Coordinates (Angstroms)
 Number     Number       Type             X           Y           Z
 ---------------------------------------------------------------------
      1          8           0        1.280121    1.884714   -0.207827
      2          6           0        0.951981    0.545287   -0.159094
      3          6           0        1.869381   -0.593476   -0.605009
      4          8           0        1.427538   -1.419654    0.508953
      5          6           0        0.634537   -0.345223    1.022267
      6          6           0       -0.446939    0.022780    0.046499
      7          6           0       -1.644402    0.894477    0.449594
      8          6           0       -2.571894   -0.243667   -0.074917
      9          6           0       -1.345802   -0.924828   -0.756487
     10          1           0        0.780236    2.296908   -0.921225
     11          1           0        1.681428   -1.066077   -1.576358
     12          1           0        2.931319   -0.343063   -0.503513
     13          1           0        0.599210   -0.192645    2.095376
     14          1           0       -1.732135    1.166902    1.504756
     15          1           0       -1.722574    1.811919   -0.144403
     16          1           0       -2.981945   -0.847966    0.737332
     17          1           0       -3.391338    0.060037   -0.729379
     18          1           0       -1.199340   -1.991125   -0.572214
     19          1           0       -1.307307   -0.747478   -1.836505
 ---------------------------------------------------------------------

 SCF Done:  E(RB3LYP) =  -423.116364349     A.U. after    1 cycles

 The electronic state is 1-A.
 Alpha  occ. eigenvalues --  -19.15687 -19.13679 -10.23918 -10.23044 -10.22943
 Alpha  occ. eigenvalues --  -10.19503 -10.18855 -10.18546 -10.18136  -1.05720
 Alpha  occ. eigenvalues --   -1.03012  -0.85770  -0.78427  -0.69616  -0.66462
 Alpha  occ. eigenvalues --   -0.61711  -0.56598  -0.55045  -0.51541  -0.48982
 Alpha  occ. eigenvalues --   -0.47444  -0.46415  -0.43011  -0.41014  -0.39012
 Alpha  occ. eigenvalues --   -0.37465  -0.35886  -0.34943  -0.34121  -0.32239
 Alpha  occ. eigenvalues --   -0.31444  -0.28574  -0.25076  -0.22457
 Alpha virt. eigenvalues --    0.05967   0.07687   0.08979   0.10537   0.11697
 Alpha virt. eigenvalues --    0.13046   0.14314   0.15586   0.16587   0.18016
 Alpha virt. eigenvalues --    0.18683   0.19129   0.19939   0.20368   0.22921

 Mulliken charges:
               1
     1  O   -0.447946
     2  C    0.214309
     3  C   -0.143445
     4  O   -0.286618
     5  C   -0.041494
     6  C    0.285230
     7  C   -0.302635
     8  C   -0.206769
     9  C   -0.303111
    10  H    0.290505
    11  H    0.101630
    12  H    0.114435
    13  H    0.108179
    14  H    0.106795
    15  H    0.090079
    16  H    0.110071
    17  H    0.099621
    18  H    0.116199
    19  H    0.094964
 Sum of Mulliken charges =   0.00000

 Dipole moment (field-independent basis, Debye):
    X=             -1.4451    Y=              1.1863    Z=             -1.3528  Tot=              2.3077
 Quadrupole moment (field-independent basis, Debye-Ang):
   XX=            -54.4622   YY=            -55.8904   ZZ=            -49.5685
   XY=             -0.2446   XZ=             -2.2207   YZ=             -1.5276

  Exact polarizability:  87.004  -1.960  70.764  -1.664   0.574  69.110
 Approx polarizability: 112.536  -2.488 106.987  -1.173  -3.842 106.799

                      1                      2                      3
                      A                      A                      A
 Frequencies --     80.4670               157.0617               166.7849
 Red. masses --      2.1940                 3.2375                 2.8495
 Frc consts  --      0.0084                 0.0471                 0.0467
 IR Inten    --      0.2611                 0.4988                 8.3511

                      4                      5                      6
                      A                      A                      A
 Frequencies --    206.6498               257.6323               292.3661
 Red. masses --      1.3646                 2.4221                 2.7163
 Frc consts  --      0.0343                 0.0947                 0.1368
 IR Inten    --     62.6920                 6.4622                33.8031

                      7                      8                      9
                      A                      A                      A
 Frequencies --    356.8388               427.1862               536.6574
 Red. masses --      2.8893                 2.6069                 3.6444
 Frc consts  --      0.2168                 0.2803                 0.6184
 IR Inten    --      0.5970                 3.0515                 6.2954

                     10                     11                     12
                      A                      A                      A
 Frequencies --    549.5649               683.6414               711.4429
 Red. masses --      3.9136                 3.7508                 1.4004
 Frc consts  --      0.6964                 1.0328                 0.4176
 IR Inten    --      2.5890                 1.9575                 2.1542

                     13                     14                     15
                      A                      A                      A
 Frequencies --    755.9689               805.5356               862.7816
 Red. masses --      2.8477                 1.3036                 2.5256
 Frc consts  --      0.9588                 0.4984                 1.1077
 IR Inten    --      5.1659                 1.6433                 1.3124

                     16                     17                     18
                      A                      A                      A
 Frequencies --    919.6638               934.8583               940.1956
 Red. masses --      2.1946                 2.6023                 2.7650
 Frc consts  --      1.0936                 1.3400                 1.4401
 IR Inten    --      4.7205                 1.4619                 6.1051

                     19                     20                     21
                      A                      A                      A
 Frequencies --    966.4155               997.8493              1016.3785
 Red. masses --      1.9292                 3.0325                 2.5035
 Frc consts  --      1.0616                 1.7790                 1.5238
 IR Inten    --     19.1136                37.3025                14.5704

                     22                     23                     24
                      A                      A                      A
 Frequencies --   1028.3571              1062.2070              1079.2624
 Red. masses --      2.5623                 1.4483                 2.6802
 Frc consts  --      1.5965                 0.9628                 1.8394
 IR Inten    --     35.3716                 9.4916                 0.6774

                     25                     26                     27
                      A                      A                      A
 Frequencies --   1133.8495              1144.2339              1150.1604
 Red. masses --      3.5572                 1.3329                 2.3323
 Frc consts  --      2.6945                 1.0282                 1.8179
 IR Inten    --     11.1231                 3.6404                 2.6375

                     28                     29                     30
                      A                      A                      A
 Frequencies --   1200.5654              1211.2177              1235.6811
 Red. masses --      1.5153                 1.3435                 1.2871
 Frc consts  --      1.2869                 1.1613                 1.1579
 IR Inten    --     10.8420                 1.4916                 6.1009

                     31                     32                     33
                      A                      A                      A
 Frequencies --   1250.4191              1262.8354              1277.3171
 Red. masses --      1.1997                 1.9332                 1.5327
 Frc consts  --      1.1052                 1.8164                 1.4734
 IR Inten    --      2.2943               102.9536                15.6384

                     34                     35                     36
                      A                      A                      A
 Frequencies --   1280.0738              1320.0939              1353.3368
 Red. masses --      1.5219                 1.4409                 2.4248
 Frc consts  --      1.4693                 1.4794                 2.6166
 IR Inten    --      3.1240                13.4756                20.0943

                     37                     38                     39
                      A                      A                      A
 Frequencies --   1468.8260              1478.6037              1482.9103
 Red. masses --      2.9714                 1.0898                 1.1675
 Frc consts  --      3.7771                 1.4037                 1.5126
 IR Inten    --     23.3784                 0.5909                 0.7456

                     40                     41                     42
                      A                      A                      A
 Frequencies --   1504.9838              1511.6403              3023.6103
 Red. masses --      1.1319                 1.1913                 1.0544
 Frc consts  --      1.5105                 1.6039                 5.6795
 IR Inten    --      0.6734                 4.8518                65.0545

                     43                     44                     45
                      A                      A                      A
 Frequencies --   3037.3090              3046.3389              3069.8172
 Red. masses --      1.0613                 1.0634                 1.0604
 Frc consts  --      5.7684                 5.8142                 5.8876
 IR Inten    --     45.4289                28.5434                43.9354

                     46                     47                     48
                      A                      A                      A
 Frequencies --   3078.9384              3088.9078              3106.5159
 Red. masses --      1.1112                 1.1022                 1.1024
 Frc consts  --      6.2064                 6.1964                 6.2680
 IR Inten    --     33.8159                18.9336                 8.2330

                     49                     50                     51
                      A                      A                      A
 Frequencies --   3126.3215              3176.0970              3789.8872
 Red. masses --      1.1079                 1.0938                 1.0665
 Frc consts  --      6.3797                 6.5009                 9.0250
 IR Inten    --     41.4808                14.4396                17.7048

 - Thermochemistry -
 -------------------
 Temperature   298.150 Kelvin.  Pressure   1.00000 Atm.
 Atom     1 has atomic number  8 and mass  15.99491

 Molecular mass:   126.06808 amu.
 Principal axes and moments of inertia in atomic units:
                           1         2         3
     Eigenvalues --   649.949511217.096111535.07793
           X            0.99994  -0.00315  -0.01002
           Y            0.00345   0.99955   0.02975
           Z            0.00992  -0.02978   0.99951
 This molecule is an asymmetric top.
 Rotational symmetry number  1.
 Warning -- assumption of classical behavior for rotation
           may cause significant error
 Rotational temperatures (Kelvin)      0.13326     0.07116     0.05642
 Rotational constants (GHZ):           2.77674     1.48283     1.17567
 Zero-point vibrational energy     416337.9 (Joules/Mol)
                                   99.50714 (Kcal/Mol)
 Warning -- explicit consideration of  10 degrees of freedom as
           vibrations may cause significant error
 Vibrational temperatures:    115.77   225.98   239.97   297.32   370.67
          (Kelvin)            420.65   513.41   614.62   772.13   790.70
                              983.61  1023.61  1087.67  1158.98  1241.35
                             1323.19  1345.05  1352.73  1390.45  1435.68
                             1462.34  1479.57  1528.28  1552.82  1631.35
                             1646.30  1654.82  1727.34  1742.67  1777.87
                             1799.07  1816.94  1837.77  1841.74  1899.32
                             1947.15  2113.31  2127.38  2133.57  2165.33
                             2174.91  4350.30  4370.00  4383.00  4416.78
                             4429.90  4444.24  4469.58  4498.07  4569.69
                             5452.80

 Zero-point correction=                           0.158575 (Hartree/Particle)
 Thermal correction to Energy=                    0.166919
 Thermal correction to Enthalpy=                  0.167864
 Thermal correction to Gibbs Free Energy=         0.125632
 Sum of electronic and zero-point Energies=           -422.957790
 Sum of electronic and thermal Energies=              -422.949445
 Sum of electronic and thermal Enthalpies=            -422.948501
 Sum of electronic and thermal Free Energies=         -422.990732

                     E (Thermal)             CV                S
                      KCal/Mol        Cal/Mol-Kelvin    Cal/Mol-Kelvin
 Total                  104.743             31.964             88.883
 Electronic               0.000              0.000              0.000
 Translational            0.889              2.981             40.409
 Rotational               0.889              2.981             28.587
 Vibrational            102.966             26.002             19.888
 Vibration     1          0.600              1.962              3.879
 Vibration     2          0.621              1.895              2.585
 Vibration     3          0.624              1.883              2.471
 Vibration     4          0.641              1.830              2.073
 Vibration     5          0.667              1.750              1.678
 Vibration     6          0.688              1.688              1.460
 Vibration     7          0.732              1.561              1.136
 Vibration     8          0.789              1.411              0.868
 Vibration     9          0.892              1.169              0.573
 Vibration    10          0.905              1.141              0.545

 Optimization completed.
    -- Stationary point found.
 Normal termination of Gaussian 09 at Mon Jan 27 19:35:12 2020.
