 Gaussian 09, Revision D.01,
 Gaussian 09:  ES64L-G09RevD.01 24-Apr-2013

 -----------------------------
 # b3lyp 6-31G(2df,p) opt Freq
 -----------------------------

 -----
 titel
 -----
 Symbolic Z-matrix:
 Charge =  0 Multiplicity = 1

 SCF Done:  E(RB3LYP) =  -423.115186947     A.U. after   13 cycles
 Optimization completed.
    -- Stationary point found.
 Normal termination of Gaussian 09 at Tue Jan 28 09:05:51 2020.

 ----------------------------------------------------------------------
 #N Geom=AllCheck Guess=TCheck SCRF=Check GenChk RB3LYP/6-31G(2df,p) Fr
 eq
 ----------------------------------------------------------------------

 Structure from the checkpoint file:  "/scratch/puck/g09_1e5c2172-9157-40cc-8b86-7b0b9d74182c/Gau-20010.chk"
 -----
 titel
 -----
 Charge =  0 Multiplicity = 1

                         Standard orientation:
 ---------------------------------------------------------------------
 Center     Atomic      Atomic             Coordinates (Angstroms)
 Number     Number       Type             X           Y           Z
 ---------------------------------------------------------------------
      1          6           0       -1.242688    1.956025    0.262779
      2          8           0       -0.454760    0.986093    0.935737
      3          6           0       -0.215647   -0.218120    0.242815
      4          6           0        0.634940   -1.161186    1.127413
      5          8           0        1.747582   -1.111728    0.222836
      6          6           0        1.052282   -0.243031   -0.700309
      7          6           0        1.802255    1.050294   -0.939172
      8          6           0       -1.418460   -0.806066   -0.335368
      9          6           0       -2.395679   -1.304985   -0.827512
     10          1           0       -2.252320    1.582129    0.056593
     11          1           0       -1.304486    2.815020    0.934130
     12          1           0       -0.785638    2.275885   -0.682431
     13          1           0        0.862770   -0.719719    2.103858
     14          1           0        0.236668   -2.173372    1.251515
     15          1           0        0.855461   -0.765967   -1.644337
     16          1           0        1.863851    1.641745   -0.022841
     17          1           0        2.817786    0.812963   -1.271366
     18          1           0        1.321149    1.647797   -1.720262
     19          1           0       -3.259831   -1.748980   -1.257310
 ---------------------------------------------------------------------

 SCF Done:  E(RB3LYP) =  -423.115186947     A.U. after    2 cycles

 The electronic state is 1-A.
 Alpha  occ. eigenvalues --  -19.15549 -19.13258 -10.26531 -10.23761 -10.23121
 Alpha  occ. eigenvalues --  -10.22801 -10.19041 -10.18668 -10.17747  -1.05754
 Alpha  occ. eigenvalues --   -1.02848  -0.78734  -0.75271  -0.73314  -0.67145
 Alpha  occ. eigenvalues --   -0.65032  -0.57836  -0.54018  -0.51208  -0.50077
 Alpha  occ. eigenvalues --   -0.48402  -0.44684  -0.44005  -0.43401  -0.40731
 Alpha  occ. eigenvalues --   -0.38844  -0.38085  -0.35408  -0.33424  -0.31944
 Alpha  occ. eigenvalues --   -0.28317  -0.27824  -0.25869  -0.25022
 Alpha virt. eigenvalues --    0.02557   0.03739   0.08996   0.09482   0.11394
 Alpha virt. eigenvalues --    0.12402   0.13734   0.14642   0.15415   0.16282
 Alpha virt. eigenvalues --    0.16479   0.17317   0.17934   0.20096   0.21794

 Mulliken charges:
               1
     1  C   -0.256659
     2  O   -0.277128
     3  C    0.150459
     4  C   -0.107491
     5  O   -0.288991
     6  C    0.111512
     7  C   -0.410948
     8  C    0.299146
     9  C   -0.479427
    10  H    0.127616
    11  H    0.131309
    12  H    0.111595
    13  H    0.115886
    14  H    0.111123
    15  H    0.078655
    16  H    0.133544
    17  H    0.130269
    18  H    0.116878
    19  H    0.202651
 Sum of Mulliken charges =   0.00000

 Dipole moment (field-independent basis, Debye):
    X=             -1.6387    Y=              0.8711    Z=             -0.9946  Tot=              2.1056
 Quadrupole moment (field-independent basis, Debye-Ang):
   XX=            -52.7160   YY=            -51.2549   ZZ=            -52.2773
   XY=              3.0823   XZ=              1.1081   YZ=             -0.6086

  Exact polarizability:  87.688   7.920  77.076   5.511   1.071  68.468
 Approx polarizability: 127.904  13.588 105.643  14.771   5.800 104.319

                      1                      2                      3
                      A                      A                      A
 Frequencies --     55.5007               119.0176               135.6661
 Red. masses --      3.7323                 1.7245                 2.7309
 Frc consts  --      0.0068                 0.0144                 0.0296
 IR Inten    --      2.4575                 1.4415                 0.0738

                      4                      5                      6
                      A                      A                      A
 Frequencies --    163.3309               175.1452               237.0567
 Red. masses --      1.6877                 3.2276                 1.1395
 Frc consts  --      0.0265                 0.0583                 0.0377
 IR Inten    --      1.2245                 1.2488                 0.3297

                      7                      8                      9
                      A                      A                      A
 Frequencies --    256.4232               285.3447               361.1718
 Red. masses --      2.6099                 2.5312                 3.8254
 Frc consts  --      0.1011                 0.1214                 0.2940
 IR Inten    --      4.5299                 4.3646                 4.2601

                     10                     11                     12
                      A                      A                      A
 Frequencies --    418.3850               482.7927               523.9005
 Red. masses --      3.3191                 4.5479                 5.2249
 Frc consts  --      0.3423                 0.6246                 0.8449
 IR Inten    --      0.6882                 3.5921                 5.5011

                     13                     14                     15
                      A                      A                      A
 Frequencies --    564.6365               627.2462               653.1078
 Red. masses --      4.3180                 1.2328                 5.0227
 Frc consts  --      0.8111                 0.2858                 1.2623
 IR Inten    --      4.5503                40.6661                 4.1643

                     16                     17                     18
                      A                      A                      A
 Frequencies --    667.2953               782.6555               885.2121
 Red. masses --      1.2490                 2.8046                 2.3123
 Frc consts  --      0.3277                 1.0122                 1.0676
 IR Inten    --     34.3171                 1.5037                19.0938

                     19                     20                     21
                      A                      A                      A
 Frequencies --    893.3742               989.6237              1026.8601
 Red. masses --      2.1053                 2.6753                 2.1405
 Frc consts  --      0.9900                 1.5437                 1.3298
 IR Inten    --     15.0849                13.6636                14.4575

                     22                     23                     24
                      A                      A                      A
 Frequencies --   1035.3560              1075.7557              1099.7669
 Red. masses --      5.4256                 4.0759                 2.9819
 Frc consts  --      3.4267                 2.7791                 2.1250
 IR Inten    --     62.2737                75.1893                12.3852

                     25                     26                     27
                      A                      A                      A
 Frequencies --   1128.1299              1157.6352              1181.3125
 Red. masses --      2.3311                 1.3936                 1.4382
 Frc consts  --      1.7479                 1.1004                 1.1825
 IR Inten    --     11.4132                 2.5021                13.8698

                     28                     29                     30
                      A                      A                      A
 Frequencies --   1190.9843              1201.6528              1241.3863
 Red. masses --      2.9558                 1.9335                 1.8901
 Frc consts  --      2.4702                 1.6449                 1.7161
 IR Inten    --     88.3179                47.1039                21.4112

                     31                     32                     33
                      A                      A                      A
 Frequencies --   1290.5470              1357.2875              1373.8045
 Red. masses --      1.3695                 1.5198                 1.3127
 Frc consts  --      1.3439                 1.6496                 1.4597
 IR Inten    --      8.4204                 1.9910                 5.3134

                     34                     35                     36
                      A                      A                      A
 Frequencies --   1402.9518              1473.6142              1482.4071
 Red. masses --      1.3152                 1.1188                 1.0589
 Frc consts  --      1.5251                 1.4314                 1.3710
 IR Inten    --      9.6575                 1.6234                 1.9632

                     37                     38                     39
                      A                      A                      A
 Frequencies --   1488.2763              1493.0741              1510.3731
 Red. masses --      1.0546                 1.0552                 1.0611
 Frc consts  --      1.3763                 1.3859                 1.4262
 IR Inten    --      5.5800                 3.0505                 9.5020

                     40                     41                     42
                      A                      A                      A
 Frequencies --   1513.0244              2228.1850              3013.2581
 Red. masses --      1.0910                 5.9300                 1.0342
 Frc consts  --      1.4716                17.3462                 5.5325
 IR Inten    --      0.3886                 1.4116                38.8042

                     43                     44                     45
                      A                      A                      A
 Frequencies --   3025.5930              3033.3901              3041.7142
 Red. masses --      1.0762                 1.0600                 1.0390
 Frc consts  --      5.8042                 5.7468                 5.6638
 IR Inten    --     55.2935                33.9757                 8.7286

                     46                     47                     48
                      A                      A                      A
 Frequencies --   3075.1031              3088.1397              3108.7651
 Red. masses --      1.1021                 1.1122                 1.1006
 Frc consts  --      6.1404                 6.2492                 6.2669
 IR Inten    --     38.5157                26.8107                17.7120

                     49                     50                     51
                      A                      A                      A
 Frequencies --   3127.5458              3132.4975              3498.1487
 Red. masses --      1.1009                 1.1016                 1.1619
 Frc consts  --      6.3444                 6.3688                 8.3768
 IR Inten    --     20.1473                15.1408                69.2879

 - Thermochemistry -
 -------------------
 Temperature   298.150 Kelvin.  Pressure   1.00000 Atm.
 Atom     1 has atomic number  6 and mass  12.00000

 Molecular mass:   126.06808 amu.
 Principal axes and moments of inertia in atomic units:
                           1         2         3
     Eigenvalues --   873.357561171.914731518.51630
           X            0.99955   0.02784  -0.01098
           Y           -0.02823   0.99891  -0.03714
           Z            0.00994   0.03743   0.99925
 This molecule is an asymmetric top.
 Rotational symmetry number  1.
 Warning -- assumption of classical behavior for rotation
           may cause significant error
 Rotational temperatures (Kelvin)      0.09917     0.07391     0.05704
 Rotational constants (GHZ):           2.06644     1.53999     1.18849
 Zero-point vibrational energy     408963.9 (Joules/Mol)
                                   97.74472 (Kcal/Mol)
 Warning -- explicit consideration of  13 degrees of freedom as
           vibrations may cause significant error
 Vibrational temperatures:     79.85   171.24   195.19   235.00   251.99
          (Kelvin)            341.07   368.94   410.55   519.64   601.96
                              694.63   753.78   812.38   902.47   939.68
                              960.09  1126.07  1273.62  1285.36  1423.85
                             1477.42  1489.64  1547.77  1582.32  1623.13
                             1665.58  1699.64  1713.56  1728.91  1786.08
                             1856.81  1952.83  1976.60  2018.53  2120.20
                             2132.85  2141.29  2148.20  2173.09  2176.90
                             3205.86  4335.40  4353.15  4364.37  4376.34
                             4424.38  4443.14  4472.81  4499.84  4506.96
                             5033.05

 Zero-point correction=                           0.155766 (Hartree/Particle)
 Thermal correction to Energy=                    0.165630
 Thermal correction to Enthalpy=                  0.166574
 Thermal correction to Gibbs Free Energy=         0.120951
 Sum of electronic and zero-point Energies=           -422.959421
 Sum of electronic and thermal Energies=              -422.949557
 Sum of electronic and thermal Enthalpies=            -422.948613
 Sum of electronic and thermal Free Energies=         -422.994236

                     E (Thermal)             CV                S
                      KCal/Mol        Cal/Mol-Kelvin    Cal/Mol-Kelvin
 Total                  103.934             35.783             96.023
 Electronic               0.000              0.000              0.000
 Translational            0.889              2.981             40.409
 Rotational               0.889              2.981             28.832
 Vibrational            102.157             29.822             26.783
 Vibration     1          0.596              1.975              4.611
 Vibration     2          0.609              1.933              3.116
 Vibration     3          0.613              1.918              2.864
 Vibration     4          0.623              1.887              2.511
 Vibration     5          0.627              1.873              2.380
 Vibration     6          0.656              1.784              1.825
 Vibration     7          0.666              1.752              1.686
 Vibration     8          0.683              1.701              1.501
 Vibration     9          0.735              1.552              1.117
 Vibration    10          0.781              1.430              0.897
 Vibration    11          0.839              1.288              0.703
 Vibration    12          0.879              1.197              0.601
 Vibration    13          0.920              1.108              0.515

 Normal termination of Gaussian 09 at Tue Jan 28 09:48:32 2020.
