 Gaussian 09, Revision D.01,
 Gaussian 09:  ES64L-G09RevD.01 24-Apr-2013

 -----------------------------
 # b3lyp 6-31G(2df,p) opt Freq
 -----------------------------

 -----
 titel
 -----
 Symbolic Z-matrix:
 Charge =  0 Multiplicity = 1

 SCF Done:  E(RB3LYP) =  -423.170050567     A.U. after   14 cycles
 Optimization completed.
    -- Stationary point found.
 Normal termination of Gaussian 09 at Tue Jan 28 09:22:12 2020.

 ----------------------------------------------------------------------
 #N Geom=AllCheck Guess=TCheck SCRF=Check GenChk RB3LYP/6-31G(2df,p) Fr
 eq
 ----------------------------------------------------------------------

 Structure from the checkpoint file:  "/scratch/puck/g09_bdec1159-98f8-4a32-9600-95c318ca5f5c/Gau-84257.chk"
 -----
 titel
 -----
 Charge =  0 Multiplicity = 1

                         Standard orientation:
 ---------------------------------------------------------------------
 Center     Atomic      Atomic             Coordinates (Angstroms)
 Number     Number       Type             X           Y           Z
 ---------------------------------------------------------------------
      1          6           0       -2.421977   -0.971932   -0.773216
      2          6           0       -1.707393    0.189379   -0.067907
      3          6           0       -1.193431   -0.178340    1.314193
      4          6           0        0.135977   -0.102298    1.406662
      5          6           0        0.719919    0.404329    0.124744
      6          6           0        2.133271    0.090749   -0.294153
      7          8           0        2.415817   -1.297445   -0.217867
      8          8           0        0.246875    1.730457   -0.218820
      9          6           0       -0.426197    0.607896   -0.788854
     10          1           0       -2.761107   -0.675999   -1.771847
     11          1           0       -1.755182   -1.834267   -0.879583
     12          1           0       -3.297347   -1.297497   -0.203264
     13          1           0       -2.392415    1.045459   -0.005177
     14          1           0       -1.866641   -0.451329    2.119938
     15          1           0        0.736311   -0.334395    2.277342
     16          1           0        2.312637    0.505703   -1.296550
     17          1           0        2.839270    0.574213    0.390283
     18          1           0        1.794841   -1.754620   -0.794539
     19          1           0       -0.352913    0.519949   -1.871921
 ---------------------------------------------------------------------

 SCF Done:  E(RB3LYP) =  -423.170050567     A.U. after    1 cycles

 The electronic state is 1-A.
 Alpha  occ. eigenvalues --  -19.14823 -19.14172 -10.23813 -10.23417 -10.23275
 Alpha  occ. eigenvalues --  -10.19950 -10.18818 -10.18635 -10.18426  -1.07006
 Alpha  occ. eigenvalues --   -1.02160  -0.82845  -0.75624  -0.71506  -0.66384
 Alpha  occ. eigenvalues --   -0.63217  -0.56839  -0.55324  -0.52298  -0.48222
 Alpha  occ. eigenvalues --   -0.46315  -0.44024  -0.43025  -0.42235  -0.41364
 Alpha  occ. eigenvalues --   -0.39194  -0.37364  -0.36179  -0.34835  -0.33894
 Alpha  occ. eigenvalues --   -0.30101  -0.28302  -0.25690  -0.24684
 Alpha virt. eigenvalues --    0.00089   0.06688   0.09645   0.10922   0.11547
 Alpha virt. eigenvalues --    0.13833   0.14073   0.14891   0.15601   0.16907
 Alpha virt. eigenvalues --    0.17411   0.18036   0.18983   0.21088   0.22465

 Mulliken charges:
               1
     1  C   -0.398652
     2  C   -0.063924
     3  C   -0.086383
     4  C   -0.131440
     5  C    0.341891
     6  C   -0.166136
     7  O   -0.407961
     8  O   -0.302143
     9  C   -0.039901
    10  H    0.117869
    11  H    0.115378
    12  H    0.122376
    13  H    0.100391
    14  H    0.100573
    15  H    0.106463
    16  H    0.099739
    17  H    0.119583
    18  H    0.283793
    19  H    0.088484
 Sum of Mulliken charges =   0.00000

 Dipole moment (field-independent basis, Debye):
    X=             -1.6347    Y=             -1.2663    Z=             -0.8367  Tot=              2.2306
 Quadrupole moment (field-independent basis, Debye-Ang):
   XX=            -53.8195   YY=            -58.0237   ZZ=            -49.5247
   XY=              2.4537   XZ=             -0.5783   YZ=              1.2534

  Exact polarizability:  92.504   3.793  62.681   3.574  -2.531  72.548
 Approx polarizability: 133.019   3.776 100.291   8.072  -4.694 106.030

                      1                      2                      3
                      A                      A                      A
 Frequencies --     68.7542               121.4993               176.5326
 Red. masses --      3.5128                 2.9059                 3.5122
 Frc consts  --      0.0098                 0.0253                 0.0645
 IR Inten    --      1.4410                 0.7114                 1.8327

                      4                      5                      6
                      A                      A                      A
 Frequencies --    222.5384               252.5090               297.8657
 Red. masses --      1.0475                 2.5085                 1.5911
 Frc consts  --      0.0306                 0.0942                 0.0832
 IR Inten    --      0.2442                10.4103                43.5976

                      7                      8                      9
                      A                      A                      A
 Frequencies --    356.0608               394.0747               406.3712
 Red. masses --      1.7148                 3.0605                 3.9445
 Frc consts  --      0.1281                 0.2800                 0.3838
 IR Inten    --     63.8155                12.8659                15.8430

                     10                     11                     12
                      A                      A                      A
 Frequencies --    501.8108               584.5459               629.0267
 Red. masses --      5.3757                 3.6286                 3.8227
 Frc consts  --      0.7976                 0.7305                 0.8912
 IR Inten    --      4.0778                 1.8579                21.3830

                     13                     14                     15
                      A                      A                      A
 Frequencies --    720.2072               770.6147               793.1028
 Red. masses --      2.7783                 1.6551                 4.2927
 Frc consts  --      0.8491                 0.5791                 1.5909
 IR Inten    --      4.1371                15.9711                 3.8024

                     16                     17                     18
                      A                      A                      A
 Frequencies --    859.1937               877.9294               922.0552
 Red. masses --      2.8303                 3.6300                 2.4243
 Frc consts  --      1.2310                 1.6485                 1.2144
 IR Inten    --     11.8461                32.8072                 5.3357

                     19                     20                     21
                      A                      A                      A
 Frequencies --    932.4027               963.0515              1000.7329
 Red. masses --      1.7300                 1.3138                 1.3837
 Frc consts  --      0.8861                 0.7179                 0.8164
 IR Inten    --      4.2835                 2.7717                 3.6358

                     22                     23                     24
                      A                      A                      A
 Frequencies --   1022.0623              1065.3592              1085.0990
 Red. masses --      2.4292                 1.8056                 2.9670
 Frc consts  --      1.4951                 1.2075                 2.0583
 IR Inten    --     18.3381                14.9613                61.4508

                     25                     26                     27
                      A                      A                      A
 Frequencies --   1096.0479              1115.5328              1148.8985
 Red. masses --      2.2048                 1.5014                 1.3409
 Frc consts  --      1.5606                 1.1008                 1.0428
 IR Inten    --      3.0909                 1.3645                 2.9645

                     28                     29                     30
                      A                      A                      A
 Frequencies --   1184.7150              1253.8998              1280.4969
 Red. masses --      1.3578                 1.8956                 1.2262
 Frc consts  --      1.1228                 1.7560                 1.1846
 IR Inten    --     30.6546                 5.6871                 3.2463

                     31                     32                     33
                      A                      A                      A
 Frequencies --   1298.3340              1325.6895              1346.3488
 Red. masses --      2.0111                 1.5933                 1.6291
 Frc consts  --      1.9973                 1.6498                 1.7398
 IR Inten    --      2.1171                 1.7046                 2.7599

                     34                     35                     36
                      A                      A                      A
 Frequencies --   1380.6713              1405.3248              1417.9049
 Red. masses --      1.6089                 1.2943                 1.2694
 Frc consts  --      1.8071                 1.5060                 1.5036
 IR Inten    --      6.9026                 0.3724                54.5878

                     37                     38                     39
                      A                      A                      A
 Frequencies --   1444.1464              1494.4602              1499.1183
 Red. masses --      3.1850                 1.0462                 1.0519
 Frc consts  --      3.9137                 1.3766                 1.3928
 IR Inten    --      1.2071                 4.7162                 3.1004

                     40                     41                     42
                      A                      A                      A
 Frequencies --   1505.0272              1662.6582              3003.5906
 Red. masses --      1.0850                 6.6778                 1.0664
 Frc consts  --      1.4480                10.8765                 5.6685
 IR Inten    --      0.5906                 3.5237                46.1235

                     43                     44                     45
                      A                      A                      A
 Frequencies --   3024.6949              3030.7556              3069.7500
 Red. masses --      1.0820                 1.0352                 1.0967
 Frc consts  --      5.8325                 5.6024                 6.0891
 IR Inten    --     13.2497                25.7263                25.2036

                     46                     47                     48
                      A                      A                      A
 Frequencies --   3099.7784              3107.7757              3122.3842
 Red. masses --      1.1018                 1.1011                 1.0904
 Frc consts  --      6.2377                 6.2659                 6.2634
 IR Inten    --     27.7604                19.3596                26.7987

                     49                     50                     51
                      A                      A                      A
 Frequencies --   3185.8593              3219.4718              3812.3288
 Red. masses --      1.0874                 1.1019                 1.0661
 Frc consts  --      6.5024                 6.7291                 9.1292
 IR Inten    --      8.5789                10.9286                11.6965

 - Thermochemistry -
 -------------------
 Temperature   298.150 Kelvin.  Pressure   1.00000 Atm.
 Atom     1 has atomic number  6 and mass  12.00000

 Molecular mass:   126.06808 amu.
 Principal axes and moments of inertia in atomic units:
                           1         2         3
     Eigenvalues --   663.574811464.389691545.67868
           X            0.99948   0.03051   0.01086
           Y           -0.03114   0.99747   0.06385
           Z           -0.00888  -0.06415   0.99790
 This molecule is an asymmetric top.
 Rotational symmetry number  1.
 Warning -- assumption of classical behavior for rotation
           may cause significant error
 Rotational temperatures (Kelvin)      0.13053     0.05915     0.05604
 Rotational constants (GHZ):           2.71973     1.23242     1.16760
 Zero-point vibrational energy     416055.6 (Joules/Mol)
                                   99.43967 (Kcal/Mol)
 Warning -- explicit consideration of  11 degrees of freedom as
           vibrations may cause significant error
 Vibrational temperatures:     98.92   174.81   253.99   320.18   363.30
          (Kelvin)            428.56   512.29   566.98   584.68   721.99
                              841.03   905.03  1036.22  1108.74  1141.10
                             1236.19  1263.14  1326.63  1341.52  1385.61
                             1439.83  1470.52  1532.81  1561.21  1576.97
                             1605.00  1653.01  1704.54  1804.08  1842.35
                             1868.01  1907.37  1937.09  1986.48  2021.95
                             2040.05  2077.80  2150.19  2156.89  2165.40
                             2392.19  4321.49  4351.86  4360.58  4416.68
                             4459.88  4471.39  4492.41  4583.74  4632.10
                             5485.08

 Zero-point correction=                           0.158467 (Hartree/Particle)
 Thermal correction to Energy=                    0.167179
 Thermal correction to Enthalpy=                  0.168123
 Thermal correction to Gibbs Free Energy=         0.125029
 Sum of electronic and zero-point Energies=           -423.011583
 Sum of electronic and thermal Energies=              -423.002872
 Sum of electronic and thermal Enthalpies=            -423.001928
 Sum of electronic and thermal Free Energies=         -423.045022

                     E (Thermal)             CV                S
                      KCal/Mol        Cal/Mol-Kelvin    Cal/Mol-Kelvin
 Total                  104.906             33.108             90.698
 Electronic               0.000              0.000              0.000
 Translational            0.889              2.981             40.409
 Rotational               0.889              2.981             28.798
 Vibrational            103.129             27.146             21.492
 Vibration     1          0.598              1.969              4.189
 Vibration     2          0.609              1.931              3.076
 Vibration     3          0.628              1.871              2.365
 Vibration     4          0.648              1.807              1.938
 Vibration     5          0.664              1.759              1.713
 Vibration     6          0.691              1.678              1.429
 Vibration     7          0.732              1.563              1.139
 Vibration     8          0.761              1.483              0.985
 Vibration     9          0.771              1.456              0.940
 Vibration    10          0.857              1.246              0.654
 Vibration    11          0.941              1.065              0.477

 Normal termination of Gaussian 09 at Tue Jan 28 10:10:01 2020.
