 Gaussian 09, Revision D.01,
 Gaussian 09:  ES64L-G09RevD.01 24-Apr-2013

 -----------------------------
 # b3lyp 6-31G(2df,p) opt Freq
 -----------------------------

 -----
 titel
 -----
 Symbolic Z-matrix:
 Charge =  0 Multiplicity = 1

 SCF Done:  E(RB3LYP) =  -423.113154972     A.U. after   14 cycles
 Optimization completed.
    -- Stationary point found.
 Normal termination of Gaussian 09 at Tue Jan 28 10:19:48 2020.

 ----------------------------------------------------------------------
 #N Geom=AllCheck Guess=TCheck SCRF=Check GenChk RB3LYP/6-31G(2df,p) Fr
 eq
 ----------------------------------------------------------------------

 Structure from the checkpoint file:  "/scratch/puck/g09_d9be37d9-85d5-44c9-9fde-c63ecb9f4743/Gau-1053.chk"
 -----
 titel
 -----
 Charge =  0 Multiplicity = 1

                         Standard orientation:
 ---------------------------------------------------------------------
 Center     Atomic      Atomic             Coordinates (Angstroms)
 Number     Number       Type             X           Y           Z
 ---------------------------------------------------------------------
      1          6           0        1.584323    1.927396    0.094306
      2          6           0        0.965899    0.570219    0.005640
      3          6           0        0.390971   -0.260565   -1.089207
      4          8           0        1.179391   -1.419784   -0.836752
      5          6           0        1.386337   -0.875242    0.499727
      6          6           0        0.002902   -1.026487    1.176114
      7          6           0       -0.462997    0.033980    0.176501
      8          6           0       -1.765333    0.768938    0.121287
      9          8           0       -2.866689   -0.085078   -0.160864
     10          1           0        2.585673    1.936513   -0.350408
     11          1           0        0.977265    2.666288   -0.439301
     12          1           0        1.674661    2.263774    1.133439
     13          1           0        0.096410   -0.028098   -2.105756
     14          1           0        2.321496   -1.191427    0.958049
     15          1           0       -0.444896   -2.024293    1.148336
     16          1           0        0.002240   -0.633069    2.196680
     17          1           0       -1.995011    1.228337    1.089613
     18          1           0       -1.695290    1.590025   -0.613274
     19          1           0       -2.636771   -0.598592   -0.942666
 ---------------------------------------------------------------------

 SCF Done:  E(RB3LYP) =  -423.113154972     A.U. after    1 cycles

 The electronic state is 1-A.
 Alpha  occ. eigenvalues --  -19.13640 -19.13309 -10.24289 -10.23891 -10.23205
 Alpha  occ. eigenvalues --  -10.20301 -10.19822 -10.19276 -10.18616  -1.06157
 Alpha  occ. eigenvalues --   -1.01402  -0.86392  -0.74420  -0.72512  -0.69386
 Alpha  occ. eigenvalues --   -0.62802  -0.55590  -0.53829  -0.50317  -0.47714
 Alpha  occ. eigenvalues --   -0.47141  -0.45292  -0.43362  -0.41934  -0.40798
 Alpha  occ. eigenvalues --   -0.40371  -0.38850  -0.36155  -0.34202  -0.32885
 Alpha  occ. eigenvalues --   -0.29045  -0.27162  -0.25231  -0.22863
 Alpha virt. eigenvalues --    0.07188   0.07955   0.09800   0.10493   0.12407
 Alpha virt. eigenvalues --    0.12491   0.13647   0.13987   0.15597   0.16228
 Alpha virt. eigenvalues --    0.17104   0.18193   0.18865   0.20631   0.21943

 Mulliken charges:
               1
     1  C   -0.532275
     2  C    0.229888
     3  C   -0.008787
     4  O   -0.297338
     5  C    0.020858
     6  C   -0.282734
     7  C    0.205206
     8  C   -0.178108
     9  O   -0.413414
    10  H    0.131798
    11  H    0.128291
    12  H    0.125466
    13  H    0.103779
    14  H    0.086739
    15  H    0.103994
    16  H    0.101183
    17  H    0.111360
    18  H    0.081621
    19  H    0.282473
 Sum of Mulliken charges =   0.00000

 Dipole moment (field-independent basis, Debye):
    X=              1.0939    Y=              1.6080    Z=              0.1530  Tot=              1.9508
 Quadrupole moment (field-independent basis, Debye-Ang):
   XX=            -59.4040   YY=            -53.9527   ZZ=            -50.1017
   XY=              2.2673   XZ=              4.6469   YZ=             -1.4337

  Exact polarizability:  79.874   1.606  74.908   1.078  -1.235  70.542
 Approx polarizability: 112.186   0.710 108.186   0.301   2.397 109.979

                      1                      2                      3
                      A                      A                      A
 Frequencies --     88.8759               119.6506               191.8031
 Red. masses --      3.1868                 4.1250                 1.1085
 Frc consts  --      0.0148                 0.0348                 0.0240
 IR Inten    --      3.0189                 1.1745                 0.6406

                      4                      5                      6
                      A                      A                      A
 Frequencies --    206.8148               247.6132               276.5482
 Red. masses --      2.1799                 2.5540                 1.9049
 Frc consts  --      0.0549                 0.0923                 0.0858
 IR Inten    --      3.7812                 2.3974                30.2802

                      7                      8                      9
                      A                      A                      A
 Frequencies --    340.5331               410.7374               461.7348
 Red. masses --      1.3557                 2.9010                 2.9413
 Frc consts  --      0.0926                 0.2884                 0.3695
 IR Inten    --     69.4522                10.6191                 2.5547

                     10                     11                     12
                      A                      A                      A
 Frequencies --    546.0239               606.0618               706.3284
 Red. masses --      4.0153                 3.1193                 3.3390
 Frc consts  --      0.7053                 0.6751                 0.9815
 IR Inten    --      3.4528                 7.3782                 4.7668

                     13                     14                     15
                      A                      A                      A
 Frequencies --    735.2897               788.5456               825.8401
 Red. masses --      4.6167                 3.8092                 3.0012
 Frc consts  --      1.4706                 1.3955                 1.2060
 IR Inten    --     14.6950                 0.5295                15.9637

                     16                     17                     18
                      A                      A                      A
 Frequencies --    905.0685               916.0801               925.4071
 Red. masses --      1.8424                 2.3483                 2.0414
 Frc consts  --      0.8892                 1.1611                 1.0300
 IR Inten    --     12.1326                16.5016                12.3617

                     19                     20                     21
                      A                      A                      A
 Frequencies --    947.2111               985.8440              1021.8125
 Red. masses --      1.7714                 1.9980                 2.4915
 Frc consts  --      0.9364                 1.1441                 1.5327
 IR Inten    --     14.7990                 0.9984                24.5467

                     22                     23                     24
                      A                      A                      A
 Frequencies --   1040.4799              1056.4527              1106.2213
 Red. masses --      2.2690                 3.8761                 1.6885
 Frc consts  --      1.4473                 2.5488                 1.2174
 IR Inten    --     21.4802                95.0895                 3.5032

                     25                     26                     27
                      A                      A                      A
 Frequencies --   1122.9685              1131.8314              1165.2738
 Red. masses --      2.2444                 1.3415                 2.0039
 Frc consts  --      1.6676                 1.0125                 1.6032
 IR Inten    --      1.9074                 2.2246                 2.0688

                     28                     29                     30
                      A                      A                      A
 Frequencies --   1174.2801              1216.5513              1232.8307
 Red. masses --      1.7424                 1.3993                 1.6521
 Frc consts  --      1.4156                 1.2202                 1.4794
 IR Inten    --      0.1217                 5.8064                23.4921

                     31                     32                     33
                      A                      A                      A
 Frequencies --   1255.5826              1294.5450              1342.1199
 Red. masses --      1.6763                 1.6120                 3.3987
 Frc consts  --      1.5570                 1.5917                 3.6070
 IR Inten    --     10.0265                 7.1534                 2.9642

                     34                     35                     36
                      A                      A                      A
 Frequencies --   1364.0593              1412.0790              1424.3560
 Red. masses --      1.2513                 1.2265                 1.3223
 Frc consts  --      1.3718                 1.4409                 1.5806
 IR Inten    --      1.5787                 4.3646                70.8093

                     37                     38                     39
                      A                      A                      A
 Frequencies --   1463.8117              1483.5555              1490.7324
 Red. masses --      2.4947                 1.0505                 1.2258
 Frc consts  --      3.1495                 1.3622                 1.6050
 IR Inten    --      8.0671                 4.1457                 4.7554

                     40                     41                     42
                      A                      A                      A
 Frequencies --   1500.0670              1504.4788              2951.3690
 Red. masses --      1.2090                 1.0971                 1.0720
 Frc consts  --      1.6029                 1.4631                 5.5016
 IR Inten    --      2.6896                 1.3425                58.4460

                     43                     44                     45
                      A                      A                      A
 Frequencies --   3024.5350              3049.6985              3055.5196
 Red. masses --      1.0351                 1.0566                 1.0885
 Frc consts  --      5.5791                 5.7899                 5.9875
 IR Inten    --     38.4456                31.7323                33.9001

                     46                     47                     48
                      A                      A                      A
 Frequencies --   3085.3392              3095.8976              3109.0797
 Red. masses --      1.1012                 1.1002                 1.1088
 Frc consts  --      6.1762                 6.2131                 6.3147
 IR Inten    --     20.2747                17.1518                22.9128

                     49                     50                     51
                      A                      A                      A
 Frequencies --   3140.3189              3189.4815              3807.0740
 Red. masses --      1.0926                 1.0942                 1.0660
 Frc consts  --      6.3485                 6.5584                 9.1028
 IR Inten    --     39.5706                13.3382                12.8273

 - Thermochemistry -
 -------------------
 Temperature   298.150 Kelvin.  Pressure   1.00000 Atm.
 Atom     1 has atomic number  6 and mass  12.00000

 Molecular mass:   126.06808 amu.
 Principal axes and moments of inertia in atomic units:
                           1         2         3
     Eigenvalues --   708.302651256.336281524.88136
           X            0.99912   0.03963   0.01391
           Y           -0.03906   0.99847  -0.03922
           Z           -0.01545   0.03864   0.99913
 This molecule is an asymmetric top.
 Rotational symmetry number  1.
 Warning -- assumption of classical behavior for rotation
           may cause significant error
 Rotational temperatures (Kelvin)      0.12228     0.06894     0.05680
 Rotational constants (GHZ):           2.54798     1.43651     1.18353
 Zero-point vibrational energy     415968.0 (Joules/Mol)
                                   99.41873 (Kcal/Mol)
 Warning -- explicit consideration of  11 degrees of freedom as
           vibrations may cause significant error
 Vibrational temperatures:    127.87   172.15   275.96   297.56   356.26
          (Kelvin)            397.89   489.95   590.96   664.33   785.61
                              871.99  1016.25  1057.92  1134.54  1188.20
                             1302.19  1318.03  1331.45  1362.82  1418.41
                             1470.16  1497.02  1520.00  1591.60  1615.70
                             1628.45  1676.57  1689.53  1750.34  1773.77
                             1806.50  1862.56  1931.01  1962.57  2031.66
                             2049.33  2106.10  2134.50  2144.83  2158.26
                             2164.61  4246.36  4351.63  4387.83  4396.21
                             4439.11  4454.30  4473.27  4518.21  4588.95
                             5477.52

 Zero-point correction=                           0.158434 (Hartree/Particle)
 Thermal correction to Energy=                    0.166972
 Thermal correction to Enthalpy=                  0.167916
 Thermal correction to Gibbs Free Energy=         0.125285
 Sum of electronic and zero-point Energies=           -422.954721
 Sum of electronic and thermal Energies=              -422.946183
 Sum of electronic and thermal Enthalpies=            -422.945239
 Sum of electronic and thermal Free Energies=         -422.987870

                     E (Thermal)             CV                S
                      KCal/Mol        Cal/Mol-Kelvin    Cal/Mol-Kelvin
 Total                  104.777             32.477             89.726
 Electronic               0.000              0.000              0.000
 Translational            0.889              2.981             40.409
 Rotational               0.889              2.981             28.697
 Vibrational            102.999             26.516             20.620
 Vibration     1          0.602              1.957              3.685
 Vibration     2          0.609              1.933              3.106
 Vibration     3          0.634              1.851              2.210
 Vibration     4          0.641              1.830              2.072
 Vibration     5          0.661              1.767              1.748
 Vibration     6          0.678              1.717              1.555
 Vibration     7          0.720              1.594              1.210
 Vibration     8          0.775              1.447              0.924
 Vibration     9          0.819              1.335              0.761
 Vibration    10          0.901              1.148              0.552
 Vibration    11          0.965              1.019              0.439

 Optimization completed.
    -- Stationary point found.
 Normal termination of Gaussian 09 at Tue Jan 28 12:27:02 2020.
