 Gaussian 09, Revision D.01,
 Gaussian 09:  ES64L-G09RevD.01 24-Apr-2013

 -----------------------------
 # b3lyp 6-31G(2df,p) opt Freq
 -----------------------------

 -----
 titel
 -----
 Symbolic Z-matrix:
 Charge =  0 Multiplicity = 1

 SCF Done:  E(RB3LYP) =  -423.163620730     A.U. after   14 cycles
 Optimization completed.
    -- Stationary point found.
 Normal termination of Gaussian 09 at Tue Jan 28 03:14:22 2020.

 ----------------------------------------------------------------------
 #N Geom=AllCheck Guess=TCheck SCRF=Check GenChk RB3LYP/6-31G(2df,p) Fr
 eq
 ----------------------------------------------------------------------

 Structure from the checkpoint file:  "/scratch/puck/g09_c2ad7444-4777-4fdc-80da-e6d2c77dfdbb/Gau-79015.chk"
 -----
 titel
 -----
 Charge =  0 Multiplicity = 1

                         Standard orientation:
 ---------------------------------------------------------------------
 Center     Atomic      Atomic             Coordinates (Angstroms)
 Number     Number       Type             X           Y           Z
 ---------------------------------------------------------------------
      1          6           0        2.300449    0.449638   -0.012260
      2          6           0        1.181805   -0.573391    0.108996
      3          8           0        0.449904   -0.710588   -1.137622
      4          6           0       -0.935909   -0.729616   -0.807056
      5          6           0       -0.965741   -1.382580    0.589842
      6          6           0        0.055316   -0.342936    1.140126
      7          6           0       -0.720388    0.961995    0.841768
      8          8           0       -0.362135    1.671451   -0.352906
      9          6           0       -1.405248    0.707295   -0.436888
     10          1           0        2.881878    0.472554    0.916267
     11          1           0        2.976526    0.153370   -0.820090
     12          1           0        1.918255    1.445864   -0.226709
     13          1           0        1.640164   -1.549097    0.335134
     14          1           0       -1.490318   -1.208772   -1.614174
     15          1           0       -1.944137   -1.320912    1.073736
     16          1           0       -0.609729   -2.416757    0.601070
     17          1           0        0.369347   -0.458522    2.177663
     18          1           0       -1.118178    1.572301    1.647022
     19          1           0       -2.387671    1.080630   -0.712855
 ---------------------------------------------------------------------

 SCF Done:  E(RB3LYP) =  -423.163620730     A.U. after    1 cycles

 The electronic state is 1-A.
 Alpha  occ. eigenvalues --  -19.15337 -19.13057 -10.23669 -10.23578 -10.23228
 Alpha  occ. eigenvalues --  -10.22979 -10.19888 -10.18995 -10.16365  -1.08083
 Alpha  occ. eigenvalues --   -1.02339  -0.81253  -0.76834  -0.68623  -0.66228
 Alpha  occ. eigenvalues --   -0.60976  -0.59002  -0.54320  -0.53826  -0.49179
 Alpha  occ. eigenvalues --   -0.46707  -0.44000  -0.41976  -0.40189  -0.38728
 Alpha  occ. eigenvalues --   -0.38088  -0.37372  -0.36339  -0.35117  -0.34723
 Alpha  occ. eigenvalues --   -0.30571  -0.28809  -0.26057  -0.24142
 Alpha virt. eigenvalues --    0.08232   0.08354   0.09729   0.12108   0.13547
 Alpha virt. eigenvalues --    0.14171   0.15409   0.15737   0.16312   0.16993
 Alpha virt. eigenvalues --    0.17566   0.18991   0.19742   0.20194   0.21752

 Mulliken charges:
               1
     1  C   -0.422170
     2  C    0.169910
     3  O   -0.282459
     4  C    0.055541
     5  C   -0.239729
     6  C   -0.110463
     7  C    0.029955
     8  O   -0.230372
     9  C    0.036698
    10  H    0.103210
    11  H    0.122578
    12  H    0.151213
    13  H    0.068000
    14  H    0.077028
    15  H    0.100300
    16  H    0.103669
    17  H    0.069498
    18  H    0.100052
    19  H    0.097542
 Sum of Mulliken charges =   0.00000

 Dipole moment (field-independent basis, Debye):
    X=             -1.4053    Y=             -1.0696    Z=              2.0366  Tot=              2.6957
 Quadrupole moment (field-independent basis, Debye-Ang):
   XX=            -49.2251   YY=            -55.3113   ZZ=            -53.1646
   XY=             -0.2691   XZ=              1.8897   YZ=              0.6433

  Exact polarizability:  80.163   0.229  70.539   3.553   0.584  68.534
 Approx polarizability: 110.101   1.533 105.287   5.432  -0.056 109.944

                      1                      2                      3
                      A                      A                      A
 Frequencies --    192.9785               221.9944               246.1975
 Red. masses --      1.0768                 3.6029                 2.9312
 Frc consts  --      0.0236                 0.1046                 0.1047
 IR Inten    --      0.2100                 3.7549                 1.8489

                      4                      5                      6
                      A                      A                      A
 Frequencies --    345.8453               394.0297               468.0334
 Red. masses --      5.6644                 3.3003                 2.0045
 Frc consts  --      0.3992                 0.3019                 0.2587
 IR Inten    --      1.3761                 0.9774                 0.1861

                      7                      8                      9
                      A                      A                      A
 Frequencies --    495.1722               588.6945               642.0356
 Red. masses --      3.6717                 5.1979                 4.6662
 Frc consts  --      0.5304                 1.0614                 1.1333
 IR Inten    --      6.5579                 4.8232                13.9258

                     10                     11                     12
                      A                      A                      A
 Frequencies --    746.9709               768.1706               808.5853
 Red. masses --      3.2761                 3.8270                 3.2215
 Frc consts  --      1.0770                 1.3305                 1.2410
 IR Inten    --      1.0374                 1.3474                 1.9698

                     13                     14                     15
                      A                      A                      A
 Frequencies --    828.5435               864.8884               896.3584
 Red. masses --      3.2058                 2.0569                 2.1467
 Frc consts  --      1.2966                 0.9065                 1.0162
 IR Inten    --     20.1126                10.6334                 9.4598

                     16                     17                     18
                      A                      A                      A
 Frequencies --    912.0249               931.4041               936.8043
 Red. masses --      2.9019                 3.1403                 2.3911
 Frc consts  --      1.4222                 1.6051                 1.2363
 IR Inten    --      9.8579                 9.0388                 0.9295

                     19                     20                     21
                      A                      A                      A
 Frequencies --    951.5525               985.5661              1027.4799
 Red. masses --      2.3190                 2.1645                 1.6317
 Frc consts  --      1.2372                 1.2387                 1.0149
 IR Inten    --      5.6761                24.2163                10.0710

                     22                     23                     24
                      A                      A                      A
 Frequencies --   1038.3041              1067.0667              1083.8427
 Red. masses --      2.3416                 1.5137                 1.4159
 Frc consts  --      1.4873                 1.0155                 0.9800
 IR Inten    --     12.6306                26.3498                16.8992

                     25                     26                     27
                      A                      A                      A
 Frequencies --   1112.8529              1141.0865              1148.7661
 Red. masses --      2.2040                 1.7866                 1.2455
 Frc consts  --      1.6082                 1.3706                 0.9684
 IR Inten    --     29.0694                 2.7017                 1.7292

                     28                     29                     30
                      A                      A                      A
 Frequencies --   1184.5423              1237.6777              1266.7837
 Red. masses --      2.0007                 1.6672                 1.3410
 Frc consts  --      1.6540                 1.5047                 1.2679
 IR Inten    --      6.2097                 7.5817                 2.3533

                     31                     32                     33
                      A                      A                      A
 Frequencies --   1274.2786              1284.6854              1311.4626
 Red. masses --      1.4790                 1.6988                 1.4113
 Frc consts  --      1.4150                 1.6519                 1.4302
 IR Inten    --      3.1953                11.2848                 1.1447

                     34                     35                     36
                      A                      A                      A
 Frequencies --   1326.4884              1366.6674              1390.8240
 Red. masses --      1.3955                 1.3687                 1.4944
 Frc consts  --      1.4468                 1.5062                 1.7032
 IR Inten    --      7.3419                 1.3322                 3.8380

                     37                     38                     39
                      A                      A                      A
 Frequencies --   1409.3557              1417.1988              1483.8522
 Red. masses --      1.5252                 1.7832                 1.0537
 Frc consts  --      1.7849                 2.1101                 1.3669
 IR Inten    --      9.3533                23.1344                 2.0302

                     40                     41                     42
                      A                      A                      A
 Frequencies --   1497.3041              1509.5749              2966.6448
 Red. masses --      1.1257                 1.0517                 1.0838
 Frc consts  --      1.4869                 1.4120                 5.6199
 IR Inten    --      7.8443                 1.6320                57.1558

                     43                     44                     45
                      A                      A                      A
 Frequencies --   3043.5465              3057.8392              3103.1008
 Red. masses --      1.0411                 1.0578                 1.0990
 Frc consts  --      5.6823                 5.8276                 6.2352
 IR Inten    --     28.4693                28.3843                17.1732

                     46                     47                     48
                      A                      A                      A
 Frequencies --   3114.3257              3116.1065              3119.6094
 Red. masses --      1.1082                 1.0876                 1.0903
 Frc consts  --      6.3326                 6.2219                 6.2519
 IR Inten    --     27.3795                37.1679                14.7280

                     49                     50                     51
                      A                      A                      A
 Frequencies --   3148.1546              3161.9349              3171.7420
 Red. masses --      1.0881                 1.0962                 1.0972
 Frc consts  --      6.3539                 6.4574                 6.5033
 IR Inten    --     28.9946                29.6919                 5.9971

 - Thermochemistry -
 -------------------
 Temperature   298.150 Kelvin.  Pressure   1.00000 Atm.
 Atom     1 has atomic number  6 and mass  12.00000

 Molecular mass:   126.06808 amu.
 Principal axes and moments of inertia in atomic units:
                           1         2         3
     Eigenvalues --   712.35549 891.761481068.60703
           X            0.99775   0.06641   0.00941
           Y           -0.06629   0.99771  -0.01327
           Z           -0.01027   0.01261   0.99987
 This molecule is an asymmetric top.
 Rotational symmetry number  1.
 Warning -- assumption of classical behavior for rotation
           may cause significant error
 Rotational temperatures (Kelvin)      0.12159     0.09713     0.08105
 Rotational constants (GHZ):           2.53348     2.02379     1.68887
 Zero-point vibrational energy     423531.6 (Joules/Mol)
                                  101.22647 (Kcal/Mol)
 Warning -- explicit consideration of   8 degrees of freedom as
           vibrations may cause significant error
 Vibrational temperatures:    277.65   319.40   354.22   497.59   566.92
          (Kelvin)            673.39   712.44   847.00   923.74  1074.72
                             1105.22  1163.37  1192.09  1244.38  1289.66
                             1312.20  1340.08  1347.85  1369.07  1418.01
                             1478.31  1493.89  1535.27  1559.41  1601.15
                             1641.77  1652.82  1704.29  1780.74  1822.62
                             1833.40  1848.37  1886.90  1908.52  1966.33
                             2001.08  2027.75  2039.03  2134.93  2154.28
                             2171.94  4268.33  4378.98  4399.54  4464.66
                             4480.81  4483.38  4488.42  4529.49  4549.31
                             4563.42

 Zero-point correction=                           0.161315 (Hartree/Particle)
 Thermal correction to Energy=                    0.168197
 Thermal correction to Enthalpy=                  0.169141
 Thermal correction to Gibbs Free Energy=         0.130506
 Sum of electronic and zero-point Energies=           -423.002306
 Sum of electronic and thermal Energies=              -422.995424
 Sum of electronic and thermal Enthalpies=            -422.994480
 Sum of electronic and thermal Free Energies=         -423.033115

                     E (Thermal)             CV                S
                      KCal/Mol        Cal/Mol-Kelvin    Cal/Mol-Kelvin
 Total                  105.545             28.861             81.314
 Electronic               0.000              0.000              0.000
 Translational            0.889              2.981             40.409
 Rotational               0.889              2.981             28.009
 Vibrational            103.768             22.899             12.897
 Vibration     1          0.635              1.850              2.199
 Vibration     2          0.648              1.808              1.943
 Vibration     3          0.661              1.769              1.758
 Vibration     4          0.724              1.584              1.185
 Vibration     5          0.761              1.483              0.985
 Vibration     6          0.825              1.321              0.743
 Vibration     7          0.851              1.261              0.670
 Vibration     8          0.946              1.056              0.470

 Optimization completed.
    -- Stationary point found.
 Normal termination of Gaussian 09 at Tue Jan 28 04:01:54 2020.
