 Gaussian 09, Revision D.01,
 Gaussian 09:  ES64L-G09RevD.01 24-Apr-2013

 -----------------------------
 # b3lyp 6-31G(2df,p) opt Freq
 -----------------------------

 -----
 titel
 -----
 Symbolic Z-matrix:
 Charge =  0 Multiplicity = 1

 SCF Done:  E(RB3LYP) =  -423.163643002     A.U. after   13 cycles
 Optimization completed.
    -- Stationary point found.
 Normal termination of Gaussian 09 at Mon Jan 27 17:37:45 2020.

 ----------------------------------------------------------------------
 #N Geom=AllCheck Guess=TCheck SCRF=Check GenChk RB3LYP/6-31G(2df,p) Fr
 eq
 ----------------------------------------------------------------------

 Structure from the checkpoint file:  "/scratch/puck/g09_827eda0d-6f89-46ea-ba0d-ef1fcd3cf59d/Gau-73775.chk"
 -----
 titel
 -----
 Charge =  0 Multiplicity = 1

                         Standard orientation:
 ---------------------------------------------------------------------
 Center     Atomic      Atomic             Coordinates (Angstroms)
 Number     Number       Type             X           Y           Z
 ---------------------------------------------------------------------
      1          8           0       -1.604224    1.493169   -0.453192
      2          6           0       -1.143428    0.294715    0.039603
      3          6           0       -2.016568   -0.898639    0.161546
      4          6           0       -0.734936   -1.031248   -0.641771
      5          6           0        0.454938   -1.169154    0.316704
      6          6           0        1.832522   -0.899547   -0.296346
      7          6           0        1.830784    0.619170   -0.504217
      8          8           0        1.068424    1.153594    0.582429
      9          6           0        0.069783    0.211625    0.960785
     10          1           0       -0.831411    2.072918   -0.496161
     11          1           0       -2.143177   -1.425149    1.107208
     12          1           0       -2.918281   -0.841880   -0.440901
     13          1           0       -0.746814   -1.329134   -1.683971
     14          1           0        0.441817   -2.046564    0.969921
     15          1           0        2.617275   -1.183400    0.411978
     16          1           0        2.001473   -1.447641   -1.227672
     17          1           0        2.824214    1.073599   -0.464023
     18          1           0        1.370639    0.882751   -1.467571
     19          1           0       -0.087908    0.308865    2.039466
 ---------------------------------------------------------------------

 SCF Done:  E(RB3LYP) =  -423.163643002     A.U. after    1 cycles

 The electronic state is 1-A.
 Alpha  occ. eigenvalues --  -19.14645 -19.14533 -10.23564 -10.23106 -10.23061
 Alpha  occ. eigenvalues --  -10.19422 -10.18863 -10.18670 -10.18589  -1.04893
 Alpha  occ. eigenvalues --   -1.02502  -0.88301  -0.77499  -0.72773  -0.62737
 Alpha  occ. eigenvalues --   -0.61898  -0.57559  -0.55243  -0.51453  -0.50192
 Alpha  occ. eigenvalues --   -0.48882  -0.44863  -0.43312  -0.42046  -0.39863
 Alpha  occ. eigenvalues --   -0.37910  -0.37138  -0.36278  -0.33629  -0.31871
 Alpha  occ. eigenvalues --   -0.31027  -0.29467  -0.25571  -0.22674
 Alpha virt. eigenvalues --    0.07891   0.09886   0.10929   0.11364   0.12357
 Alpha virt. eigenvalues --    0.13619   0.14775   0.15057   0.15935   0.16763
 Alpha virt. eigenvalues --    0.17494   0.18825   0.19961   0.21717   0.22349

 Mulliken charges:
               1
     1  O   -0.463185
     2  C    0.428445
     3  C   -0.348080
     4  C   -0.154960
     5  C   -0.038173
     6  C   -0.238789
     7  C   -0.091896
     8  O   -0.277880
     9  C    0.014276
    10  H    0.292459
    11  H    0.101919
    12  H    0.122669
    13  H    0.085801
    14  H    0.069018
    15  H    0.108116
    16  H    0.105033
    17  H    0.112049
    18  H    0.097347
    19  H    0.075833
 Sum of Mulliken charges =   0.00000

 Dipole moment (field-independent basis, Debye):
    X=              1.3676    Y=             -1.2432    Z=             -0.4868  Tot=              1.9112
 Quadrupole moment (field-independent basis, Debye-Ang):
   XX=            -53.9891   YY=            -53.9926   ZZ=            -51.9711
   XY=              1.5002   XZ=             -2.1174   YZ=             -1.4456

  Exact polarizability:  84.064   2.183  71.903  -2.194  -1.218  66.653
 Approx polarizability: 112.482   1.151 110.713  -2.566   0.980 103.797

                      1                      2                      3
                      A                      A                      A
 Frequencies --    129.0239               171.5603               243.3312
 Red. masses --      4.3182                 2.6902                 3.4611
 Frc consts  --      0.0424                 0.0467                 0.1207
 IR Inten    --      0.6085                 1.9718                13.5537

                      4                      5                      6
                      A                      A                      A
 Frequencies --    308.7187               385.0456               414.7048
 Red. masses --      2.0731                 2.5533                 2.0693
 Frc consts  --      0.1164                 0.2230                 0.2097
 IR Inten    --      0.2639                 2.8259                10.0976

                      7                      8                      9
                      A                      A                      A
 Frequencies --    456.1548               515.6584               556.8750
 Red. masses --      1.4349                 3.8295                 4.3462
 Frc consts  --      0.1759                 0.5999                 0.7941
 IR Inten    --     52.3794                13.1389                 6.9932

                     10                     11                     12
                      A                      A                      A
 Frequencies --    660.5419               719.3609               816.4443
 Red. masses --      2.4002                 3.8908                 3.0795
 Frc consts  --      0.6170                 1.1863                 1.2094
 IR Inten    --      2.4181                 8.5384                 6.9592

                     13                     14                     15
                      A                      A                      A
 Frequencies --    830.1892               851.0772               890.8367
 Red. masses --      2.0170                 2.4639                 1.7537
 Frc consts  --      0.8190                 1.0515                 0.8200
 IR Inten    --      4.9299                11.1365                 7.0366

                     16                     17                     18
                      A                      A                      A
 Frequencies --    911.4341               926.3395               936.8687
 Red. masses --      2.9900                 3.3670                 2.1782
 Frc consts  --      1.4634                 1.7023                 1.1264
 IR Inten    --      4.4995                 6.8297                 6.6665

                     19                     20                     21
                      A                      A                      A
 Frequencies --    972.3003               975.0932              1007.1570
 Red. masses --      1.6530                 1.8647                 1.4409
 Frc consts  --      0.9207                 1.0446                 0.8611
 IR Inten    --     13.1029                19.5546                 4.5539

                     22                     23                     24
                      A                      A                      A
 Frequencies --   1026.4112              1066.9501              1105.2659
 Red. masses --      2.1739                 1.5957                 2.1216
 Frc consts  --      1.3494                 1.0702                 1.5270
 IR Inten    --      6.0781                10.8400                33.0955

                     25                     26                     27
                      A                      A                      A
 Frequencies --   1107.4001              1127.7326              1177.1097
 Red. masses --      2.4180                 2.1054                 1.5754
 Frc consts  --      1.7471                 1.5776                 1.2861
 IR Inten    --     49.9548                31.6531                 1.0584

                     28                     29                     30
                      A                      A                      A
 Frequencies --   1192.5836              1227.7008              1229.7739
 Red. masses --      1.6785                 1.4395                 1.3696
 Frc consts  --      1.4065                 1.2783                 1.2204
 IR Inten    --     32.6469                 4.8211                17.7135

                     31                     32                     33
                      A                      A                      A
 Frequencies --   1262.4581              1267.6395              1304.9667
 Red. masses --      1.6587                 1.4816                 1.4788
 Frc consts  --      1.5576                 1.4027                 1.4837
 IR Inten    --      5.1954                 9.3650                 2.4849

                     34                     35                     36
                      A                      A                      A
 Frequencies --   1324.3514              1350.1614              1375.0506
 Red. masses --      1.3318                 1.5229                 2.4297
 Frc consts  --      1.3763                 1.6357                 2.7067
 IR Inten    --     27.2317                36.2165               133.1654

                     37                     38                     39
                      A                      A                      A
 Frequencies --   1395.9133              1435.2143              1485.8635
 Red. masses --      1.3418                 1.5226                 1.0963
 Frc consts  --      1.5405                 1.8479                 1.4261
 IR Inten    --      3.8540                 8.9649                 2.8731

                     40                     41                     42
                      A                      A                      A
 Frequencies --   1507.3353              1520.9782              2997.0281
 Red. masses --      1.7232                 1.0930                 1.0706
 Frc consts  --      2.3067                 1.4897                 5.6656
 IR Inten    --     18.1225                 0.6106                47.3913

                     43                     44                     45
                      A                      A                      A
 Frequencies --   3048.6141              3056.7285              3067.9409
 Red. masses --      1.0680                 1.0810                 1.0857
 Frc consts  --      5.8480                 5.9510                 6.0210
 IR Inten    --      5.6312                47.4078                59.5996

                     46                     47                     48
                      A                      A                      A
 Frequencies --   3086.6277              3090.5405              3102.9846
 Red. masses --      1.0607                 1.0932                 1.1051
 Frc consts  --      5.9540                 6.1523                 6.2693
 IR Inten    --     36.6187                26.1787                33.7920

                     49                     50                     51
                      A                      A                      A
 Frequencies --   3175.5535              3192.5886              3754.4767
 Red. masses --      1.0941                 1.1072                 1.0650
 Frc consts  --      6.5004                 6.6493                 8.8450
 IR Inten    --      8.9828                10.6753                33.5208

 - Thermochemistry -
 -------------------
 Temperature   298.150 Kelvin.  Pressure   1.00000 Atm.
 Atom     1 has atomic number  8 and mass  15.99491

 Molecular mass:   126.06808 amu.
 Principal axes and moments of inertia in atomic units:
                           1         2         3
     Eigenvalues --   622.228691046.528641354.48888
           X            0.99969   0.01611  -0.01901
           Y           -0.01652   0.99964  -0.02134
           Z            0.01866   0.02165   0.99959
 This molecule is an asymmetric top.
 Rotational symmetry number  1.
 Warning -- assumption of classical behavior for rotation
           may cause significant error
 Rotational temperatures (Kelvin)      0.13920     0.08276     0.06395
 Rotational constants (GHZ):           2.90045     1.72450     1.33241
 Zero-point vibrational energy     423135.1 (Joules/Mol)
                                  101.13171 (Kcal/Mol)
 Warning -- explicit consideration of   9 degrees of freedom as
           vibrations may cause significant error
 Vibrational temperatures:    185.64   246.84   350.10   444.18   553.99
          (Kelvin)            596.67   656.30   741.92   801.22   950.37
                             1035.00  1174.68  1194.46  1224.51  1281.71
                             1311.35  1332.79  1347.94  1398.92  1402.94
                             1449.07  1476.77  1535.10  1590.23  1593.30
                             1622.55  1693.60  1715.86  1766.39  1769.37
                             1816.39  1823.85  1877.55  1905.44  1942.58
                             1978.39  2008.41  2064.95  2137.82  2168.72
                             2188.35  4312.05  4386.27  4397.95  4414.08
                             4440.96  4446.59  4464.50  4568.91  4593.42
                             5401.85

 Zero-point correction=                           0.161164 (Hartree/Particle)
 Thermal correction to Energy=                    0.168520
 Thermal correction to Enthalpy=                  0.169464
 Thermal correction to Gibbs Free Energy=         0.129652
 Sum of electronic and zero-point Energies=           -423.002479
 Sum of electronic and thermal Energies=              -422.995123
 Sum of electronic and thermal Enthalpies=            -422.994179
 Sum of electronic and thermal Free Energies=         -423.033991

                     E (Thermal)             CV                S
                      KCal/Mol        Cal/Mol-Kelvin    Cal/Mol-Kelvin
 Total                  105.748             29.962             83.792
 Electronic               0.000              0.000              0.000
 Translational            0.889              2.981             40.409
 Rotational               0.889              2.981             28.269
 Vibrational            103.971             24.001             15.115
 Vibration     1          0.612              1.924              2.961
 Vibration     2          0.626              1.877              2.418
 Vibration     3          0.659              1.774              1.778
 Vibration     4          0.698              1.657              1.369
 Vibration     5          0.754              1.502              1.019
 Vibration     6          0.778              1.438              0.910
 Vibration     7          0.814              1.347              0.777
 Vibration     8          0.871              1.215              0.620
 Vibration     9          0.912              1.125              0.530

 Optimization completed.
    -- Stationary point found.
 Normal termination of Gaussian 09 at Mon Jan 27 18:36:17 2020.
