 Gaussian 09, Revision D.01,
 Gaussian 09:  ES64L-G09RevD.01 24-Apr-2013

 -----------------------------
 # b3lyp 6-31G(2df,p) opt Freq
 -----------------------------

 -----
 titel
 -----
 Symbolic Z-matrix:
 Charge =  0 Multiplicity = 1

 SCF Done:  E(RB3LYP) =  -423.159635587     A.U. after   14 cycles
 Optimization completed.
    -- Stationary point found.
 Normal termination of Gaussian 09 at Tue Jan 28 02:53:29 2020.

 ----------------------------------------------------------------------
 #N Geom=AllCheck Guess=TCheck SCRF=Check GenChk RB3LYP/6-31G(2df,p) Fr
 eq
 ----------------------------------------------------------------------

 Structure from the checkpoint file:  "/scratch/puck/g09_c21a20f8-42b6-4b06-bd6b-e4442ce935fc/Gau-113760.chk"
 -----
 titel
 -----
 Charge =  0 Multiplicity = 1

                         Standard orientation:
 ---------------------------------------------------------------------
 Center     Atomic      Atomic             Coordinates (Angstroms)
 Number     Number       Type             X           Y           Z
 ---------------------------------------------------------------------
      1          6           0        1.489705   -1.607141   -0.433420
      2          6           0        0.392770   -0.604932   -0.202522
      3          8           0       -0.091747   -0.625417    1.202386
      4          6           0       -1.433499   -0.658699    0.707056
      5          6           0       -1.675892    0.463666   -0.280782
      6          6           0       -0.654388    1.591940   -0.298674
      7          6           0        0.725231    0.876494   -0.456901
      8          8           0        1.727943    1.336727    0.423180
      9          6           0       -1.039578   -0.843484   -0.723864
     10          1           0        2.383156   -1.310725    0.123617
     11          1           0        1.182944   -2.604752   -0.109677
     12          1           0        1.747595   -1.645716   -1.497449
     13          1           0       -2.190622   -1.124376    1.327051
     14          1           0       -2.709176    0.650333   -0.552749
     15          1           0       -0.845846    2.281613   -1.125464
     16          1           0       -0.658013    2.180591    0.624018
     17          1           0        1.123133    1.010615   -1.468930
     18          1           0        1.422866    1.087110    1.306612
     19          1           0       -1.371707   -1.522238   -1.496901
 ---------------------------------------------------------------------

 SCF Done:  E(RB3LYP) =  -423.159635587     A.U. after    1 cycles

 The electronic state is 1-A.
 Alpha  occ. eigenvalues --  -19.13963 -19.12935 -10.24097 -10.24050 -10.22802
 Alpha  occ. eigenvalues --  -10.19583 -10.19205 -10.18100 -10.17854  -1.05686
 Alpha  occ. eigenvalues --   -1.01031  -0.84907  -0.77018  -0.73360  -0.65885
 Alpha  occ. eigenvalues --   -0.61026  -0.57173  -0.53958  -0.51106  -0.49074
 Alpha  occ. eigenvalues --   -0.47767  -0.44686  -0.42359  -0.40881  -0.39554
 Alpha  occ. eigenvalues --   -0.38312  -0.36910  -0.36754  -0.34206  -0.33835
 Alpha  occ. eigenvalues --   -0.30933  -0.27378  -0.25527  -0.23366
 Alpha virt. eigenvalues --    0.07130   0.10352   0.10594   0.11981   0.12347
 Alpha virt. eigenvalues --    0.12711   0.13984   0.15374   0.16134   0.16758
 Alpha virt. eigenvalues --    0.17829   0.18910   0.20771   0.21799   0.22312

 Mulliken charges:
               1
     1  C   -0.489955
     2  C    0.394085
     3  O   -0.356786
     4  C    0.096280
     5  C   -0.088260
     6  C   -0.273376
     7  C    0.131153
     8  O   -0.445540
     9  C   -0.216814
    10  H    0.138526
    11  H    0.125631
    12  H    0.119328
    13  H    0.103467
    14  H    0.088928
    15  H    0.103541
    16  H    0.105272
    17  H    0.083413
    18  H    0.284937
    19  H    0.096169
 Sum of Mulliken charges =   0.00000

 Dipole moment (field-independent basis, Debye):
    X=             -1.8135    Y=             -0.8534    Z=             -1.1072  Tot=              2.2897
 Quadrupole moment (field-independent basis, Debye-Ang):
   XX=            -53.1601   YY=            -53.8909   ZZ=            -51.8770
   XY=             -2.1809   XZ=             -0.3910   YZ=              1.1634

  Exact polarizability:  78.734  -2.154  74.298  -1.333  -0.074  66.517
 Approx polarizability: 109.742  -0.788 103.615  -1.005  -0.398 109.978

                      1                      2                      3
                      A                      A                      A
 Frequencies --    114.0456               213.5783               245.3773
 Red. masses --      3.2227                 1.0636                 2.8077
 Frc consts  --      0.0247                 0.0286                 0.0996
 IR Inten    --      3.1581                 0.1230                 1.1729

                      4                      5                      6
                      A                      A                      A
 Frequencies --    293.9353               317.6239               399.0881
 Red. masses --      3.2766                 2.9103                 2.6237
 Frc consts  --      0.1668                 0.1730                 0.2462
 IR Inten    --      4.2071                 1.4278                 0.1148

                      7                      8                      9
                      A                      A                      A
 Frequencies --    484.1793               527.9234               534.9829
 Red. masses --      1.9836                 2.0225                 2.6575
 Frc consts  --      0.2740                 0.3321                 0.4481
 IR Inten    --     14.5834                52.3303                35.6346

                     10                     11                     12
                      A                      A                      A
 Frequencies --    581.7840               675.4288               746.5078
 Red. masses --      3.7430                 4.3776                 2.4164
 Frc consts  --      0.7464                 1.1766                 0.7934
 IR Inten    --      1.3826                 8.6647                 8.3848

                     13                     14                     15
                      A                      A                      A
 Frequencies --    763.3649               806.0696               827.4711
 Red. masses --      2.9541                 2.1291                 2.1476
 Frc consts  --      1.0142                 0.8151                 0.8664
 IR Inten    --     11.9149                 4.1180                 5.2024

                     16                     17                     18
                      A                      A                      A
 Frequencies --    835.0565               879.6961               919.1318
 Red. masses --      2.5103                 2.1789                 1.6449
 Frc consts  --      1.0313                 0.9935                 0.8187
 IR Inten    --     19.2830                 5.3738                10.1049

                     19                     20                     21
                      A                      A                      A
 Frequencies --    971.3815              1006.1446              1013.1983
 Red. masses --      1.5661                 2.9615                 2.0871
 Frc consts  --      0.8706                 1.7664                 1.2624
 IR Inten    --     10.4622                34.1603                23.4360

                     22                     23                     24
                      A                      A                      A
 Frequencies --   1036.5722              1044.1051              1053.9807
 Red. masses --      1.9618                 2.6479                 1.9364
 Frc consts  --      1.2419                 1.7007                 1.2674
 IR Inten    --      6.6059                33.0414                17.3138

                     25                     26                     27
                      A                      A                      A
 Frequencies --   1087.2228              1105.5211              1127.4676
 Red. masses --      1.5499                 2.3500                 2.1622
 Frc consts  --      1.0794                 1.6922                 1.6194
 IR Inten    --     13.6792                57.0770                19.9025

                     28                     29                     30
                      A                      A                      A
 Frequencies --   1177.6579              1204.1216              1209.8439
 Red. masses --      1.2655                 1.6692                 2.0617
 Frc consts  --      1.0341                 1.4259                 1.7780
 IR Inten    --     13.4070                 4.4222                 4.6561

                     31                     32                     33
                      A                      A                      A
 Frequencies --   1260.6785              1298.9549              1309.2132
 Red. masses --      1.8570                 1.6462                 1.7431
 Frc consts  --      1.7389                 1.6365                 1.7604
 IR Inten    --      7.1302                 3.0394                10.0161

                     34                     35                     36
                      A                      A                      A
 Frequencies --   1314.5282              1349.6675              1397.6792
 Red. masses --      1.5873                 1.8272                 2.6266
 Frc consts  --      1.6161                 1.9611                 3.0231
 IR Inten    --      8.0761                 2.4682                10.4577

                     37                     38                     39
                      A                      A                      A
 Frequencies --   1408.5610              1440.2055              1481.4778
 Red. masses --      1.4459                 1.2747                 1.0584
 Frc consts  --      1.6902                 1.5578                 1.3686
 IR Inten    --     11.8763                68.8548                 5.4539

                     40                     41                     42
                      A                      A                      A
 Frequencies --   1488.5775              1491.7596              3039.2810
 Red. masses --      1.0560                 1.0827                 1.0377
 Frc consts  --      1.3787                 1.4196                 5.6473
 IR Inten    --      3.5179                 2.0057                 9.8277

                     43                     44                     45
                      A                      A                      A
 Frequencies --   3049.2627              3054.5248              3095.4647
 Red. masses --      1.0751                 1.0688                 1.1044
 Frc consts  --      5.8896                 5.8752                 6.2348
 IR Inten    --     33.3629                26.8557                23.9199

                     46                     47                     48
                      A                      A                      A
 Frequencies --   3110.4402              3126.9748              3172.5774
 Red. masses --      1.0991                 1.1026                 1.0892
 Frc consts  --      6.2651                 6.3520                 6.4594
 IR Inten    --     15.0348                11.4531                 7.6853

                     49                     50                     51
                      A                      A                      A
 Frequencies --   3182.6989              3210.1786              3752.1684
 Red. masses --      1.0917                 1.0990                 1.0647
 Frc consts  --      6.5156                 6.6729                 8.8319
 IR Inten    --     30.5591                11.0862                21.9919

 - Thermochemistry -
 -------------------
 Temperature   298.150 Kelvin.  Pressure   1.00000 Atm.
 Atom     1 has atomic number  6 and mass  12.00000

 Molecular mass:   126.06808 amu.
 Principal axes and moments of inertia in atomic units:
                           1         2         3
     Eigenvalues --   750.24120 881.847671220.48842
           X            0.98167  -0.19038  -0.00904
           Y            0.19052   0.98150   0.01887
           Z            0.00528  -0.02024   0.99978
 This molecule is an asymmetric top.
 Rotational symmetry number  1.
 Warning -- assumption of classical behavior for rotation
           may cause significant error
 Rotational temperatures (Kelvin)      0.11545     0.09822     0.07097
 Rotational constants (GHZ):           2.40555     2.04655     1.47870
 Zero-point vibrational energy     420112.6 (Joules/Mol)
                                  100.40931 (Kcal/Mol)
 Warning -- explicit consideration of  10 degrees of freedom as
           vibrations may cause significant error
 Vibrational temperatures:    164.09   307.29   353.04   422.91   456.99
          (Kelvin)            574.20   696.63   759.56   769.72   837.06
                              971.79  1074.06  1098.31  1159.75  1190.54
                             1201.46  1265.68  1322.42  1397.60  1447.62
                             1457.76  1491.39  1502.23  1516.44  1564.27
                             1590.60  1622.17  1694.38  1732.46  1740.69
                             1813.83  1868.90  1883.66  1891.31  1941.87
                             2010.95  2026.60  2072.13  2131.51  2141.73
                             2146.31  4372.84  4387.20  4394.77  4453.68
                             4475.22  4499.01  4564.63  4579.19  4618.73
                             5398.53

 Zero-point correction=                           0.160012 (Hartree/Particle)
 Thermal correction to Energy=                    0.167586
 Thermal correction to Enthalpy=                  0.168530
 Thermal correction to Gibbs Free Energy=         0.128436
 Sum of electronic and zero-point Energies=           -422.999623
 Sum of electronic and thermal Energies=              -422.992050
 Sum of electronic and thermal Enthalpies=            -422.991106
 Sum of electronic and thermal Free Energies=         -423.031199

                     E (Thermal)             CV                S
                      KCal/Mol        Cal/Mol-Kelvin    Cal/Mol-Kelvin
 Total                  105.162             31.026             84.384
 Electronic               0.000              0.000              0.000
 Translational            0.889              2.981             40.409
 Rotational               0.889              2.981             28.181
 Vibrational            103.384             25.064             15.794
 Vibration     1          0.607              1.938              3.199
 Vibration     2          0.644              1.820              2.013
 Vibration     3          0.660              1.770              1.764
 Vibration     4          0.689              1.685              1.451
 Vibration     5          0.704              1.640              1.322
 Vibration     6          0.765              1.472              0.966
 Vibration     7          0.840              1.285              0.699
 Vibration     8          0.883              1.188              0.592
 Vibration     9          0.890              1.173              0.576
 Vibration    10          0.939              1.071              0.482

 Optimization completed.
    -- Stationary point found.
 Normal termination of Gaussian 09 at Tue Jan 28 03:40:45 2020.
