 Gaussian 09, Revision D.01,
 Gaussian 09:  ES64L-G09RevD.01 24-Apr-2013

 -----------------------------
 # b3lyp 6-31G(2df,p) opt Freq
 -----------------------------

 -----
 titel
 -----
 Symbolic Z-matrix:
 Charge =  0 Multiplicity = 1

 SCF Done:  E(RB3LYP) =  -423.149389116     A.U. after   13 cycles
 Optimization completed.
    -- Stationary point found.
 Normal termination of Gaussian 09 at Mon Jan 27 12:16:34 2020.

 ----------------------------------------------------------------------
 #N Geom=AllCheck Guess=TCheck SCRF=Check GenChk RB3LYP/6-31G(2df,p) Fr
 eq
 ----------------------------------------------------------------------

 Structure from the checkpoint file:  "/scratch/puck/g09_cbb04e6b-b12b-43ae-aeaa-e18cd182ae75/Gau-45214.chk"
 -----
 titel
 -----
 Charge =  0 Multiplicity = 1

                         Standard orientation:
 ---------------------------------------------------------------------
 Center     Atomic      Atomic             Coordinates (Angstroms)
 Number     Number       Type             X           Y           Z
 ---------------------------------------------------------------------
      1          6           0        1.950278   -0.652652   -0.132347
      2          8           0        1.946858    0.799831   -0.070023
      3          6           0        0.620394    0.792055    0.520431
      4          6           0       -0.496722    1.641018   -0.071119
      5          6           0       -1.807342    0.806271    0.067309
      6          6           0       -1.511327   -0.684966   -0.235752
      7          6           0       -0.663587   -1.400506    0.857733
      8          6           0        0.442632   -0.671565    0.098698
      9          8           0       -0.348080   -0.728253   -1.116377
     10          1           0        2.284321   -1.028614   -1.104044
     11          1           0        2.549174   -1.098763    0.672723
     12          1           0        0.696109    0.915874    1.611207
     13          1           0       -0.597095    2.619038    0.406210
     14          1           0       -0.283623    1.796096   -1.130172
     15          1           0       -2.237579    0.904867    1.071001
     16          1           0       -2.555411    1.186626   -0.634652
     17          1           0       -2.367026   -1.219344   -0.653455
     18          1           0       -0.818483   -1.143357    1.908424
     19          1           0       -0.666574   -2.482977    0.714236
 ---------------------------------------------------------------------

 SCF Done:  E(RB3LYP) =  -423.149389116     A.U. after    1 cycles

 The electronic state is 1-A.
 Alpha  occ. eigenvalues --  -19.13561 -19.13140 -10.24305 -10.23927 -10.23087
 Alpha  occ. eigenvalues --  -10.22502 -10.19407 -10.19115 -10.18279  -1.05950
 Alpha  occ. eigenvalues --   -1.02109  -0.79574  -0.74663  -0.72699  -0.68846
 Alpha  occ. eigenvalues --   -0.61359  -0.58245  -0.52742  -0.51353  -0.48846
 Alpha  occ. eigenvalues --   -0.47896  -0.44927  -0.42342  -0.41444  -0.39835
 Alpha  occ. eigenvalues --   -0.38541  -0.37616  -0.35643  -0.34994  -0.32274
 Alpha  occ. eigenvalues --   -0.31207  -0.29615  -0.24897  -0.24002
 Alpha virt. eigenvalues --    0.07089   0.08273   0.10397   0.11497   0.12044
 Alpha virt. eigenvalues --    0.13498   0.14172   0.15018   0.15491   0.16400
 Alpha virt. eigenvalues --    0.17352   0.18213   0.19426   0.21123   0.22020

 Mulliken charges:
               1
     1  C   -0.197088
     2  O   -0.308774
     3  C    0.123262
     4  C   -0.235046
     5  C   -0.234870
     6  C    0.089377
     7  C   -0.331457
     8  C    0.381752
     9  O   -0.309602
    10  H    0.121449
    11  H    0.101953
    12  H    0.066900
    13  H    0.095710
    14  H    0.128549
    15  H    0.103320
    16  H    0.110712
    17  H    0.082310
    18  H    0.099345
    19  H    0.112198
 Sum of Mulliken charges =   0.00000

 Dipole moment (field-independent basis, Debye):
    X=             -1.7040    Y=             -0.9184    Z=              1.7036  Tot=              2.5787
 Quadrupole moment (field-independent basis, Debye-Ang):
   XX=            -53.0845   YY=            -52.4037   ZZ=            -54.0280
   XY=             -3.6648   XZ=              0.2289   YZ=             -0.6756

  Exact polarizability:  81.930  -3.767  74.339  -0.202  -0.024  65.140
 Approx polarizability: 112.003  -2.402 104.805  -1.708   1.788 105.108

                      1                      2                      3
                      A                      A                      A
 Frequencies --    174.5788               216.4797               328.7677
 Red. masses --      3.4118                 1.9563                 2.3826
 Frc consts  --      0.0613                 0.0540                 0.1517
 IR Inten    --      3.0521                 0.7168                 1.4408

                      4                      5                      6
                      A                      A                      A
 Frequencies --    368.7557               386.5543               450.5942
 Red. masses --      2.4968                 3.3406                 2.8734
 Frc consts  --      0.2000                 0.2941                 0.3437
 IR Inten    --      2.1937                 2.7270                 4.9438

                      7                      8                      9
                      A                      A                      A
 Frequencies --    525.8780               540.1746               636.3331
 Red. masses --      5.2910                 3.7947                 2.6699
 Frc consts  --      0.8621                 0.6524                 0.6370
 IR Inten    --      0.1870                 1.2863                 3.5199

                     10                     11                     12
                      A                      A                      A
 Frequencies --    779.2381               791.4302               806.9795
 Red. masses --      1.8815                 2.5845                 3.3965
 Frc consts  --      0.6731                 0.9538                 1.3032
 IR Inten    --      4.2737                 1.7805                16.2401

                     13                     14                     15
                      A                      A                      A
 Frequencies --    836.8742               878.4802               903.8688
 Red. masses --      1.9738                 3.5594                 2.7507
 Frc consts  --      0.8145                 1.6184                 1.3241
 IR Inten    --     11.5255                13.2738                32.0681

                     16                     17                     18
                      A                      A                      A
 Frequencies --    936.6884               958.7426               978.2470
 Red. masses --      2.0179                 2.6095                 4.2970
 Frc consts  --      1.0431                 1.4132                 2.4227
 IR Inten    --      7.6676                 7.8344                66.0322

                     19                     20                     21
                      A                      A                      A
 Frequencies --    988.9464               997.8247              1062.3388
 Red. masses --      4.1770                 2.1853                 1.7492
 Frc consts  --      2.4069                 1.2820                 1.1631
 IR Inten    --     17.5971                21.5768                10.2877

                     22                     23                     24
                      A                      A                      A
 Frequencies --   1072.2472              1100.2708              1105.7075
 Red. masses --      2.2078                 2.6946                 1.4614
 Frc consts  --      1.4956                 1.9220                 1.0527
 IR Inten    --     32.1492                 4.6455                 0.7206

                     25                     26                     27
                      A                      A                      A
 Frequencies --   1159.4076              1180.8898              1197.2057
 Red. masses --      1.2735                 1.2900                 1.7098
 Frc consts  --      1.0086                 1.0599                 1.4439
 IR Inten    --      3.5800                 3.2109                 1.4444

                     28                     29                     30
                      A                      A                      A
 Frequencies --   1208.2857              1234.3446              1263.5566
 Red. masses --      1.6414                 1.5266                 1.8832
 Frc consts  --      1.4119                 1.3704                 1.7715
 IR Inten    --      0.9097                 0.8331                24.8263

                     31                     32                     33
                      A                      A                      A
 Frequencies --   1284.7462              1298.1394              1318.9824
 Red. masses --      1.3422                 1.7004                 1.3445
 Frc consts  --      1.3053                 1.6883                 1.3781
 IR Inten    --      1.4542                11.1484                 2.0916

                     34                     35                     36
                      A                      A                      A
 Frequencies --   1343.9984              1355.2140              1379.1520
 Red. masses --      1.4469                 1.4003                 2.3179
 Frc consts  --      1.5399                 1.5153                 2.5976
 IR Inten    --      1.9260                 1.9725                 8.9659

                     37                     38                     39
                      A                      A                      A
 Frequencies --   1387.4425              1479.8571              1488.6448
 Red. masses --      1.4267                 1.0925                 1.1404
 Frc consts  --      1.6182                 1.4097                 1.4890
 IR Inten    --      6.2139                 0.7223                 6.1990

                     40                     41                     42
                      A                      A                      A
 Frequencies --   1496.2280              1500.6499              2987.4170
 Red. masses --      1.1107                 1.1246                 1.0827
 Frc consts  --      1.4651                 1.4921                 5.6930
 IR Inten    --      2.6928                 1.2123                41.2052

                     43                     44                     45
                      A                      A                      A
 Frequencies --   3015.9092              3038.8986              3063.4258
 Red. masses --      1.0629                 1.0625                 1.0580
 Frc consts  --      5.6960                 5.7813                 5.8501
 IR Inten    --     62.6150                24.5103                28.3498

                     46                     47                     48
                      A                      A                      A
 Frequencies --   3071.1938              3081.3165              3089.3568
 Red. masses --      1.0630                 1.0973                 1.1037
 Frc consts  --      5.9074                 6.1384                 6.2061
 IR Inten    --     23.7046                27.8352                21.8792

                     49                     50                     51
                      A                      A                      A
 Frequencies --   3094.6409              3127.0044              3129.4719
 Red. masses --      1.0918                 1.1055                 1.1071
 Frc consts  --      6.1605                 6.3691                 6.3883
 IR Inten    --     51.9441                 2.4301                38.7397

 - Thermochemistry -
 -------------------
 Temperature   298.150 Kelvin.  Pressure   1.00000 Atm.
 Atom     1 has atomic number  6 and mass  12.00000

 Molecular mass:   126.06808 amu.
 Principal axes and moments of inertia in atomic units:
                           1         2         3
     Eigenvalues --   625.87914 951.595881255.95360
           X            0.99771  -0.06751  -0.00462
           Y            0.06738   0.99746  -0.02311
           Z            0.00616   0.02274   0.99972
 This molecule is an asymmetric top.
 Rotational symmetry number  1.
 Warning -- assumption of classical behavior for rotation
           may cause significant error
 Rotational temperatures (Kelvin)      0.13839     0.09102     0.06896
 Rotational constants (GHZ):           2.88353     1.89654     1.43695
 Zero-point vibrational energy     425280.7 (Joules/Mol)
                                  101.64452 (Kcal/Mol)
 Warning -- explicit consideration of   8 degrees of freedom as
           vibrations may cause significant error
 Vibrational temperatures:    251.18   311.47   473.02   530.56   556.16
          (Kelvin)            648.30   756.62   777.19   915.54  1121.15
                             1138.69  1161.06  1204.07  1263.94  1300.46
                             1347.68  1379.42  1407.48  1422.87  1435.65
                             1528.47  1542.72  1583.04  1590.86  1668.13
                             1699.03  1722.51  1738.45  1775.94  1817.97
                             1848.46  1867.73  1897.72  1933.71  1949.85
                             1984.29  1996.22  2129.18  2141.83  2152.74
                             2159.10  4298.22  4339.22  4372.29  4407.58
                             4418.76  4433.32  4444.89  4452.49  4499.06
                             4502.61

 Zero-point correction=                           0.161981 (Hartree/Particle)
 Thermal correction to Energy=                    0.168726
 Thermal correction to Enthalpy=                  0.169670
 Thermal correction to Gibbs Free Energy=         0.131205
 Sum of electronic and zero-point Energies=           -422.987408
 Sum of electronic and thermal Energies=              -422.980663
 Sum of electronic and thermal Enthalpies=            -422.979719
 Sum of electronic and thermal Free Energies=         -423.018184

                     E (Thermal)             CV                S
                      KCal/Mol        Cal/Mol-Kelvin    Cal/Mol-Kelvin
 Total                  105.877             28.238             80.957
 Electronic               0.000              0.000              0.000
 Translational            0.889              2.981             40.409
 Rotational               0.889              2.981             28.105
 Vibrational            104.100             22.276             12.443
 Vibration     1          0.627              1.874              2.386
 Vibration     2          0.645              1.816              1.988
 Vibration     3          0.712              1.618              1.266
 Vibration     4          0.741              1.536              1.085
 Vibration     5          0.755              1.499              1.013
 Vibration     6          0.809              1.360              0.794
 Vibration     7          0.881              1.193              0.596
 Vibration     8          0.895              1.161              0.565

 Optimization completed.
    -- Stationary point found.
 Normal termination of Gaussian 09 at Mon Jan 27 13:03:58 2020.
