 Gaussian 09, Revision D.01,
 Gaussian 09:  ES64L-G09RevD.01 24-Apr-2013

 -----------------------------
 # b3lyp 6-31G(2df,p) opt Freq
 -----------------------------

 -----
 titel
 -----
 Symbolic Z-matrix:
 Charge =  0 Multiplicity = 1

 SCF Done:  E(RB3LYP) =  -423.188218109     A.U. after   14 cycles
 Optimization completed.
    -- Stationary point found.
 Normal termination of Gaussian 09 at Mon Jan 27 13:58:18 2020.

 ----------------------------------------------------------------------
 #N Geom=AllCheck Guess=TCheck SCRF=Check GenChk RB3LYP/6-31G(2df,p) Fr
 eq
 ----------------------------------------------------------------------

 Structure from the checkpoint file:  "/scratch/puck/g09_40bc8547-eb62-45af-84d2-db72672ba064/Gau-3622.chk"
 -----
 titel
 -----
 Charge =  0 Multiplicity = 1

                         Standard orientation:
 ---------------------------------------------------------------------
 Center     Atomic      Atomic             Coordinates (Angstroms)
 Number     Number       Type             X           Y           Z
 ---------------------------------------------------------------------
      1          8           0        2.381630    0.553604   -0.641957
      2          6           0        2.250954   -0.239057    0.252131
      3          8           0        1.146917   -0.937735    0.539277
      4          6           0        0.025485   -0.759059   -0.345796
      5          6           0       -1.124160   -1.745687   -0.063296
      6          6           0       -2.131504   -0.560534   -0.173506
      7          6           0       -0.937486    0.401356   -0.074296
      8          6           0       -0.814874    1.831507   -0.501287
      9          6           0       -0.746145    1.467335    0.963953
     10          1           0        3.037924   -0.507834    0.974314
     11          1           0        0.393836   -0.773422   -1.374259
     12          1           0       -1.240868   -2.581130   -0.755744
     13          1           0       -1.053909   -2.130123    0.956523
     14          1           0       -2.632711   -0.520016   -1.145058
     15          1           0       -2.886847   -0.490701    0.612777
     16          1           0        0.107318    2.126125   -0.989626
     17          1           0       -1.707308    2.331602   -0.864202
     18          1           0        0.215070    1.534668    1.462483
     19          1           0       -1.594504    1.708714    1.596815
 ---------------------------------------------------------------------

 SCF Done:  E(RB3LYP) =  -423.188218109     A.U. after    1 cycles

 The electronic state is 1-A.
 Alpha  occ. eigenvalues --  -19.18901 -19.13457 -10.30916 -10.24347 -10.19742
 Alpha  occ. eigenvalues --  -10.18965 -10.18860 -10.18617 -10.18080  -1.10560
 Alpha  occ. eigenvalues --   -1.02175  -0.87684  -0.80644  -0.69900  -0.62435
 Alpha  occ. eigenvalues --   -0.60610  -0.59826  -0.53447  -0.52123  -0.49699
 Alpha  occ. eigenvalues --   -0.48187  -0.47065  -0.44270  -0.42896  -0.38458
 Alpha  occ. eigenvalues --   -0.37332  -0.36711  -0.36021  -0.34853  -0.33689
 Alpha  occ. eigenvalues --   -0.29788  -0.28475  -0.27606  -0.27344
 Alpha virt. eigenvalues --    0.00667   0.07725   0.10021   0.10424   0.11289
 Alpha virt. eigenvalues --    0.12934   0.14388   0.15272   0.16532   0.17285
 Alpha virt. eigenvalues --    0.18125   0.18822   0.20249   0.21954   0.22874

 Mulliken charges:
               1
     1  O   -0.307154
     2  C    0.173094
     3  O   -0.209984
     4  C    0.082535
     5  C   -0.258678
     6  C   -0.311212
     7  C    0.349194
     8  C   -0.332272
     9  C   -0.318281
    10  H    0.110296
    11  H    0.104087
    12  H    0.106026
    13  H    0.120262
    14  H    0.107616
    15  H    0.106285
    16  H    0.138654
    17  H    0.109073
    18  H    0.118999
    19  H    0.111461
 Sum of Mulliken charges =   0.00000

 Dipole moment (field-independent basis, Debye):
    X=             -1.3954    Y=             -1.0813    Z=              0.7789  Tot=              1.9295
 Quadrupole moment (field-independent basis, Debye-Ang):
   XX=            -52.8195   YY=            -53.9474   ZZ=            -52.7972
   XY=             -2.6194   XZ=              3.4956   YZ=              1.7088

  Exact polarizability:  84.148   2.539  76.896   2.161  -1.613  66.956
 Approx polarizability: 110.319   5.765 109.597   0.055  -8.060 107.187

                      1                      2                      3
                      A                      A                      A
 Frequencies --     45.1933                83.1942               165.1339
 Red. masses --      5.5566                 2.8057                 3.4327
 Frc consts  --      0.0067                 0.0114                 0.0552
 IR Inten    --      1.4564                 0.9906                 1.6814

                      4                      5                      6
                      A                      A                      A
 Frequencies --    202.8265               253.3373               298.7472
 Red. masses --      3.2182                 2.7441                 2.3988
 Frc consts  --      0.0780                 0.1038                 0.1261
 IR Inten    --      4.4194                 2.7976                 8.4709

                      7                      8                      9
                      A                      A                      A
 Frequencies --    339.0839               380.3108               516.3539
 Red. masses --      2.5651                 2.9032                 3.4100
 Frc consts  --      0.1738                 0.2474                 0.5357
 IR Inten    --      6.4119                 2.5705                 4.7200

                     10                     11                     12
                      A                      A                      A
 Frequencies --    555.4075               707.2628               763.3944
 Red. masses --      3.6208                 2.2810                 1.7817
 Frc consts  --      0.6581                 0.6723                 0.6118
 IR Inten    --      1.8035                 0.6782                 1.5550

                     13                     14                     15
                      A                      A                      A
 Frequencies --    777.0381               819.3705               867.1038
 Red. masses --      1.0747                 2.6564                 2.3958
 Frc consts  --      0.3823                 1.0507                 1.0613
 IR Inten    --      0.3765                 6.5440                 2.8337

                     16                     17                     18
                      A                      A                      A
 Frequencies --    894.4904               922.5375               935.9918
 Red. masses --      2.0822                 1.2086                 2.6398
 Frc consts  --      0.9816                 0.6060                 1.3626
 IR Inten    --      2.2207                 1.6329                 1.0502

                     19                     20                     21
                      A                      A                      A
 Frequencies --    962.8025              1000.4105              1044.6508
 Red. masses --      3.1324                 2.1814                 1.8371
 Frc consts  --      1.7108                 1.2863                 1.1812
 IR Inten    --     21.2953                15.0620                 3.0768

                     22                     23                     24
                      A                      A                      A
 Frequencies --   1051.1941              1051.7460              1077.7537
 Red. masses --      2.1261                 1.5222                 1.4299
 Frc consts  --      1.3842                 0.9921                 0.9786
 IR Inten    --     15.3696                 5.4172                 1.0019

                     25                     26                     27
                      A                      A                      A
 Frequencies --   1117.8873              1142.7309              1189.4000
 Red. masses --      2.5090                 1.6321                 1.3321
 Frc consts  --      1.8473                 1.2557                 1.1103
 IR Inten    --      1.1107                 4.4155                10.0750

                     28                     29                     30
                      A                      A                      A
 Frequencies --   1196.6056              1210.2570              1236.0967
 Red. masses --      1.5604                 6.6927                 1.4775
 Frc consts  --      1.3164                 5.7758                 1.3301
 IR Inten    --     21.7755               343.8502                 0.1000

                     31                     32                     33
                      A                      A                      A
 Frequencies --   1246.9383              1279.6724              1283.4869
 Red. masses --      1.2386                 1.5568                 1.6742
 Frc consts  --      1.1346                 1.5020                 1.6250
 IR Inten    --      0.3930                 2.0637                 2.1917

                     34                     35                     36
                      A                      A                      A
 Frequencies --   1379.3732              1384.4208              1408.6463
 Red. masses --      2.0111                 1.5161                 1.1501
 Frc consts  --      2.2545                 1.7120                 1.3446
 IR Inten    --      1.2059                14.9865                 1.3473

                     37                     38                     39
                      A                      A                      A
 Frequencies --   1459.9329              1478.5075              1498.3036
 Red. masses --      1.0877                 1.0946                 1.1782
 Frc consts  --      1.3659                 1.4098                 1.5583
 IR Inten    --      3.4483                 1.5042                 2.7838

                     40                     41                     42
                      A                      A                      A
 Frequencies --   1501.8439              1811.2840              3025.4214
 Red. masses --      1.4583                 9.5071                 1.0900
 Frc consts  --      1.9379                18.3769                 5.8782
 IR Inten    --      1.4330               234.4722                70.4580

                     43                     44                     45
                      A                      A                      A
 Frequencies --   3054.8004              3075.7405              3083.0577
 Red. masses --      1.0584                 1.0590                 1.0864
 Frc consts  --      5.8195                 5.9026                 6.0841
 IR Inten    --     35.3547                28.1831                13.3182

                     46                     47                     48
                      A                      A                      A
 Frequencies --   3103.4791              3125.5376              3130.4796
 Red. masses --      1.1073                 1.0519                 1.0569
 Frc consts  --      6.2834                 6.0544                 6.1025
 IR Inten    --     13.2246                15.3351                10.7805

                     49                     50                     51
                      A                      A                      A
 Frequencies --   3134.9397              3206.6388              3223.8332
 Red. masses --      1.1079                 1.1171                 1.1156
 Frc consts  --      6.4154                 6.7674                 6.8312
 IR Inten    --     29.7403                 3.7859                 9.1423

 - Thermochemistry -
 -------------------
 Temperature   298.150 Kelvin.  Pressure   1.00000 Atm.
 Atom     1 has atomic number  8 and mass  15.99491

 Molecular mass:   126.06808 amu.
 Principal axes and moments of inertia in atomic units:
                           1         2         3
     Eigenvalues --   726.773541216.618691653.74689
           X            0.99995   0.00119   0.01033
           Y           -0.00132   0.99991   0.01321
           Z           -0.01031  -0.01323   0.99986
 This molecule is an asymmetric top.
 Rotational symmetry number  1.
 Warning -- assumption of classical behavior for rotation
           may cause significant error
 Rotational temperatures (Kelvin)      0.11918     0.07119     0.05237
 Rotational constants (GHZ):           2.48322     1.48341     1.09130
 Zero-point vibrational energy     416926.4 (Joules/Mol)
                                   99.64780 (Kcal/Mol)
 Warning -- explicit consideration of  10 degrees of freedom as
           vibrations may cause significant error
 Vibrational temperatures:     65.02   119.70   237.59   291.82   364.50
          (Kelvin)            429.83   487.87   547.18   742.92   799.11
                             1017.59  1098.35  1117.98  1178.89  1247.57
                             1286.97  1327.32  1346.68  1385.26  1439.37
                             1503.02  1512.43  1513.23  1550.65  1608.39
                             1644.13  1711.28  1721.65  1741.29  1778.47
                             1794.06  1841.16  1846.65  1984.61  1991.87
                             2026.73  2100.52  2127.24  2155.72  2160.82
                             2606.03  4352.90  4395.17  4425.30  4435.83
                             4465.21  4496.95  4504.06  4510.47  4613.63
                             4638.37

 Zero-point correction=                           0.158799 (Hartree/Particle)
 Thermal correction to Energy=                    0.167383
 Thermal correction to Enthalpy=                  0.168328
 Thermal correction to Gibbs Free Energy=         0.124793
 Sum of electronic and zero-point Energies=           -423.029419
 Sum of electronic and thermal Energies=              -423.020835
 Sum of electronic and thermal Enthalpies=            -423.019891
 Sum of electronic and thermal Free Energies=         -423.063425

                     E (Thermal)             CV                S
                      KCal/Mol        Cal/Mol-Kelvin    Cal/Mol-Kelvin
 Total                  105.035             31.867             91.626
 Electronic               0.000              0.000              0.000
 Translational            0.889              2.981             40.409
 Rotational               0.889              2.981             28.771
 Vibrational            103.257             25.906             22.446
 Vibration     1          0.595              1.979              5.017
 Vibration     2          0.600              1.961              3.814
 Vibration     3          0.624              1.885              2.490
 Vibration     4          0.639              1.836              2.107
 Vibration     5          0.665              1.757              1.707
 Vibration     6          0.692              1.676              1.424
 Vibration     7          0.719              1.597              1.216
 Vibration     8          0.750              1.512              1.038
 Vibration     9          0.871              1.214              0.618
 Vibration    10          0.911              1.128              0.533

 Optimization completed.
    -- Stationary point found.
 Normal termination of Gaussian 09 at Mon Jan 27 15:58:18 2020.
