 Gaussian 09, Revision D.01,
 Gaussian 09:  ES64L-G09RevD.01 24-Apr-2013

 -----------------------------
 # b3lyp 6-31G(2df,p) opt Freq
 -----------------------------

 -----
 titel
 -----
 Symbolic Z-matrix:
 Charge =  0 Multiplicity = 1

 SCF Done:  E(RB3LYP) =  -423.168388632     A.U. after   14 cycles
 Optimization completed.
    -- Stationary point found.
 Normal termination of Gaussian 09 at Mon Jan 27 14:08:55 2020.

 ----------------------------------------------------------------------
 #N Geom=AllCheck Guess=TCheck SCRF=Check GenChk RB3LYP/6-31G(2df,p) Fr
 eq
 ----------------------------------------------------------------------

 Structure from the checkpoint file:  "/scratch/puck/g09_4ba86959-e608-41ca-a0fe-17067648ed05/Gau-78222.chk"
 -----
 titel
 -----
 Charge =  0 Multiplicity = 1

                         Standard orientation:
 ---------------------------------------------------------------------
 Center     Atomic      Atomic             Coordinates (Angstroms)
 Number     Number       Type             X           Y           Z
 ---------------------------------------------------------------------
      1          6           0       -2.593669    1.169217    0.142742
      2          6           0       -1.763394   -0.096664    0.024698
      3          8           0       -2.210034   -1.111498   -0.460176
      4          6           0       -0.330384    0.004331    0.522565
      5          6           0        0.464361   -1.331737    0.555710
      6          6           0        1.477994   -0.755040   -0.448785
      7          8           0        2.561257   -0.035321    0.183854
      8          6           0        1.905052    1.235653   -0.021432
      9          6           0        0.648628    0.553200   -0.579358
     10          1           0       -2.040827    2.039495   -0.227030
     11          1           0       -3.529359    1.057567   -0.406177
     12          1           0       -2.815649    1.361119    1.199346
     13          1           0       -0.303618    0.604801    1.437415
     14          1           0        0.890258   -1.628093    1.515768
     15          1           0       -0.137035   -2.144271    0.140850
     16          1           0        1.823778   -1.377444   -1.277752
     17          1           0        1.790537    1.806871    0.908973
     18          1           0        2.446466    1.850322   -0.752965
     19          1           0        0.214130    0.930419   -1.504689
 ---------------------------------------------------------------------

 SCF Done:  E(RB3LYP) =  -423.168388632     A.U. after    1 cycles

 The electronic state is 1-A.
 Alpha  occ. eigenvalues --  -19.13466 -19.13261 -10.27271 -10.23685 -10.23617
 Alpha  occ. eigenvalues --  -10.20505 -10.20146 -10.19355 -10.18080  -1.04425
 Alpha  occ. eigenvalues --   -1.04081  -0.83595  -0.75336  -0.72137  -0.66975
 Alpha  occ. eigenvalues --   -0.63180  -0.55288  -0.52308  -0.49896  -0.48913
 Alpha  occ. eigenvalues --   -0.47675  -0.44619  -0.43712  -0.43620  -0.41867
 Alpha  occ. eigenvalues --   -0.40209  -0.37320  -0.36697  -0.34942  -0.33358
 Alpha  occ. eigenvalues --   -0.31193  -0.29170  -0.25147  -0.24463
 Alpha virt. eigenvalues --   -0.01736   0.06606   0.08890   0.09633   0.10644
 Alpha virt. eigenvalues --    0.11608   0.14002   0.14743   0.15814   0.16178
 Alpha virt. eigenvalues --    0.17805   0.18753   0.19577   0.19616   0.20701

 Mulliken charges:
               1
     1  C   -0.480347
     2  C    0.363581
     3  O   -0.297088
     4  C   -0.099060
     5  C   -0.264185
     6  C    0.129081
     7  O   -0.293218
     8  C   -0.087767
     9  C   -0.088042
    10  H    0.135895
    11  H    0.143662
    12  H    0.144827
    13  H    0.081794
    14  H    0.109626
    15  H    0.131608
    16  H    0.081787
    17  H    0.099881
    18  H    0.102710
    19  H    0.085256
 Sum of Mulliken charges =   0.00000

 Dipole moment (field-independent basis, Debye):
    X=             -0.4692    Y=              2.5349    Z=              0.3223  Tot=              2.5980
 Quadrupole moment (field-independent basis, Debye-Ang):
   XX=            -61.5548   YY=            -52.2514   ZZ=            -51.5435
   XY=             -3.9810   XZ=             -3.9131   YZ=             -0.7107

  Exact polarizability:  85.232   0.997  78.740  -0.421   1.941  63.199
 Approx polarizability: 111.811   5.889 119.264   2.755   6.619  98.588

                      1                      2                      3
                      A                      A                      A
 Frequencies --     53.5676                75.7422               130.9100
 Red. masses --      3.8196                 3.7617                 1.0633
 Frc consts  --      0.0065                 0.0127                 0.0107
 IR Inten    --      2.4097                 3.9612                 0.1410

                      4                      5                      6
                      A                      A                      A
 Frequencies --    162.9522               226.7397               325.8103
 Red. masses --      3.7097                 3.3635                 3.3812
 Frc consts  --      0.0580                 0.1019                 0.2115
 IR Inten    --      1.9452                 2.5359                 0.9220

                      7                      8                      9
                      A                      A                      A
 Frequencies --    342.4631               418.2762               561.4235
 Red. masses --      2.6091                 2.2403                 2.7336
 Frc consts  --      0.1803                 0.2309                 0.5077
 IR Inten    --      3.6046                 8.0964                 0.0203

                     10                     11                     12
                      A                      A                      A
 Frequencies --    587.3587               681.1095               751.6652
 Red. masses --      3.6007                 3.0782                 2.5730
 Frc consts  --      0.7319                 0.8414                 0.8565
 IR Inten    --     13.0611                 2.8776                 0.0289

                     13                     14                     15
                      A                      A                      A
 Frequencies --    817.8198               824.8417               879.4092
 Red. masses --      2.0682                 2.3162                 1.9678
 Frc consts  --      0.8150                 0.9284                 0.8967
 IR Inten    --     10.6211                 4.2253                 1.8563

                     16                     17                     18
                      A                      A                      A
 Frequencies --    922.3434               941.8479               972.1147
 Red. masses --      3.8702                 2.3569                 2.5359
 Frc consts  --      1.9399                 1.2319                 1.4119
 IR Inten    --      8.1189                12.1830                 7.3872

                     19                     20                     21
                      A                      A                      A
 Frequencies --    984.9746              1005.0994              1023.8251
 Red. masses --      1.8849                 1.5177                 4.5910
 Frc consts  --      1.0774                 0.9033                 2.8354
 IR Inten    --     14.3290                 1.1046                50.8725

                     22                     23                     24
                      A                      A                      A
 Frequencies --   1043.4563              1062.7836              1086.7164
 Red. masses --      2.1798                 3.2181                 2.0275
 Frc consts  --      1.3984                 2.1416                 1.4107
 IR Inten    --      1.7994                34.1367                 8.6210

                     25                     26                     27
                      A                      A                      A
 Frequencies --   1151.5115              1163.8306              1174.8077
 Red. masses --      1.3258                 1.2681                 1.6441
 Frc consts  --      1.0358                 1.0120                 1.3369
 IR Inten    --      0.6989                 1.7916                14.1925

                     28                     29                     30
                      A                      A                      A
 Frequencies --   1184.6323              1224.9647              1236.4706
 Red. masses --      1.9545                 1.4393                 1.6448
 Frc consts  --      1.6161                 1.2725                 1.4816
 IR Inten    --     77.3837                10.2903                 1.3843

                     31                     32                     33
                      A                      A                      A
 Frequencies --   1271.2938              1290.6001              1306.4084
 Red. masses --      1.5673                 1.5508                 1.3412
 Frc consts  --      1.4924                 1.5219                 1.3487
 IR Inten    --      9.3458                 6.1514                 3.2008

                     34                     35                     36
                      A                      A                      A
 Frequencies --   1354.4288              1362.9457              1382.4169
 Red. masses --      1.6582                 1.4065                 1.3801
 Frc consts  --      1.7922                 1.5394                 1.5540
 IR Inten    --     18.2580                17.5652                40.7227

                     37                     38                     39
                      A                      A                      A
 Frequencies --   1456.9622              1463.0687              1476.5940
 Red. masses --      1.1084                 1.0532                 1.0525
 Frc consts  --      1.3862                 1.3283                 1.3521
 IR Inten    --      7.3808                 7.8502                 7.4944

                     40                     41                     42
                      A                      A                      A
 Frequencies --   1522.3484              1807.0354              3001.9494
 Red. masses --      1.0990                10.6343                 1.0552
 Frc consts  --      1.5007                20.4595                 5.6027
 IR Inten    --      0.9037               135.7573                81.3461

                     43                     44                     45
                      A                      A                      A
 Frequencies --   3034.8678              3044.9204              3055.7966
 Red. masses --      1.0380                 1.1098                 1.0844
 Frc consts  --      5.6328                 6.0625                 5.9662
 IR Inten    --      1.3475                33.4075                31.6143

                     46                     47                     48
                      A                      A                      A
 Frequencies --   3070.3649              3080.2200              3095.6757
 Red. masses --      1.0635                 1.0827                 1.0976
 Frc consts  --      5.9070                 6.0525                 6.1976
 IR Inten    --     17.9303                49.2267                 6.9720

                     49                     50                     51
                      A                      A                      A
 Frequencies --   3114.5803              3136.9592              3152.2164
 Red. masses --      1.0902                 1.1082                 1.1020
 Frc consts  --      6.2308                 6.4253                 6.4514
 IR Inten    --     25.4203                 7.5229                10.8385

 - Thermochemistry -
 -------------------
 Temperature   298.150 Kelvin.  Pressure   1.00000 Atm.
 Atom     1 has atomic number  6 and mass  12.00000

 Molecular mass:   126.06808 amu.
 Principal axes and moments of inertia in atomic units:
                           1         2         3
     Eigenvalues --   497.972081597.337001888.26850
           X            0.99966  -0.02477  -0.00871
           Y            0.02472   0.99968  -0.00541
           Z            0.00885   0.00520   0.99995
 This molecule is an asymmetric top.
 Rotational symmetry number  1.
 Warning -- assumption of classical behavior for rotation
           may cause significant error
 Rotational temperatures (Kelvin)      0.17393     0.05422     0.04587
 Rotational constants (GHZ):           3.62418     1.12984     0.95577
 Zero-point vibrational energy     415709.0 (Joules/Mol)
                                   99.35684 (Kcal/Mol)
 Warning -- explicit consideration of  10 degrees of freedom as
           vibrations may cause significant error
 Vibrational temperatures:     77.07   108.98   188.35   234.45   326.23
          (Kelvin)            468.77   492.73   601.81   807.76   845.08
                              979.96  1081.48  1176.66  1186.76  1265.27
                             1327.04  1355.11  1398.65  1417.16  1446.11
                             1473.05  1501.30  1529.11  1563.54  1656.77
                             1674.49  1690.28  1704.42  1762.45  1779.00
                             1829.11  1856.88  1879.63  1948.72  1960.97
                             1988.99  2096.24  2105.03  2124.49  2190.32
                             2599.92  4319.13  4366.49  4380.96  4396.60
                             4417.56  4431.74  4453.98  4481.18  4513.38
                             4535.33

 Zero-point correction=                           0.158335 (Hartree/Particle)
 Thermal correction to Energy=                    0.166934
 Thermal correction to Enthalpy=                  0.167878
 Thermal correction to Gibbs Free Energy=         0.124152
 Sum of electronic and zero-point Energies=           -423.010053
 Sum of electronic and thermal Energies=              -423.001455
 Sum of electronic and thermal Enthalpies=            -423.000510
 Sum of electronic and thermal Free Energies=         -423.044237

                     E (Thermal)             CV                S
                      KCal/Mol        Cal/Mol-Kelvin    Cal/Mol-Kelvin
 Total                  104.753             31.514             92.030
 Electronic               0.000              0.000              0.000
 Translational            0.889              2.981             40.409
 Rotational               0.889              2.981             28.798
 Vibrational            102.975             25.552             22.824
 Vibration     1          0.596              1.976              4.681
 Vibration     2          0.599              1.965              3.998
 Vibration     3          0.612              1.922              2.933
 Vibration     4          0.623              1.888              2.515
 Vibration     5          0.650              1.800              1.905
 Vibration     6          0.710              1.624              1.281
 Vibration     7          0.722              1.591              1.201
 Vibration     8          0.781              1.431              0.898
 Vibration     9          0.917              1.115              0.521
 Vibration    10          0.944              1.059              0.472

 Normal termination of Gaussian 09 at Mon Jan 27 14:52:59 2020.
