 Gaussian 09, Revision D.01,
 Gaussian 09:  ES64L-G09RevD.01 24-Apr-2013

 -----------------------------
 # b3lyp 6-31G(2df,p) opt Freq
 -----------------------------

 -----
 titel
 -----
 Symbolic Z-matrix:
 Charge =  0 Multiplicity = 1

 SCF Done:  E(RB3LYP) =  -423.173271951     A.U. after   14 cycles
 Optimization completed.
    -- Stationary point found.
 Normal termination of Gaussian 09 at Mon Jan 27 16:22:56 2020.

 ----------------------------------------------------------------------
 #N Geom=AllCheck Guess=TCheck SCRF=Check GenChk RB3LYP/6-31G(2df,p) Fr
 eq
 ----------------------------------------------------------------------

 Structure from the checkpoint file:  "/scratch/puck/g09_7b769082-05fc-4934-b450-82b49c23fda1/Gau-83683.chk"
 -----
 titel
 -----
 Charge =  0 Multiplicity = 1

                         Standard orientation:
 ---------------------------------------------------------------------
 Center     Atomic      Atomic             Coordinates (Angstroms)
 Number     Number       Type             X           Y           Z
 ---------------------------------------------------------------------
      1          6           0        1.237899    1.813035   -0.071389
      2          6           0        0.536296    0.457738    0.060336
      3          6           0        1.562598   -0.588070    0.413288
      4          8           0        1.880819   -1.525734   -0.275366
      5          6           0       -0.549570    0.184493   -1.020187
      6          6           0       -1.152012   -1.184644   -0.653657
      7          6           0       -1.322795   -0.922109    0.879314
      8          6           0       -0.791095    0.525747    0.891906
      9          8           0       -1.434475    1.095950   -0.283784
     10          1           0        1.957496    1.801750   -0.896704
     11          1           0        0.498981    2.593236   -0.261575
     12          1           0        1.784632    2.065126    0.844276
     13          1           0        2.059795   -0.412205    1.397835
     14          1           0       -0.412757    0.449427   -2.068161
     15          1           0       -2.108568   -1.327956   -1.159221
     16          1           0       -0.488836   -2.017162   -0.886816
     17          1           0       -2.363738   -0.961648    1.205129
     18          1           0       -0.736942   -1.600342    1.506748
     19          1           0       -0.888731    1.130906    1.794019
 ---------------------------------------------------------------------

 SCF Done:  E(RB3LYP) =  -423.173271951     A.U. after    1 cycles

 The electronic state is 1-A.
 Alpha  occ. eigenvalues --  -19.14744 -19.14017 -10.27559 -10.24752 -10.24195
 Alpha  occ. eigenvalues --  -10.21083 -10.19017 -10.18965 -10.18324  -1.05881
 Alpha  occ. eigenvalues --   -1.05030  -0.81156  -0.77147  -0.71359  -0.66750
 Alpha  occ. eigenvalues --   -0.62262  -0.57870  -0.53625  -0.51485  -0.49112
 Alpha  occ. eigenvalues --   -0.46433  -0.45951  -0.43387  -0.40681  -0.40330
 Alpha  occ. eigenvalues --   -0.38802  -0.36959  -0.36136  -0.35318  -0.34998
 Alpha  occ. eigenvalues --   -0.33607  -0.30593  -0.26477  -0.24695
 Alpha virt. eigenvalues --   -0.03145   0.08839   0.09511   0.11247   0.12023
 Alpha virt. eigenvalues --    0.12869   0.13320   0.15080   0.15395   0.16487
 Alpha virt. eigenvalues --    0.16967   0.17612   0.18614   0.18934   0.21717

 Mulliken charges:
               1
     1  C   -0.474999
     2  C    0.241307
     3  C    0.082691
     4  O   -0.254782
     5  C    0.037920
     6  C   -0.226079
     7  C   -0.235876
     8  C    0.035141
     9  O   -0.303286
    10  H    0.129242
    11  H    0.150819
    12  H    0.119289
    13  H    0.075944
    14  H    0.084428
    15  H    0.107553
    16  H    0.131463
    17  H    0.111444
    18  H    0.106556
    19  H    0.081226
 Sum of Mulliken charges =   0.00000

 Dipole moment (field-independent basis, Debye):
    X=             -0.0178    Y=              0.8828    Z=              1.2328  Tot=              1.5164
 Quadrupole moment (field-independent basis, Debye-Ang):
   XX=            -57.0811   YY=            -57.1535   ZZ=            -49.9100
   XY=              6.6921   XZ=              0.8528   YZ=             -0.3353

  Exact polarizability:  76.245   2.659  75.770   0.874   2.517  71.573
 Approx polarizability: 108.432  -6.166 114.432  -0.383   7.786 111.771

                      1                      2                      3
                      A                      A                      A
 Frequencies --     81.0977               175.2029               220.2130
 Red. masses --      4.3314                 3.7107                 2.9559
 Frc consts  --      0.0168                 0.0671                 0.0845
 IR Inten    --      7.1035                 5.2638                 1.4135

                      4                      5                      6
                      A                      A                      A
 Frequencies --    232.1254               279.8056               320.0068
 Red. masses --      1.0442                 2.5305                 2.2372
 Frc consts  --      0.0331                 0.1167                 0.1350
 IR Inten    --      0.1159                 2.6976                 2.3253

                      7                      8                      9
                      A                      A                      A
 Frequencies --    335.2411               432.8233               509.1582
 Red. masses --      2.0438                 3.2656                 4.7038
 Frc consts  --      0.1353                 0.3604                 0.7185
 IR Inten    --      1.0456                 0.7130                 5.0869

                     10                     11                     12
                      A                      A                      A
 Frequencies --    599.4812               664.9815               771.8992
 Red. masses --      4.1255                 3.9772                 5.2091
 Frc consts  --      0.8735                 1.0362                 1.8286
 IR Inten    --      6.2694                13.3359                 7.8351

                     13                     14                     15
                      A                      A                      A
 Frequencies --    830.3924               851.8258               865.5782
 Red. masses --      2.1819                 1.8592                 2.8009
 Frc consts  --      0.8864                 0.7948                 1.2364
 IR Inten    --      6.5850                 6.6609                43.5641

                     16                     17                     18
                      A                      A                      A
 Frequencies --    888.2470               918.5771               929.0911
 Red. masses --      2.4035                 2.4866                 2.0174
 Frc consts  --      1.1173                 1.2362                 1.0260
 IR Inten    --      3.0095                 2.1942                17.5493

                     19                     20                     21
                      A                      A                      A
 Frequencies --    951.8520               967.5382               999.5273
 Red. masses --      2.6548                 2.4971                 1.6188
 Frc consts  --      1.4172                 1.3773                 0.9528
 IR Inten    --      6.6200                21.1069                 4.1531

                     22                     23                     24
                      A                      A                      A
 Frequencies --   1015.1927              1032.1679              1084.2643
 Red. masses --      1.6245                 2.9557                 1.3329
 Frc consts  --      0.9864                 1.8553                 0.9232
 IR Inten    --      4.7445                 2.1944                 1.6374

                     25                     26                     27
                      A                      A                      A
 Frequencies --   1157.1869              1176.0633              1195.5068
 Red. masses --      2.3378                 1.8122                 1.3580
 Frc consts  --      1.8445                 1.4768                 1.1435
 IR Inten    --      5.5000                 3.2148                 2.1083

                     28                     29                     30
                      A                      A                      A
 Frequencies --   1231.3549              1243.9825              1251.9668
 Red. masses --      1.9416                 1.3227                 1.2836
 Frc consts  --      1.7345                 1.2059                 1.1854
 IR Inten    --      7.0323                 1.3119                 0.9682

                     31                     32                     33
                      A                      A                      A
 Frequencies --   1267.2016              1302.2927              1319.2151
 Red. masses --      2.4425                 1.5579                 1.6209
 Frc consts  --      2.3109                 1.5567                 1.6620
 IR Inten    --      2.8829                 2.4191                 4.8090

                     34                     35                     36
                      A                      A                      A
 Frequencies --   1339.3640              1397.2963              1427.1922
 Red. masses --      1.8295                 1.2150                 1.2229
 Frc consts  --      1.9337                 1.3977                 1.4676
 IR Inten    --      6.4581                 3.1253                 3.3103

                     37                     38                     39
                      A                      A                      A
 Frequencies --   1481.7747              1492.6865              1501.8063
 Red. masses --      1.0824                 1.0603                 1.1004
 Frc consts  --      1.4003                 1.3920                 1.4623
 IR Inten    --      2.7803                 4.6684                 7.3861

                     40                     41                     42
                      A                      A                      A
 Frequencies --   1504.7860              1818.4756              2840.2031
 Red. masses --      1.0581                10.8132                 1.0811
 Frc consts  --      1.4116                21.0678                 5.1380
 IR Inten    --      5.3420               136.4498               114.6639

                     43                     44                     45
                      A                      A                      A
 Frequencies --   3034.0900              3063.2693              3087.5102
 Red. masses --      1.0372                 1.0616                 1.0631
 Frc consts  --      5.6257                 5.8692                 5.9709
 IR Inten    --     27.7613                23.7219                20.5523

                     46                     47                     48
                      A                      A                      A
 Frequencies --   3094.6602              3114.8668              3119.3264
 Red. masses --      1.1007                 1.0971                 1.0956
 Frc consts  --      6.2109                 6.2714                 6.2810
 IR Inten    --     16.2735                26.2275                38.2924

                     49                     50                     51
                      A                      A                      A
 Frequencies --   3131.1075              3138.5798              3150.2987
 Red. masses --      1.0919                 1.0990                 1.1048
 Frc consts  --      6.3069                 6.3785                 6.4602
 IR Inten    --     24.0449                 4.6695                11.1573

 - Thermochemistry -
 -------------------
 Temperature   298.150 Kelvin.  Pressure   1.00000 Atm.
 Atom     1 has atomic number  6 and mass  12.00000

 Molecular mass:   126.06808 amu.
 Principal axes and moments of inertia in atomic units:
                           1         2         3
     Eigenvalues --   762.61459 976.688091324.37184
           X            0.97254   0.23271   0.00415
           Y           -0.23271   0.97254  -0.00189
           Z           -0.00447   0.00088   0.99999
 This molecule is an asymmetric top.
 Rotational symmetry number  1.
 Warning -- assumption of classical behavior for rotation
           may cause significant error
 Rotational temperatures (Kelvin)      0.11357     0.08868     0.06540
 Rotational constants (GHZ):           2.36652     1.84782     1.36271
 Zero-point vibrational energy     417726.1 (Joules/Mol)
                                   99.83894 (Kcal/Mol)
 Warning -- explicit consideration of  10 degrees of freedom as
           vibrations may cause significant error
 Vibrational temperatures:    116.68   252.08   316.84   333.98   402.58
          (Kelvin)            460.42   482.34   622.74   732.56   862.52
                              956.76  1110.59  1194.75  1225.59  1245.37
                             1277.99  1321.63  1336.75  1369.50  1392.07
                             1438.10  1460.63  1485.06  1560.01  1664.93
                             1692.09  1720.07  1771.64  1789.81  1801.30
                             1823.22  1873.71  1898.05  1927.04  2010.40
                             2053.41  2131.94  2147.64  2160.76  2165.05
                             2616.38  4086.41  4365.37  4407.36  4442.23
                             4452.52  4481.59  4488.01  4504.96  4515.71
                             4532.57

 Zero-point correction=                           0.159103 (Hartree/Particle)
 Thermal correction to Energy=                    0.167186
 Thermal correction to Enthalpy=                  0.168130
 Thermal correction to Gibbs Free Energy=         0.126629
 Sum of electronic and zero-point Energies=           -423.014168
 Sum of electronic and thermal Energies=              -423.006086
 Sum of electronic and thermal Enthalpies=            -423.005142
 Sum of electronic and thermal Free Energies=         -423.046643

                     E (Thermal)             CV                S
                      KCal/Mol        Cal/Mol-Kelvin    Cal/Mol-Kelvin
 Total                  104.911             31.317             87.346
 Electronic               0.000              0.000              0.000
 Translational            0.889              2.981             40.409
 Rotational               0.889              2.981             28.380
 Vibrational            103.133             25.355             18.557
 Vibration     1          0.600              1.962              3.864
 Vibration     2          0.627              1.873              2.379
 Vibration     3          0.647              1.810              1.957
 Vibration     4          0.653              1.792              1.862
 Vibration     5          0.680              1.711              1.535
 Vibration     6          0.706              1.635              1.310
 Vibration     7          0.716              1.605              1.235
 Vibration     8          0.794              1.399              0.849
 Vibration     9          0.864              1.230              0.636
 Vibration    10          0.958              1.033              0.451

 Optimization completed.
    -- Stationary point found.
 Normal termination of Gaussian 09 at Mon Jan 27 17:10:27 2020.
