 Gaussian 09, Revision D.01,
 Gaussian 09:  ES64L-G09RevD.01 24-Apr-2013

 -----------------------------
 # b3lyp 6-31G(2df,p) opt Freq
 -----------------------------

 -----
 titel
 -----
 Symbolic Z-matrix:
 Charge =  0 Multiplicity = 1

 SCF Done:  E(RB3LYP) =  -423.164518359     A.U. after   13 cycles
 Optimization completed.
    -- Stationary point found.
 Normal termination of Gaussian 09 at Mon Jan 27 11:25:11 2020.

 ----------------------------------------------------------------------
 #N Geom=AllCheck Guess=TCheck SCRF=Check GenChk RB3LYP/6-31G(2df,p) Fr
 eq
 ----------------------------------------------------------------------

 Structure from the checkpoint file:  "/scratch/puck/g09_ca5bd93e-351b-4d18-a740-e5db37ba9558/Gau-22773.chk"
 -----
 titel
 -----
 Charge =  0 Multiplicity = 1

                         Standard orientation:
 ---------------------------------------------------------------------
 Center     Atomic      Atomic             Coordinates (Angstroms)
 Number     Number       Type             X           Y           Z
 ---------------------------------------------------------------------
      1          6           0        0.471308   -0.329620    1.334658
      2          6           0        1.086344   -1.123864    0.158591
      3          6           0        2.141634   -0.097407   -0.359974
      4          6           0        1.304584    1.246278   -0.316345
      5          6           0        0.010999    0.604156    0.151698
      6          8           0       -1.243267    1.210594    0.155843
      7          6           0       -2.162190    0.130722   -0.027730
      8          8           0       -1.441737   -1.053882   -0.388544
      9          6           0       -0.118598   -0.660363   -0.703569
     10          1           0       -0.362131   -0.838984    1.814914
     11          1           0        1.152847    0.088272    2.079407
     12          1           0        1.404834   -2.161580    0.242685
     13          1           0        3.017041   -0.064435    0.293127
     14          1           0        2.484353   -0.327121   -1.372881
     15          1           0        1.712533    1.979322    0.383446
     16          1           0        1.209733    1.716109   -1.298523
     17          1           0       -2.704820   -0.079260    0.903506
     18          1           0       -2.867919    0.418058   -0.818549
     19          1           0        0.029072   -0.603489   -1.789503
 ---------------------------------------------------------------------

 SCF Done:  E(RB3LYP) =  -423.164518359     A.U. after    1 cycles

 The electronic state is 1-A.
 Alpha  occ. eigenvalues --  -19.15185 -19.14775 -10.27682 -10.23813 -10.22594
 Alpha  occ. eigenvalues --  -10.19672 -10.19231 -10.18984 -10.17905  -1.08804
 Alpha  occ. eigenvalues --   -0.99769  -0.88748  -0.72827  -0.70905  -0.67498
 Alpha  occ. eigenvalues --   -0.62937  -0.56642  -0.55283  -0.50928  -0.49585
 Alpha  occ. eigenvalues --   -0.48526  -0.45758  -0.44630  -0.41235  -0.39755
 Alpha  occ. eigenvalues --   -0.37428  -0.36070  -0.35649  -0.34375  -0.33562
 Alpha  occ. eigenvalues --   -0.32038  -0.28566  -0.26496  -0.24631
 Alpha virt. eigenvalues --    0.08821   0.08854   0.11175   0.12321   0.12805
 Alpha virt. eigenvalues --    0.14296   0.15470   0.15805   0.16953   0.17718
 Alpha virt. eigenvalues --    0.18629   0.19430   0.20108   0.20393   0.20974

 Mulliken charges:
               1
     1  C   -0.299518
     2  C   -0.085872
     3  C   -0.213746
     4  C   -0.306380
     5  C    0.448080
     6  O   -0.330730
     7  C   -0.001396
     8  O   -0.299156
     9  C    0.106494
    10  H    0.113961
    11  H    0.088479
    12  H    0.070877
    13  H    0.106503
    14  H    0.104682
    15  H    0.107040
    16  H    0.107517
    17  H    0.109373
    18  H    0.109691
    19  H    0.064100
 Sum of Mulliken charges =   0.00000

 Dipole moment (field-independent basis, Debye):
    X=              1.0542    Y=              0.0095    Z=             -0.0517  Tot=              1.0555
 Quadrupole moment (field-independent basis, Debye-Ang):
   XX=            -50.3449   YY=            -57.0161   ZZ=            -51.9047
   XY=             -0.2977   XZ=             -0.4101   YZ=             -0.9070

  Exact polarizability:  86.478  -0.489  65.639  -0.495  -1.382  68.684
 Approx polarizability: 115.722  -0.922 102.159  -0.118   0.004 103.889

                      1                      2                      3
                      A                      A                      A
 Frequencies --     61.7834               265.5324               294.4239
 Red. masses --      2.2610                 3.3354                 2.1248
 Frc consts  --      0.0051                 0.1386                 0.1085
 IR Inten    --      7.2424                 0.0922                 1.0288

                      4                      5                      6
                      A                      A                      A
 Frequencies --    362.4881               436.6558               453.4691
 Red. masses --      3.7942                 2.6118                 2.7186
 Frc consts  --      0.2937                 0.2934                 0.3294
 IR Inten    --      2.7367                 2.3006                 2.3378

                      7                      8                      9
                      A                      A                      A
 Frequencies --    547.6339               666.5798               700.4481
 Red. masses --      3.8578                 3.7367                 4.9354
 Frc consts  --      0.6817                 0.9782                 1.4267
 IR Inten    --      2.8038                 3.3384                 5.9307

                     10                     11                     12
                      A                      A                      A
 Frequencies --    745.9329               819.7603               848.4244
 Red. masses --      7.9253                 1.4677                 2.3233
 Frc consts  --      2.5981                 0.5811                 0.9853
 IR Inten    --      2.3747                 2.3650                 4.5052

                     13                     14                     15
                      A                      A                      A
 Frequencies --    864.4504               878.6737               916.7891
 Red. masses --      2.9298                 2.4116                 2.6115
 Frc consts  --      1.2899                 1.0970                 1.2932
 IR Inten    --      1.8680                 0.9423                 6.3723

                     16                     17                     18
                      A                      A                      A
 Frequencies --    937.7355               949.5174               966.4773
 Red. masses --      3.5485                 1.8972                 2.5042
 Frc consts  --      1.8385                 1.0078                 1.3782
 IR Inten    --     40.7489                 1.3732                14.3153

                     19                     20                     21
                      A                      A                      A
 Frequencies --   1020.4945              1026.9089              1048.5079
 Red. masses --      2.4481                 2.6902                 1.4784
 Frc consts  --      1.5021                 1.6714                 0.9576
 IR Inten    --      7.1212                 6.0055                 9.4334

                     22                     23                     24
                      A                      A                      A
 Frequencies --   1073.7737              1103.7098              1129.0436
 Red. masses --      2.1936                 1.6957                 1.8220
 Frc consts  --      1.4901                 1.2171                 1.3684
 IR Inten    --     47.1108                13.4914                 3.8721

                     25                     26                     27
                      A                      A                      A
 Frequencies --   1135.3124              1160.2111              1191.5065
 Red. masses --      1.5428                 2.4411                 1.4589
 Frc consts  --      1.1716                 1.9360                 1.2203
 IR Inten    --     14.6848               108.0622                 2.8930

                     28                     29                     30
                      A                      A                      A
 Frequencies --   1200.8999              1218.9119              1238.1115
 Red. masses --      1.1706                 1.4031                 1.4929
 Frc consts  --      0.9946                 1.2282                 1.3484
 IR Inten    --      8.5517                 3.1927                28.5854

                     31                     32                     33
                      A                      A                      A
 Frequencies --   1242.1943              1267.4084              1293.9701
 Red. masses --      1.6890                 1.6915                 1.7921
 Frc consts  --      1.5355                 1.6009                 1.7679
 IR Inten    --     43.2311                10.4936                 4.1276

                     34                     35                     36
                      A                      A                      A
 Frequencies --   1305.6656              1334.9195              1374.2821
 Red. masses --      1.6463                 2.2354                 1.3139
 Frc consts  --      1.6536                 2.3470                 1.4621
 IR Inten    --     24.8034                52.8197                23.7166

                     37                     38                     39
                      A                      A                      A
 Frequencies --   1433.3841              1487.6286              1493.8702
 Red. masses --      1.3304                 1.0944                 1.0997
 Frc consts  --      1.6105                 1.4270                 1.4460
 IR Inten    --     10.2818                 2.2501                 2.9384

                     40                     41                     42
                      A                      A                      A
 Frequencies --   1520.6396              1545.3403              3002.7392
 Red. masses --      1.1356                 1.1043                 1.0532
 Frc consts  --      1.5472                 1.5537                 5.5948
 IR Inten    --      9.9928                 1.4842               114.9550

                     43                     44                     45
                      A                      A                      A
 Frequencies --   3022.0604              3043.6380              3057.3720
 Red. masses --      1.0852                 1.1152                 1.0588
 Frc consts  --      5.8395                 6.0867                 5.8310
 IR Inten    --     45.8179                54.7809                29.4836

                     46                     47                     48
                      A                      A                      A
 Frequencies --   3066.9388              3074.3639              3099.6793
 Red. masses --      1.0592                 1.0625                 1.1075
 Frc consts  --      5.8701                 5.9170                 6.2696
 IR Inten    --     45.1960                26.6239                 1.2018

                     49                     50                     51
                      A                      A                      A
 Frequencies --   3118.0376              3129.7562              3157.1466
 Red. masses --      1.1068                 1.0910                 1.1034
 Frc consts  --      6.3400                 6.2962                 6.4801
 IR Inten    --     41.9402                38.2671                17.1602

 - Thermochemistry -
 -------------------
 Temperature   298.150 Kelvin.  Pressure   1.00000 Atm.
 Atom     1 has atomic number  6 and mass  12.00000

 Molecular mass:   126.06808 amu.
 Principal axes and moments of inertia in atomic units:
                           1         2         3
     Eigenvalues --   532.025141053.255161230.70397
           X            0.99996   0.00519  -0.00773
           Y           -0.00553   0.99898  -0.04476
           Z            0.00749   0.04480   0.99897
 This molecule is an asymmetric top.
 Rotational symmetry number  1.
 Warning -- assumption of classical behavior for rotation
           may cause significant error
 Rotational temperatures (Kelvin)      0.16280     0.08223     0.07038
 Rotational constants (GHZ):           3.39221     1.71349     1.46643
 Zero-point vibrational energy     426679.3 (Joules/Mol)
                                  101.97879 (Kcal/Mol)
 Warning -- explicit consideration of   7 degrees of freedom as
           vibrations may cause significant error
 Vibrational temperatures:     88.89   382.04   423.61   521.54   628.25
          (Kelvin)            652.44   787.92   959.06  1007.79  1073.23
                             1179.45  1220.69  1243.75  1264.21  1319.05
                             1349.19  1366.14  1390.54  1468.26  1477.49
                             1508.57  1544.92  1587.99  1624.44  1633.46
                             1669.28  1714.31  1727.82  1753.74  1781.36
                             1787.24  1823.52  1861.73  1878.56  1920.65
                             1977.28  2062.32  2140.36  2149.34  2187.86
                             2223.40  4320.27  4348.07  4379.11  4398.87
                             4412.64  4423.32  4459.74  4486.16  4503.02
                             4542.42

 Zero-point correction=                           0.162514 (Hartree/Particle)
 Thermal correction to Energy=                    0.169272
 Thermal correction to Enthalpy=                  0.170216
 Thermal correction to Gibbs Free Energy=         0.131176
 Sum of electronic and zero-point Energies=           -423.002005
 Sum of electronic and thermal Energies=              -422.995247
 Sum of electronic and thermal Enthalpies=            -422.994303
 Sum of electronic and thermal Free Energies=         -423.033342

                     E (Thermal)             CV                S
                      KCal/Mol        Cal/Mol-Kelvin    Cal/Mol-Kelvin
 Total                  106.219             27.723             82.165
 Electronic               0.000              0.000              0.000
 Translational            0.889              2.981             40.409
 Rotational               0.889              2.981             28.024
 Vibrational            104.442             21.761             13.732
 Vibration     1          0.597              1.973              4.399
 Vibration     2          0.671              1.736              1.625
 Vibration     3          0.689              1.684              1.448
 Vibration     4          0.736              1.550              1.111
 Vibration     5          0.797              1.390              0.837
 Vibration     6          0.812              1.353              0.785
 Vibration     7          0.903              1.145              0.549

 Optimization completed.
    -- Stationary point found.
 Normal termination of Gaussian 09 at Mon Jan 27 13:00:41 2020.
