 Gaussian 09, Revision D.01,
 Gaussian 09:  ES64L-G09RevD.01 24-Apr-2013

 -----------------------------
 # b3lyp 6-31G(2df,p) opt Freq
 -----------------------------

 -----
 titel
 -----
 Symbolic Z-matrix:
 Charge =  0 Multiplicity = 1

 SCF Done:  E(RB3LYP) =  -423.132693151     A.U. after   13 cycles
 Optimization completed.
    -- Stationary point found.
 Normal termination of Gaussian 09 at Mon Jan 27 18:06:31 2020.

 ----------------------------------------------------------------------
 #N Geom=AllCheck Guess=TCheck SCRF=Check GenChk RB3LYP/6-31G(2df,p) Fr
 eq
 ----------------------------------------------------------------------

 Structure from the checkpoint file:  "/scratch/puck/g09_883c5c03-16e6-450d-bd07-f9f4df27c267/Gau-114852.chk"
 -----
 titel
 -----
 Charge =  0 Multiplicity = 1

                         Standard orientation:
 ---------------------------------------------------------------------
 Center     Atomic      Atomic             Coordinates (Angstroms)
 Number     Number       Type             X           Y           Z
 ---------------------------------------------------------------------
      1          6           0        0.013153    2.208717   -0.212393
      2          6           0       -0.337706    0.753861   -0.044301
      3          6           0       -1.583711    0.171103   -0.696624
      4          8           0       -1.518611   -1.213817   -0.292120
      5          6           0       -0.348550   -1.249393    0.483896
      6          6           0       -0.188412    0.035400    1.337978
      7          8           0        1.268375   -0.024801    1.201350
      8          6           0        0.772785   -0.365693   -0.143263
      9          6           0        1.755253   -0.651342   -1.232776
     10          1           0        0.164634    2.463226   -1.267467
     11          1           0       -0.779721    2.858631    0.173949
     12          1           0        0.935561    2.429360    0.332156
     13          1           0       -2.515101    0.621829   -0.331044
     14          1           0       -1.570446    0.240688   -1.791821
     15          1           0       -0.142507   -2.238666    0.886960
     16          1           0       -0.602410    0.304357    2.309775
     17          1           0        1.227817   -0.960828   -2.140803
     18          1           0        2.356193    0.233840   -1.464477
     19          1           0        2.430997   -1.459407   -0.936175
 ---------------------------------------------------------------------

 SCF Done:  E(RB3LYP) =  -423.132693151     A.U. after    1 cycles

 The electronic state is 1-A.
 Alpha  occ. eigenvalues --  -19.14335 -19.13250 -10.24415 -10.23856 -10.23637
 Alpha  occ. eigenvalues --  -10.23077 -10.20379 -10.18667 -10.18281  -1.07361
 Alpha  occ. eigenvalues --   -1.02656  -0.80147  -0.75076  -0.73647  -0.69241
 Alpha  occ. eigenvalues --   -0.61815  -0.59140  -0.53147  -0.49038  -0.48107
 Alpha  occ. eigenvalues --   -0.47099  -0.43580  -0.42557  -0.41980  -0.41162
 Alpha  occ. eigenvalues --   -0.40217  -0.37575  -0.36398  -0.34810  -0.33489
 Alpha  occ. eigenvalues --   -0.32754  -0.29823  -0.24331  -0.23279
 Alpha virt. eigenvalues --    0.07943   0.08522   0.11653   0.11897   0.12753
 Alpha virt. eigenvalues --    0.13500   0.13991   0.14460   0.15792   0.16065
 Alpha virt. eigenvalues --    0.17564   0.18355   0.19216   0.19920   0.20407

 Mulliken charges:
               1
     1  C   -0.512407
     2  C    0.250832
     3  C   -0.147553
     4  O   -0.279343
     5  C    0.060583
     6  C   -0.024755
     7  O   -0.351152
     8  C    0.357369
     9  C   -0.535373
    10  H    0.118425
    11  H    0.119870
    12  H    0.140900
    13  H    0.106023
    14  H    0.105172
    15  H    0.099063
    16  H    0.087781
    17  H    0.133816
    18  H    0.132800
    19  H    0.137948
 Sum of Mulliken charges =   0.00000

 Dipole moment (field-independent basis, Debye):
    X=             -0.3657    Y=              0.9998    Z=             -1.0047  Tot=              1.4639
 Quadrupole moment (field-independent basis, Debye-Ang):
   XX=            -55.9696   YY=            -52.7355   ZZ=            -52.0874
   XY=             -3.8276   XZ=             -3.8924   YZ=             -0.9071

  Exact polarizability:  75.022  -3.748  75.643  -1.785  -1.481  72.515
 Approx polarizability: 111.514  -2.870 107.812   1.427  -1.116 110.454

                      1                      2                      3
                      A                      A                      A
 Frequencies --    165.6840               184.9788               209.2295
 Red. masses --      1.0718                 2.3023                 2.1875
 Frc consts  --      0.0173                 0.0464                 0.0564
 IR Inten    --      0.2884                 0.2097                 0.3842

                      4                      5                      6
                      A                      A                      A
 Frequencies --    237.0864               256.1548               271.6834
 Red. masses --      1.1190                 2.7822                 2.8204
 Frc consts  --      0.0371                 0.1076                 0.1227
 IR Inten    --      0.0608                 1.5058                 1.4819

                      7                      8                      9
                      A                      A                      A
 Frequencies --    403.4784               465.9423               486.2015
 Red. masses --      2.2639                 3.7301                 4.7443
 Frc consts  --      0.2171                 0.4771                 0.6608
 IR Inten    --      1.6834                 9.1155                 6.2090

                     10                     11                     12
                      A                      A                      A
 Frequencies --    638.5503               669.5232               690.0832
 Red. masses --      3.1284                 4.2086                 4.8178
 Frc consts  --      0.7516                 1.1115                 1.3518
 IR Inten    --      0.4092                 2.1562                 0.3391

                     13                     14                     15
                      A                      A                      A
 Frequencies --    721.5590               760.9604               791.4955
 Red. masses --      4.2007                 3.7809                 3.5616
 Frc consts  --      1.2886                 1.2899                 1.3146
 IR Inten    --      4.0226                 0.5370                20.3979

                     16                     17                     18
                      A                      A                      A
 Frequencies --    877.8910               923.3469               938.9337
 Red. masses --      2.3474                 2.3426                 1.9535
 Frc consts  --      1.0659                 1.1767                 1.0147
 IR Inten    --      3.9533                 5.4921                19.9684

                     19                     20                     21
                      A                      A                      A
 Frequencies --    960.4953               970.4797              1003.9514
 Red. masses --      2.3207                 3.2702                 1.3890
 Frc consts  --      1.2614                 1.8147                 0.8248
 IR Inten    --      8.9773                13.5417                 6.4039

                     22                     23                     24
                      A                      A                      A
 Frequencies --   1061.3188              1073.9473              1113.7555
 Red. masses --      1.6127                 5.2709                 1.8156
 Frc consts  --      1.0703                 3.5818                 1.3269
 IR Inten    --      2.5987                89.6580                15.5424

                     25                     26                     27
                      A                      A                      A
 Frequencies --   1137.4324              1160.2446              1178.1633
 Red. masses --      1.6535                 1.7799                 1.7608
 Frc consts  --      1.2604                 1.4117                 1.4401
 IR Inten    --      1.5607                 1.9966                10.5492

                     28                     29                     30
                      A                      A                      A
 Frequencies --   1215.6797              1230.2856              1243.2805
 Red. masses --      1.4803                 1.8191                 2.0799
 Frc consts  --      1.2890                 1.6222                 1.8942
 IR Inten    --      0.3646                 4.0790                 5.5077

                     31                     32                     33
                      A                      A                      A
 Frequencies --   1264.2453              1302.7592              1356.6147
 Red. masses --      1.9693                 2.4481                 2.0723
 Frc consts  --      1.8545                 2.4480                 2.2470
 IR Inten    --      9.6158                26.0405                 5.3970

                     34                     35                     36
                      A                      A                      A
 Frequencies --   1399.3774              1406.0448              1420.3658
 Red. masses --      1.4421                 1.4108                 2.3656
 Frc consts  --      1.6639                 1.6432                 2.8118
 IR Inten    --      5.0131                 7.5347                13.6929

                     37                     38                     39
                      A                      A                      A
 Frequencies --   1474.7932              1487.0149              1494.5149
 Red. masses --      1.0485                 1.0490                 1.0604
 Frc consts  --      1.3436                 1.3667                 1.3955
 IR Inten    --      3.8776                 6.5510                 0.5927

                     40                     41                     42
                      A                      A                      A
 Frequencies --   1498.5919              1519.5598              3014.4539
 Red. masses --      1.0500                 1.0968                 1.0558
 Frc consts  --      1.3893                 1.4921                 5.6525
 IR Inten    --      6.6691                 1.0607                51.8975

                     43                     44                     45
                      A                      A                      A
 Frequencies --   3030.1803              3036.4710              3051.9147
 Red. masses --      1.0363                 1.0348                 1.1092
 Frc consts  --      5.6063                 5.6212                 6.0871
 IR Inten    --     34.9698                14.4375                31.1766

                     46                     47                     48
                      A                      A                      A
 Frequencies --   3089.1660              3108.1824              3112.5123
 Red. masses --      1.1005                 1.1014                 1.1009
 Frc consts  --      6.1876                 6.2694                 6.2837
 IR Inten    --     21.6142                12.4616                 9.6690

                     49                     50                     51
                      A                      A                      A
 Frequencies --   3114.7949              3119.7329              3157.3693
 Red. masses --      1.1000                 1.0913                 1.0929
 Frc consts  --      6.2879                 6.2580                 6.4190
 IR Inten    --     10.4972                42.1671                27.5657

 - Thermochemistry -
 -------------------
 Temperature   298.150 Kelvin.  Pressure   1.00000 Atm.
 Atom     1 has atomic number  6 and mass  12.00000

 Molecular mass:   126.06808 amu.
 Principal axes and moments of inertia in atomic units:
                           1         2         3
     Eigenvalues --   836.05253 920.235751100.14338
           X            0.96723  -0.23892  -0.08594
           Y            0.23927   0.97093  -0.00635
           Z            0.08496  -0.01442   0.99628
 This molecule is an asymmetric top.
 Rotational symmetry number  1.
 Warning -- assumption of classical behavior for rotation
           may cause significant error
 Rotational temperatures (Kelvin)      0.10360     0.09412     0.07873
 Rotational constants (GHZ):           2.15865     1.96117     1.64046
 Zero-point vibrational energy     415705.2 (Joules/Mol)
                                   99.35592 (Kcal/Mol)
 Warning -- explicit consideration of   9 degrees of freedom as
           vibrations may cause significant error
 Vibrational temperatures:    238.38   266.14   301.03   341.11   368.55
          (Kelvin)            390.89   580.51   670.39   699.53   918.73
                              963.29   992.87  1038.16  1094.85  1138.78
                             1263.09  1328.49  1350.91  1381.94  1396.30
                             1444.46  1527.00  1545.17  1602.44  1636.51
                             1669.33  1695.11  1749.09  1770.10  1788.80
                             1818.96  1874.38  1951.86  2013.39  2022.98
                             2043.59  2121.90  2139.48  2150.27  2156.14
                             2186.30  4337.12  4359.75  4368.80  4391.02
                             4444.62  4471.98  4478.21  4481.49  4488.59
                             4542.74

 Zero-point correction=                           0.158334 (Hartree/Particle)
 Thermal correction to Energy=                    0.166341
 Thermal correction to Enthalpy=                  0.167286
 Thermal correction to Gibbs Free Energy=         0.126384
 Sum of electronic and zero-point Energies=           -422.974359
 Sum of electronic and thermal Energies=              -422.966352
 Sum of electronic and thermal Enthalpies=            -422.965408
 Sum of electronic and thermal Free Energies=         -423.006309

                     E (Thermal)             CV                S
                      KCal/Mol        Cal/Mol-Kelvin    Cal/Mol-Kelvin
 Total                  104.381             31.652             86.084
 Electronic               0.000              0.000              0.000
 Translational            0.889              2.981             40.409
 Rotational               0.889              2.981             28.228
 Vibrational            102.603             25.690             17.447
 Vibration     1          0.624              1.885              2.484
 Vibration     2          0.631              1.860              2.278
 Vibration     3          0.642              1.827              2.050
 Vibration     4          0.656              1.784              1.825
 Vibration     5          0.666              1.752              1.688
 Vibration     6          0.675              1.725              1.585
 Vibration     7          0.769              1.463              0.950
 Vibration     8          0.823              1.326              0.749
 Vibration     9          0.842              1.281              0.694

 Optimization completed.
    -- Stationary point found.
 Normal termination of Gaussian 09 at Mon Jan 27 18:50:21 2020.
