 Gaussian 09, Revision D.01,
 Gaussian 09:  ES64L-G09RevD.01 24-Apr-2013

 -----------------------------
 # b3lyp 6-31G(2df,p) opt Freq
 -----------------------------

 -----
 titel
 -----
 Symbolic Z-matrix:
 Charge =  0 Multiplicity = 1

 SCF Done:  E(RB3LYP) =  -423.172493497     A.U. after   14 cycles
 Optimization completed.
    -- Stationary point found.
 Normal termination of Gaussian 09 at Tue Jan 28 02:38:39 2020.

 ----------------------------------------------------------------------
 #N Geom=AllCheck Guess=TCheck SCRF=Check GenChk RB3LYP/6-31G(2df,p) Fr
 eq
 ----------------------------------------------------------------------

 Structure from the checkpoint file:  "/scratch/puck/g09_0acd18b6-af00-4529-a913-ff56241c4497/Gau-113542.chk"
 -----
 titel
 -----
 Charge =  0 Multiplicity = 1

                         Standard orientation:
 ---------------------------------------------------------------------
 Center     Atomic      Atomic             Coordinates (Angstroms)
 Number     Number       Type             X           Y           Z
 ---------------------------------------------------------------------
      1          6           0        2.382449   -1.064015    0.685339
      2          6           0        1.783768    0.025419   -0.178526
      3          8           0        0.673522   -0.484045   -0.987613
      4          6           0       -0.246139    0.357966   -0.290137
      5          6           0        0.091845    1.813550   -0.478904
      6          6           0        0.860721    1.017272    0.532312
      7          6           0       -1.577825   -0.140330    0.136346
      8          6           0       -1.920836   -1.557224   -0.267967
      9          8           0       -2.324168    0.571581    0.776114
     10          1           0        2.797932   -1.858292    0.058483
     11          1           0        3.189104   -0.656458    1.304670
     12          1           0        1.625359   -1.500331    1.343871
     13          1           0        2.546310    0.479225   -0.824052
     14          1           0        0.555775    2.108983   -1.415707
     15          1           0       -0.643330    2.495261   -0.066343
     16          1           0        0.862786    1.238675    1.591378
     17          1           0       -2.917759   -1.809272    0.094212
     18          1           0       -1.875503   -1.658106   -1.358091
     19          1           0       -1.179407   -2.255813    0.132795
 ---------------------------------------------------------------------

 SCF Done:  E(RB3LYP) =  -423.172493497     A.U. after    1 cycles

 The electronic state is 1-A.
 Alpha  occ. eigenvalues --  -19.14793 -19.12367 -10.26992 -10.25048 -10.24918
 Alpha  occ. eigenvalues --  -10.21062 -10.20057 -10.18787 -10.18438  -1.06322
 Alpha  occ. eigenvalues --   -1.03325  -0.84428  -0.77210  -0.74495  -0.66080
 Alpha  occ. eigenvalues --   -0.62701  -0.57574  -0.53475  -0.49990  -0.48358
 Alpha  occ. eigenvalues --   -0.47448  -0.43731  -0.42497  -0.42484  -0.40566
 Alpha  occ. eigenvalues --   -0.39426  -0.39313  -0.38035  -0.36255  -0.34883
 Alpha  occ. eigenvalues --   -0.32385  -0.29367  -0.25093  -0.23774
 Alpha virt. eigenvalues --   -0.02007   0.08150   0.09494   0.11336   0.11702
 Alpha virt. eigenvalues --    0.12436   0.12848   0.15509   0.15730   0.16607
 Alpha virt. eigenvalues --    0.16936   0.18021   0.19527   0.19614   0.21598

 Mulliken charges:
               1
     1  C   -0.401235
     2  C    0.124020
     3  O   -0.339434
     4  C    0.351885
     5  C   -0.337960
     6  C   -0.162491
     7  C    0.290380
     8  C   -0.483037
     9  O   -0.322890
    10  H    0.131636
    11  H    0.121166
    12  H    0.123938
    13  H    0.086321
    14  H    0.120490
    15  H    0.147002
    16  H    0.116765
    17  H    0.136975
    18  H    0.150227
    19  H    0.146243
 Sum of Mulliken charges =   0.00000

 Dipole moment (field-independent basis, Debye):
    X=              2.3727    Y=             -0.5035    Z=             -0.0406  Tot=              2.4259
 Quadrupole moment (field-independent basis, Debye-Ang):
   XX=            -55.2167   YY=            -51.4179   ZZ=            -54.2057
   XY=              3.4789   XZ=              4.2745   YZ=             -1.9311

  Exact polarizability:  89.796   0.500  78.576  -1.054   0.253  63.418
 Approx polarizability: 124.995  -1.584 112.716  -4.834   6.344 101.286

                      1                      2                      3
                      A                      A                      A
 Frequencies --     62.8087               102.0016               116.6365
 Red. masses --      3.4795                 2.5180                 1.2358
 Frc consts  --      0.0081                 0.0154                 0.0099
 IR Inten    --      5.0081                 0.3051                 0.0287

                      4                      5                      6
                      A                      A                      A
 Frequencies --    181.4446               249.6627               272.0416
 Red. masses --      2.8813                 1.1406                 2.8144
 Frc consts  --      0.0559                 0.0419                 0.1227
 IR Inten    --      7.3604                 1.7015                 1.1938

                      7                      8                      9
                      A                      A                      A
 Frequencies --    297.7655               356.7966               443.9250
 Red. masses --      2.5467                 3.4357                 4.5159
 Frc consts  --      0.1330                 0.2577                 0.5243
 IR Inten    --      1.7626                 3.4900                 3.7828

                     10                     11                     12
                      A                      A                      A
 Frequencies --    472.7955               524.8917               581.8068
 Red. masses --      2.6292                 4.1020                 2.5668
 Frc consts  --      0.3463                 0.6659                 0.5119
 IR Inten    --      0.0794                 6.5887                 7.1830

                     13                     14                     15
                      A                      A                      A
 Frequencies --    635.9495               770.7834               819.9043
 Red. masses --      3.1260                 2.5557                 3.1589
 Frc consts  --      0.7449                 0.8946                 1.2512
 IR Inten    --      5.6497                 1.6664                 2.4252

                     16                     17                     18
                      A                      A                      A
 Frequencies --    843.7198               878.9857               925.6778
 Red. masses --      2.3338                 3.3288                 1.9302
 Frc consts  --      0.9788                 1.5153                 0.9745
 IR Inten    --     12.9490                35.7059                 8.0928

                     19                     20                     21
                      A                      A                      A
 Frequencies --    944.5308               974.3289               995.1746
 Red. masses --      1.6657                 1.6865                 1.5148
 Frc consts  --      0.8755                 0.9433                 0.8839
 IR Inten    --      1.3705                28.1140                17.4850

                     22                     23                     24
                      A                      A                      A
 Frequencies --   1016.5748              1051.4222              1057.2527
 Red. masses --      2.2095                 1.9132                 1.6804
 Frc consts  --      1.3453                 1.2462                 1.1067
 IR Inten    --      8.2580                 5.9299                36.7285

                     25                     26                     27
                      A                      A                      A
 Frequencies --   1078.4142              1101.7329              1148.9226
 Red. masses --      1.6551                 1.5484                 2.4486
 Frc consts  --      1.1341                 1.1074                 1.9044
 IR Inten    --     31.0367                 0.7802                32.1042

                     28                     29                     30
                      A                      A                      A
 Frequencies --   1159.4311              1205.1298              1283.6289
 Red. masses --      2.8758                 1.9148                 1.9122
 Frc consts  --      2.2777                 1.6385                 1.8563
 IR Inten    --     59.0753                16.8268                22.6804

                     31                     32                     33
                      A                      A                      A
 Frequencies --   1300.8899              1369.9400              1385.1849
 Red. masses --      1.5883                 1.5501                 1.4834
 Frc consts  --      1.5836                 1.7140                 1.6769
 IR Inten    --     17.8534                11.6555                24.5308

                     34                     35                     36
                      A                      A                      A
 Frequencies --   1396.4058              1407.8285              1454.1852
 Red. masses --      2.1875                 1.3534                 1.0610
 Frc consts  --      2.5132                 1.5805                 1.3219
 IR Inten    --     83.7778                13.8381                15.8141

                     37                     38                     39
                      A                      A                      A
 Frequencies --   1465.1403              1466.3524              1485.7100
 Red. masses --      1.1087                 1.3027                 1.0613
 Frc consts  --      1.4023                 1.6504                 1.3803
 IR Inten    --     12.6027                 5.8038                 3.0213

                     40                     41                     42
                      A                      A                      A
 Frequencies --   1491.9284              1787.2200              3027.4135
 Red. masses --      1.0491                10.9512                 1.0836
 Frc consts  --      1.3758                20.6095                 5.8513
 IR Inten    --      2.5751               146.2511                44.4205

                     43                     44                     45
                      A                      A                      A
 Frequencies --   3036.3056              3043.0110              3103.8182
 Red. masses --      1.0363                 1.0361                 1.0969
 Frc consts  --      5.6289                 5.6528                 6.2262
 IR Inten    --     14.6346                 1.0386                 4.8501

                     46                     47                     48
                      A                      A                      A
 Frequencies --   3108.2079              3119.8067              3122.8131
 Red. masses --      1.1005                 1.1024                 1.0552
 Frc consts  --      6.2643                 6.3217                 6.0627
 IR Inten    --     20.3055                22.5251                 9.1985

                     49                     50                     51
                      A                      A                      A
 Frequencies --   3158.8442              3205.3211              3230.0654
 Red. masses --      1.1037                 1.0946                 1.1147
 Frc consts  --      6.4887                 6.6262                 6.8520
 IR Inten    --     10.9524                 4.2626                 1.9876

 - Thermochemistry -
 -------------------
 Temperature   298.150 Kelvin.  Pressure   1.00000 Atm.
 Atom     1 has atomic number  6 and mass  12.00000

 Molecular mass:   126.06808 amu.
 Principal axes and moments of inertia in atomic units:
                           1         2         3
     Eigenvalues --   661.003591343.134151647.65322
           X            0.99953   0.01692   0.02542
           Y           -0.01612   0.99937  -0.03159
           Z           -0.02594   0.03116   0.99918
 This molecule is an asymmetric top.
 Rotational symmetry number  1.
 Warning -- assumption of classical behavior for rotation
           may cause significant error
 Rotational temperatures (Kelvin)      0.13103     0.06449     0.05257
 Rotational constants (GHZ):           2.73030     1.34368     1.09534
 Zero-point vibrational energy     411040.1 (Joules/Mol)
                                   98.24093 (Kcal/Mol)
 Warning -- explicit consideration of  12 degrees of freedom as
           vibrations may cause significant error
 Vibrational temperatures:     90.37   146.76   167.81   261.06   359.21
          (Kelvin)            391.41   428.42   513.35   638.71   680.25
                              755.20   837.09   914.99  1108.98  1179.66
                             1213.92  1264.66  1331.84  1358.97  1401.84
                             1431.83  1462.62  1512.76  1521.15  1551.60
                             1585.15  1653.04  1668.16  1733.91  1846.85
                             1871.69  1971.04  1992.97  2009.11  2025.55
                             2092.25  2108.01  2109.75  2137.60  2146.55
                             2571.41  4355.77  4368.56  4378.21  4465.70
                             4472.01  4488.70  4493.03  4544.87  4611.74
                             4647.34

 Zero-point correction=                           0.156557 (Hartree/Particle)
 Thermal correction to Energy=                    0.165718
 Thermal correction to Enthalpy=                  0.166662
 Thermal correction to Gibbs Free Energy=         0.122365
 Sum of electronic and zero-point Energies=           -423.015937
 Sum of electronic and thermal Energies=              -423.006775
 Sum of electronic and thermal Enthalpies=            -423.005831
 Sum of electronic and thermal Free Energies=         -423.050129

                     E (Thermal)             CV                S
                      KCal/Mol        Cal/Mol-Kelvin    Cal/Mol-Kelvin
 Total                  103.990             33.880             93.232
 Electronic               0.000              0.000              0.000
 Translational            0.889              2.981             40.409
 Rotational               0.889              2.981             28.772
 Vibrational            102.212             27.918             24.052
 Vibration     1          0.597              1.972              4.367
 Vibration     2          0.604              1.948              3.416
 Vibration     3          0.608              1.936              3.155
 Vibration     4          0.630              1.865              2.314
 Vibration     5          0.662              1.763              1.733
 Vibration     6          0.675              1.725              1.583
 Vibration     7          0.691              1.678              1.429
 Vibration     8          0.732              1.561              1.136
 Vibration     9          0.803              1.374              0.814
 Vibration    10          0.830              1.310              0.730
 Vibration    11          0.880              1.195              0.599
 Vibration    12          0.939              1.071              0.482

 Normal termination of Gaussian 09 at Tue Jan 28 03:19:42 2020.
